
                                 *****************
                                 * O   R   C   A *
                                 *****************

                                            #,                                       
                                            ###                                      
                                            ####                                     
                                            #####                                    
                                            ######                                   
                                           ########,                                 
                                     ,,################,,,,,                         
                               ,,#################################,,                 
                          ,,##########################################,,             
                       ,#########################################, ''#####,          
                    ,#############################################,,   '####,        
                  ,##################################################,,,,####,       
                ,###########''''           ''''###############################       
              ,#####''   ,,,,##########,,,,          '''####'''          '####       
            ,##' ,,,,###########################,,,                        '##       
           ' ,,###''''                  '''############,,,                           
         ,,##''                                '''############,,,,        ,,,,,,###''
      ,#''                                            '''#######################'''  
     '                                                          ''''####''''         
             ,#######,   #######,   ,#######,      ##                                
            ,#'     '#,  ##    ##  ,#'     '#,    #''#        ,####,   ,####,        
            ##       ##  ##   ,#'  ##            #'  '#       #'       #'  '#        
            ##       ##  #######   ##           ,######,      #####,   #    #        
            '#,     ,#'  ##    ##  '#,     ,#' ,#      #,     #,   #   #,  ,#        
             '#######'   ##     ##  '#######'  #'      '#     '####' # '####'        



                #########################################################
                #                        -***-                          #
                #          Department of theory and spectroscopy        #
                #                                                       #
                #                      Frank Neese                      #
                #                                                       #
                #     Directorship, Architecture, Infrastructure        #
                #                    SHARK, DRIVERS                     #
                #        Core code/Algorithms in most modules           #
                #                                                       #
                #        Max Planck Institute fuer Kohlenforschung      #
                #                Kaiser Wilhelm Platz 1                 #
                #                 D-45470 Muelheim/Ruhr                 #
                #                      Germany                          #
                #                                                       #
                #                  All rights reserved                  #
                #                        -***-                          #
                #########################################################


                         Program Version 6.0.0  -   RELEASE  -


 With contributions from (in alphabetic order):
   Daniel Aravena         : Magnetic Suceptibility
   Michael Atanasov       : Ab Initio Ligand Field Theory (pilot matlab implementation)
   Alexander A. Auer      : GIAO ZORA, VPT2 properties, NMR spectrum
   Ute Becker             : All parallelization in ORCA, NUMFREQ, NUMCALC
   Giovanni Bistoni       : ED, misc. LED, open-shell LED, HFLD
   Martin Brehm           : Molecular dynamics
   Dmytro Bykov           : pre 5.0 version of the SCF Hessian
   Marcos Casanova-Páez   : Triplet and SCS-CIS(D). UHF-(DLPNO)-IP/EA/STEOM-CCSD. UHF-CVS-IP/STEOM-CCSD
   Vijay G. Chilkuri      : MRCI spin determinant printing, contributions to CSF-ICE
   Pauline Colinet        : FMM embedding
   Dipayan Datta          : RHF DLPNO-CCSD density
   Achintya Kumar Dutta   : EOM-CC, STEOM-CC
   Nicolas Foglia         : Exact transition moments, OPA infrastructure, MCD improvements
   Dmitry Ganyushin       : Spin-Orbit,Spin-Spin,Magnetic field MRCI
   Miquel Garcia          : C-PCM and meta-GGA Hessian, CCSD/C-PCM, Gaussian charge scheme
   Tiago L. C. Gouveia    : GS-ROHF, GS-ROCIS
   Yang Guo               : DLPNO-NEVPT2, F12-NEVPT2, CIM, IAO-localization
   Andreas Hansen         : Spin unrestricted coupled pair/coupled cluster methods
   Ingolf Harden          : AUTO-CI MPn and infrastructure 
   Benjamin Helmich-Paris : MC-RPA, TRAH-(SCF,CASSCF), AVAS, COSX integrals, SCF dyn. polar.
   Lee Huntington         : MR-EOM, pCC
   Robert Izsak           : Overlap fitted RIJCOSX, COSX-SCS-MP3, EOM
   Riya Kayal             : Wick's Theorem for AUTO-CI, AUTO-CI UHF-CCSDT
   Emily Kempfer          : AUTO-CI, RHF CISDT and CCSDT
   Christian Kollmar      : KDIIS, OOCD, Brueckner-CCSD(T), CCSD density, CASPT2, CASPT2-K, improved NEVPT2
   Axel Koslowski         : Symmetry handling
   Simone Kossmann        : Meta GGA functionals, TD-DFT gradient, OOMP2, (MP2 Hessian; deprecated post 5.0)
   Lucas Lang             : DCDCAS
   Marvin Lechner         : AUTO-CI (C++ implementation), FIC-MRCC
   Spencer Leger          : CASSCF response
   Dagmar Lenk            : GEPOL surface, SMD, ORCA-2-JSON
   Dimitrios Liakos       : Extrapolation schemes; Compound Job, initial MDCI parallelization
   Dimitrios Manganas     : Further ROCIS development; embedding schemes. LFT, Crystal Embedding
   Dimitrios Pantazis     : SARC Basis sets
   Anastasios Papadopoulos: AUTO-CI, single reference methods and gradients
   Taras Petrenko         : pre 6.0 DFT Hessian and TD-DFT gradient, (ASA, deprecated), ECA, 1-Electron XAS/XES, NRVS
   Peter Pinski           : DLPNO-MP2, DLPNO-MP2 Gradient
   Christoph Reimann      : Effective Core Potentials
   Marius Retegan         : Local ZFS, SOC
   Christoph Riplinger    : Optimizer, TS searches, QM/MM, DLPNO-CCSD(T), (RO)-DLPNO pert. Triples
   Michael Roemelt        : Original ROCIS implementation
   Masaaki Saitow         : Open-shell DLPNO-CCSD energy and density
   Barbara Sandhoefer     : DKH picture change effects
   Kantharuban Sivalingam : CASSCF convergence/infrastructure, NEVPT2 and variants, FIC-MRCI
   Bernardo de Souza      : ESD, SOC TD-DFT
   Georgi Stoychev        : AutoAux, RI-MP2 NMR, DLPNO-MP2 response, X2C
   Van Anh Tran           : RI-MP2 g-tensors
   Willem Van den Heuvel  : Paramagnetic NMR
   Zikuan Wang            : NOTCH, Electric field optimization 
   Frank Wennmohs         : Technical directorship and infrastructure
   Hang Xu                : AUTO-CI-Response properties 


 We gratefully acknowledge several colleagues who have allowed us to
 interface, adapt or use parts of their codes:
   Stefan Grimme, W. Hujo, H. Kruse, P. Pracht,  : VdW corrections, initial TS optimization,
                  C. Bannwarth, S. Ehlert,         DFT functionals, gCP, sTDA/sTD-DF
                  L. Wittmann, M. Mueller
   Ed Valeev, F. Pavosevic, A. Kumar             : LibInt (2-el integral package), F12 methods
   Garnet Chan, S. Sharma, J. Yang, R. Olivares  : DMRG
   Ulf Ekstrom                                   : XCFun DFT Library
   Mihaly Kallay                                 : mrcc  (arbitrary order and MRCC methods)
   Frank Weinhold                                : gennbo (NPA and NBO analysis)
   Simon Mueller                                 : openCOSMO-RS
   Christopher J. Cramer and Donald G. Truhlar   : smd solvation model
   Lars Goerigk                                  : TD-DFT with DH, B97 family of functionals
   V. Asgeirsson, H. Jonsson                     : NEB implementation
   FAccTs GmbH                                   : IRC, NEB, NEB-TS, DLPNO-Multilevel, CI-OPT
                                                   MM, QMMM, 2- and 3-layer-ONIOM, Crystal-QMMM,
                                                   LR-CPCM, SF, NACMEs, symmetry and pop. for TD-DFT,
                                                   nearIR, NL-DFT gradient (VV10), updates on ESD,
                                                   ML-optimized integration grids, MBIS, APM,
                                                   GOAT, DOCKER, SOLVATOR, interface openCOSMO-RS
   S Lehtola, MJT Oliveira, MAL Marques          : LibXC Library
   Liviu Ungur et al                             : ANISO software


 Your calculation uses the libint2 library for the computation of 2-el integrals
 For citations please refer to: http://libint.valeyev.net

 Your ORCA version has been built with support for libXC version: 6.2.2
 For citations please refer to: https://libxc.gitlab.io

 This ORCA versions uses:
   CBLAS   interface :  Fast vector & matrix operations
   LAPACKE interface :  Fast linear algebra routines
   SCALAPACK package :  Parallel linear algebra routines
   Shared memory     :  Shared parallel matrices
   BLAS/LAPACK       :  OpenBLAS 0.3.27  USE64BITINT DYNAMIC_ARCH NO_AFFINITY SkylakeX SINGLE_THREADED
        Core in use  :  SkylakeX
   Copyright (c) 2011-2014, The OpenBLAS Project


Warning: RI is on but no J-basis has been assigned. Assigning Def2/J (nothing to worry about!)
================================================================================

----- Orbital basis set information -----
Your calculation utilizes the basis: 6-31G*
   H-He, Li-Ne : W. J. Hehre, R. Ditchfield and J.A. Pople, J. Chem. Phys. 56, 2257 (1972).
                 Note: He and Ne are unpublished basis sets taken from the Gaussian program.
                 Note: Li and B from J. D. Dill and J. A. Pople, J. Chem. Phys. 62, 2921 (1975).
   Na - Ar     : M. M. Francl, W. J. Pietro, W. J. Hehre, J. S. Binkley, M. S. Gordon, 
                 D. J. DeFrees and J. A. Pople, J. Chem. Phys. 77, 3654 (1982).
   K - Zn      : V. A. Rassolov, J. A. Pople, M. A. Ratner, and T. L. Windus, J. Chem. Phys. 109, 1223 (1998).

----- AuxJ basis set information -----
Your calculation utilizes the auxiliary basis: def2/J
   F. Weigend, Phys. Chem. Chem. Phys. 8, 1057 (2006).

================================================================================
                                        WARNINGS
                       Please study these warnings very carefully!
================================================================================


================================================================================
                                       INPUT FILE
================================================================================
NAME = /home/nmrbox/aojoawo/Documents/ERDOS/inputs/CHEMBL3687338.inp
|  1> ! B3LYP 6-31G* SP
|  2> 
|  3> * xyz -1 1
|  4> C 0.4579 -1.4684 -1.9671
|  5> C -0.2781 -1.6797 -0.6630
|  6> C -0.8224 -0.5818 0.0429
|  7> N -0.6338 0.7616 -0.4141
|  8> C 0.3741 1.6135 0.2200
|  9> C 1.7559 1.1113 -0.0978
| 10> C 2.4422 1.4716 -1.2489
| 11> C 3.5844 0.7096 -1.2453
| 12> C 4.6116 0.6565 -2.1828
| 13> C 5.6558 -0.2508 -1.9629
| 14> C 5.6550 -1.0755 -0.8203
| 15> C 4.6084 -1.0063 0.1191
| 16> Cl 4.6840 -2.0640 1.5222
| 17> C 3.5655 -0.0858 -0.1228
| 18> N 2.4390 0.1540 0.5943
| 19> C 2.0208 -0.5154 1.8292
| 20> S -1.8272 1.4718 -1.4535
| 21> O -1.1402 2.2191 -2.5633
| 22> O -2.6877 0.3994 -2.0631
| 23> C -2.8329 2.5563 -0.5007
| 24> C -3.7324 2.0264 0.4310
| 25> C -4.5058 2.8762 1.2264
| 26> C -4.3841 4.2725 1.1048
| 27> C -5.1924 5.1771 1.9518
| 28> O -6.0201 4.7108 2.7788
| 29> O -5.0448 6.5561 1.8508
| 30> C -3.4789 4.7981 0.1672
| 31> C -2.7067 3.9454 -0.6276
| 32> N -1.4918 -0.7819 1.2076
| 33> C -1.6584 -2.0126 1.7478
| 34> C -1.1117 -3.1343 1.1206
| 35> C -1.2532 -4.4055 1.6965
| 36> C -0.6849 -5.5206 1.0819
| 37> C 0.0249 -5.3762 -0.1094
| 38> C 0.1656 -4.1170 -0.6990
| 39> C -0.4044 -2.9746 -0.0972
| 40> H 0.0318 -2.1246 -2.7526
| 41> H 0.3818 -0.4290 -2.3410
| 42> H 1.5329 -1.7048 -1.8298
| 43> H 0.2807 2.6567 -0.1518
| 44> H 0.1996 1.6659 1.3124
| 45> H 2.1278 2.1759 -2.0066
| 46> H 4.6024 1.2908 -3.0597
| 47> H 6.4690 -0.3185 -2.6735
| 48> H 6.4735 -1.7677 -0.6671
| 49> H 1.0560 -0.1313 2.2066
| 50> H 1.8979 -1.6026 1.6430
| 51> H 2.7773 -0.3449 2.6229
| 52> H -3.8320 0.9537 0.5457
| 53> H -5.1939 2.4401 1.9399
| 54> H -3.3614 5.8682 0.0511
| 55> H -2.0082 4.3714 -1.3348
| 56> H -2.2022 -2.1090 2.6790
| 57> H -1.7963 -4.5349 2.6253
| 58> H -0.7911 -6.4982 1.5333
| 59> H 0.4702 -6.2433 -0.5781
| 60> H 0.7307 -4.0510 -1.6181
| 61> *
| 62> 
| 63>                          ****END OF INPUT****
================================================================================

                       ****************************
                       * Single Point Calculation *
                       ****************************

---------------------------------
CARTESIAN COORDINATES (ANGSTROEM)
---------------------------------
  C      0.457900   -1.468400   -1.967100
  C     -0.278100   -1.679700   -0.663000
  C     -0.822400   -0.581800    0.042900
  N     -0.633800    0.761600   -0.414100
  C      0.374100    1.613500    0.220000
  C      1.755900    1.111300   -0.097800
  C      2.442200    1.471600   -1.248900
  C      3.584400    0.709600   -1.245300
  C      4.611600    0.656500   -2.182800
  C      5.655800   -0.250800   -1.962900
  C      5.655000   -1.075500   -0.820300
  C      4.608400   -1.006300    0.119100
  Cl     4.684000   -2.064000    1.522200
  C      3.565500   -0.085800   -0.122800
  N      2.439000    0.154000    0.594300
  C      2.020800   -0.515400    1.829200
  S     -1.827200    1.471800   -1.453500
  O     -1.140200    2.219100   -2.563300
  O     -2.687700    0.399400   -2.063100
  C     -2.832900    2.556300   -0.500700
  C     -3.732400    2.026400    0.431000
  C     -4.505800    2.876200    1.226400
  C     -4.384100    4.272500    1.104800
  C     -5.192400    5.177100    1.951800
  O     -6.020100    4.710800    2.778800
  O     -5.044800    6.556100    1.850800
  C     -3.478900    4.798100    0.167200
  C     -2.706700    3.945400   -0.627600
  N     -1.491800   -0.781900    1.207600
  C     -1.658400   -2.012600    1.747800
  C     -1.111700   -3.134300    1.120600
  C     -1.253200   -4.405500    1.696500
  C     -0.684900   -5.520600    1.081900
  C      0.024900   -5.376200   -0.109400
  C      0.165600   -4.117000   -0.699000
  C     -0.404400   -2.974600   -0.097200
  H      0.031800   -2.124600   -2.752600
  H      0.381800   -0.429000   -2.341000
  H      1.532900   -1.704800   -1.829800
  H      0.280700    2.656700   -0.151800
  H      0.199600    1.665900    1.312400
  H      2.127800    2.175900   -2.006600
  H      4.602400    1.290800   -3.059700
  H      6.469000   -0.318500   -2.673500
  H      6.473500   -1.767700   -0.667100
  H      1.056000   -0.131300    2.206600
  H      1.897900   -1.602600    1.643000
  H      2.777300   -0.344900    2.622900
  H     -3.832000    0.953700    0.545700
  H     -5.193900    2.440100    1.939900
  H     -3.361400    5.868200    0.051100
  H     -2.008200    4.371400   -1.334800
  H     -2.202200   -2.109000    2.679000
  H     -1.796300   -4.534900    2.625300
  H     -0.791100   -6.498200    1.533300
  H      0.470200   -6.243300   -0.578100
  H      0.730700   -4.051000   -1.618100

----------------------------
CARTESIAN COORDINATES (A.U.)
----------------------------
  NO LB      ZA    FRAG     MASS         X           Y           Z
   0 C     6.0000    0    12.011    0.865306   -2.774874   -3.717280
   1 C     6.0000    0    12.011   -0.525533   -3.174173   -1.252888
   2 C     6.0000    0    12.011   -1.554111   -1.099443    0.081069
   3 N     7.0000    0    14.007   -1.197708    1.439215   -0.782536
   4 C     6.0000    0    12.011    0.706947    3.049073    0.415740
   5 C     6.0000    0    12.011    3.318170    2.100053   -0.184815
   6 C     6.0000    0    12.011    4.615089    2.780921   -2.360079
   7 C     6.0000    0    12.011    6.773534    1.340950   -2.353276
   8 C     6.0000    0    12.011    8.714661    1.240605   -4.124894
   9 C     6.0000    0    12.011   10.687913   -0.473943   -3.709343
  10 C     6.0000    0    12.011   10.686401   -2.032400   -1.550142
  11 C     6.0000    0    12.011    8.708614   -1.901631    0.225066
  12 Cl   17.0000    0    35.453    8.851477   -3.900395    2.876541
  13 C     6.0000    0    12.011    6.737819   -0.162139   -0.232058
  14 N     7.0000    0    14.007    4.609042    0.291018    1.123064
  15 C     6.0000    0    12.011    3.818759   -0.973965    3.456687
  16 S    16.0000    0    32.060   -3.452908    2.781299   -2.746717
  17 O     8.0000    0    15.999   -2.154666    4.193491   -4.843935
  18 O     8.0000    0    15.999   -5.079017    0.754757   -3.898694
  19 C     6.0000    0    12.011   -5.353405    4.830707   -0.946186
  20 C     6.0000    0    12.011   -7.053214    3.829341    0.814472
  21 C     6.0000    0    12.011   -8.514728    5.435230    2.317560
  22 C     6.0000    0    12.011   -8.284748    8.073855    2.087769
  23 C     6.0000    0    12.011   -9.812214    9.783301    3.688367
  24 O     8.0000    0    15.999  -11.376340    8.902122    5.251171
  25 O     8.0000    0    15.999   -9.533290   12.389234    3.497505
  26 C     6.0000    0    12.011   -6.574168    9.067095    0.315962
  27 C     6.0000    0    12.011   -5.114922    7.455725   -1.185992
  28 N     7.0000    0    14.007   -2.819093   -1.477577    2.282033
  29 C     6.0000    0    12.011   -3.133922   -3.803263    3.302863
  30 C     6.0000    0    12.011   -2.100809   -5.922969    2.117627
  31 C     6.0000    0    12.011   -2.368205   -8.325188    3.205920
  32 C     6.0000    0    12.011   -1.294273  -10.432422    2.044495
  33 C     6.0000    0    12.011    0.047054  -10.159546   -0.206736
  34 C     6.0000    0    12.011    0.312939   -7.780002   -1.320919
  35 C     6.0000    0    12.011   -0.764205   -5.621179   -0.183681
  36 H     1.0000    0     1.008    0.060093   -4.014912   -5.201660
  37 H     1.0000    0     1.008    0.721497   -0.810693   -4.423849
  38 H     1.0000    0     1.008    2.896761   -3.221605   -3.457821
  39 H     1.0000    0     1.008    0.530446    5.020435   -0.286860
  40 H     1.0000    0     1.008    0.377189    3.148095    2.480077
  41 H     1.0000    0     1.008    4.020959    4.111855   -3.791924
  42 H     1.0000    0     1.008    8.697276    2.439258   -5.781995
  43 H     1.0000    0     1.008   12.224638   -0.601878   -5.052183
  44 H     1.0000    0     1.008   12.233142   -3.340469   -1.260636
  45 H     1.0000    0     1.008    1.995551   -0.248121    4.169870
  46 H     1.0000    0     1.008    3.586511   -3.028475    3.104820
  47 H     1.0000    0     1.008    5.248336   -0.651767    4.956563
  48 H     1.0000    0     1.008   -7.241431    1.802232    1.031224
  49 H     1.0000    0     1.008   -9.815049    4.611121    3.665880
  50 H     1.0000    0     1.008   -6.352125   11.089291    0.096565
  51 H     1.0000    0     1.008   -3.794948    8.260749   -2.522406
  52 H     1.0000    0     1.008   -4.161555   -3.985432    5.062576
  53 H     1.0000    0     1.008   -3.394515   -8.569719    4.961098
  54 H     1.0000    0     1.008   -1.494962  -12.279818    2.897517
  55 H     1.0000    0     1.008    0.888549  -11.798127   -1.092451
  56 H     1.0000    0     1.008    1.380823   -7.655281   -3.057766

--------------------------------
INTERNAL COORDINATES (ANGSTROEM)
--------------------------------
 C      0   0   0     0.000000000000     0.00000000     0.00000000
 C      1   0   0     1.512289820107     0.00000000     0.00000000
 C      2   1   0     1.414192953596   120.61591587     0.00000000
 N      3   2   1     1.431482630003   121.23234987   356.64242954
 C      4   3   2     1.464130742113   119.89934881   258.76098215
 C      5   4   3     1.504185134882   110.28087387    68.53007030
 C      6   5   4     1.387751775355   122.87923001    85.93057463
 C      7   6   5     1.373054186840   105.37483717   186.22661236
 C      8   7   6     1.391713224770   129.30112390   178.65708356
 C      9   8   7     1.400679456550   117.98209167   182.19233073
 C     10   9   8     1.409136434133   120.39627534   359.80226021
 C     11  10   9     1.408059856682   120.83891855     0.08254123
 Cl    12  11  10     1.758730866278   118.08277730   180.25213892
 C      8   7   6     1.375872312389   108.15216755     0.36563923
 N     14   8   7     1.356738257734   109.90367722   359.77569408
 C     15  14   8     1.465593944447   126.98057363   177.86947920
 S      4   3   2     1.734629631939   119.00491405    92.46285298
 O     17   4   3     1.504022051035   109.34903015   223.21397865
 O     17   4   3     1.504032635949   110.15457014   342.30846115
 C     17   4   3     1.759375053819   108.73184800   102.16694894
 C     20  17   4     1.399270935166   119.64463915   289.19454733
 C     21  20  17     1.397486586698   120.29503460   177.87316371
 C     22  21  20     1.406858606968   120.42826834   359.66409850
 C     23  22  21     1.479546906996   120.66881833   180.49242300
 O     24  23  22     1.259544354122   120.56633214   358.72264459
 O     24  23  22     1.390549445363   120.44799148   178.42260748
 C     23  22  21     1.405253059061   118.98692423     0.33153461
 C     27  23  22     1.398247892900   120.45813441   359.68950840
 N      3   2   1     1.358183514846   120.22275017   179.43620439
 C     29   3   2     1.354324218937   122.44963625     0.62299416
 C     30  29   3     1.396592861216   120.17023774     1.24682576
 C     31  30  29     1.402723244265   120.26464526   178.33549180
 C     32  31  30     1.394326382165   120.17691831   181.21998663
 C     33  32  31     1.394224906534   120.08612602   359.90123978
 C     34  33  32     1.397501087656   120.33579017   359.64770326
 C     35  34  33     1.411432251297   120.58031903     0.16089579
 H      1   2   3     1.108679349497   109.95126615   232.58992203
 H      1   2   3     1.107223906895   112.88709493   351.80347708
 H      1   2   3     1.109216502762   109.58151805   112.17208567
 H      5   4   3     1.111406784215   110.08452986   188.41386615
 H      5   4   3     1.107489850969   110.25827104   304.77485999
 H      7   6   5     1.081200786163   127.34450479     4.20581745
 H      9   8   7     1.082300669870   121.14144490     1.74870186
 H     10   9   8     1.082048931426   119.84754610   179.88540875
 H     11  10   9     1.082845016611   119.23593895   180.21866072
 H     16  15  14     1.104899366458   112.22154413   180.25600231
 H     16  15  14     1.109855256329   109.73412145   299.73844942
 H     16  15  14     1.109649579822   109.75324257    61.03045764
 H     21  20  17     1.083402759827   120.30127663   358.17637535
 H     22  21  20     1.082934471702   118.80074319   180.02661044
 H     27  23  22     1.082773969949   120.73650416   180.09560251
 H     28  27  23     1.081438897950   119.22222156   180.69148288
 H     30  29   3     1.082656381314   119.06301848   180.02906943
 H     32  31  30     1.083684183699   120.70688102     0.73418091
 H     33  32  31     1.082008391834   119.91239612   179.59461230
 H     34  33  32     1.081588734224   119.79129742   179.53359280
 H     35  34  33     1.080943486034   117.79936904   179.52449280

---------------------------
INTERNAL COORDINATES (A.U.)
---------------------------
 C      0   0   0     0.000000000000     0.00000000     0.00000000
 C      1   0   0     2.857813595120     0.00000000     0.00000000
 C      2   1   0     2.672437382817   120.61591587     0.00000000
 N      3   2   1     2.705110136171   121.23234987   356.64242954
 C      4   3   2     2.766806126848   119.89934881   258.76098215
 C      5   4   3     2.842497959642   110.28087387    68.53007030
 C      6   5   4     2.622470797283   122.87923001    85.93057463
 C      7   6   5     2.594696380162   105.37483717   186.22661236
 C      8   7   6     2.629956851772   129.30112390   178.65708356
 C      9   8   7     2.646900574288   117.98209167   182.19233073
 C     10   9   8     2.662881945841   120.39627534   359.80226021
 C     11  10   9     2.660847509298   120.83891855     0.08254123
 Cl    12  11  10     3.323519680540   118.08277730   180.25213892
 C      8   7   6     2.600021865661   108.15216755     0.36563923
 N     14   8   7     2.563863742531   109.90367722   359.77569408
 C     15  14   8     2.769571178538   126.98057363   177.86947920
 S      4   3   2     3.277974948149   119.00491405    92.46285298
 O     17   4   3     2.842189775835   109.34903015   223.21397865
 O     17   4   3     2.842209778423   110.15457014   342.30846115
 C     17   4   3     3.324737018571   108.73184800   102.16694894
 C     20  17   4     2.644238854619   119.64463915   289.19454733
 C     21  20  17     2.640866924687   120.29503460   177.87316371
 C     22  21  20     2.658577476320   120.42826834   359.66409850
 C     23  22  21     2.795938456512   120.66881833   180.49242300
 O     24  23  22     2.380193882817   120.56633214   358.72264459
 O     24  23  22     2.627757627413   120.44799148   178.42260748
 C     23  22  21     2.655543430480   118.98692423     0.33153461
 C     27  23  22     2.642305584914   120.45813441   359.68950840
 N      3   2   1     2.566594882666   120.22275017   179.43620439
 C     29   3   2     2.559301870328   122.44963625     0.62299416
 C     30  29   3     2.639178028288   120.17023774     1.24682576
 C     31  30  29     2.650762773345   120.26464526   178.33549180
 C     32  31  30     2.634895003592   120.17691831   181.21998663
 C     33  32  31     2.634703242441   120.08612602   359.90123978
 C     34  33  32     2.640894327527   120.33579017   359.64770326
 C     35  34  33     2.667220411534   120.58031903     0.16089579
 H      1   2   3     2.095100340882   109.95126615   232.58992203
 H      1   2   3     2.092349952962   112.88709493   351.80347708
 H      1   2   3     2.096115413446   109.58151805   112.17208567
 H      5   4   3     2.100254445549   110.08452986   188.41386615
 H      5   4   3     2.092852514429   110.25827104   304.77485999
 H      7   6   5     2.043173381629   127.34450479     4.20581745
 H      9   8   7     2.045251860613   121.14144490     1.74870186
 H     10   9   8     2.044776143897   119.84754610   179.88540875
 H     11  10   9     2.046280526877   119.23593895   180.21866072
 H     16  15  14     2.087957208149   112.22154413   180.25600231
 H     16  15  14     2.097322482754   109.73412145   299.73844942
 H     16  15  14     2.096933810485   109.75324257    61.03045764
 H     21  20  17     2.047334508807   120.30127663   358.17637535
 H     22  21  20     2.046449572499   118.80074319   180.02661044
 H     27  23  22     2.046146268143   120.73650416   180.09560251
 H     28  27  23     2.043623347696   119.22222156   180.69148288
 H     30  29   3     2.045924057826   119.06301848   180.02906943
 H     32  31  30     2.047866322854   120.70688102     0.73418091
 H     33  32  31     2.044699535172   119.91239612   179.59461230
 H     34  33  32     2.043906497218   119.79129742   179.53359280
 H     35  34  33     2.042687154851   117.79936904   179.52449280

---------------------
BASIS SET INFORMATION
---------------------
There are 6 groups of distinct atoms

 Group   1 Type C   : 10s4p1d contracted to 3s2p1d pattern {631/31/1}
 Group   2 Type N   : 10s4p1d contracted to 3s2p1d pattern {631/31/1}
 Group   3 Type Cl  : 16s10p1d contracted to 4s3p1d pattern {6631/631/1}
 Group   4 Type S   : 16s10p1d contracted to 4s3p1d pattern {6631/631/1}
 Group   5 Type O   : 10s4p1d contracted to 3s2p1d pattern {631/31/1}
 Group   6 Type H   : 4s contracted to 2s pattern {31}

Atom   0C    basis set group =>   1
Atom   1C    basis set group =>   1
Atom   2C    basis set group =>   1
Atom   3N    basis set group =>   2
Atom   4C    basis set group =>   1
Atom   5C    basis set group =>   1
Atom   6C    basis set group =>   1
Atom   7C    basis set group =>   1
Atom   8C    basis set group =>   1
Atom   9C    basis set group =>   1
Atom  10C    basis set group =>   1
Atom  11C    basis set group =>   1
Atom  12Cl   basis set group =>   3
Atom  13C    basis set group =>   1
Atom  14N    basis set group =>   2
Atom  15C    basis set group =>   1
Atom  16S    basis set group =>   4
Atom  17O    basis set group =>   5
Atom  18O    basis set group =>   5
Atom  19C    basis set group =>   1
Atom  20C    basis set group =>   1
Atom  21C    basis set group =>   1
Atom  22C    basis set group =>   1
Atom  23C    basis set group =>   1
Atom  24O    basis set group =>   5
Atom  25O    basis set group =>   5
Atom  26C    basis set group =>   1
Atom  27C    basis set group =>   1
Atom  28N    basis set group =>   2
Atom  29C    basis set group =>   1
Atom  30C    basis set group =>   1
Atom  31C    basis set group =>   1
Atom  32C    basis set group =>   1
Atom  33C    basis set group =>   1
Atom  34C    basis set group =>   1
Atom  35C    basis set group =>   1
Atom  36H    basis set group =>   6
Atom  37H    basis set group =>   6
Atom  38H    basis set group =>   6
Atom  39H    basis set group =>   6
Atom  40H    basis set group =>   6
Atom  41H    basis set group =>   6
Atom  42H    basis set group =>   6
Atom  43H    basis set group =>   6
Atom  44H    basis set group =>   6
Atom  45H    basis set group =>   6
Atom  46H    basis set group =>   6
Atom  47H    basis set group =>   6
Atom  48H    basis set group =>   6
Atom  49H    basis set group =>   6
Atom  50H    basis set group =>   6
Atom  51H    basis set group =>   6
Atom  52H    basis set group =>   6
Atom  53H    basis set group =>   6
Atom  54H    basis set group =>   6
Atom  55H    basis set group =>   6
Atom  56H    basis set group =>   6
---------------------------------
AUXILIARY/J BASIS SET INFORMATION
---------------------------------
There are 6 groups of distinct atoms

 Group   1 Type C   : 12s5p4d2f1g contracted to 6s4p3d1f1g pattern {711111/2111/211/2/1}
 Group   2 Type N   : 12s5p4d2f1g contracted to 6s4p3d1f1g pattern {711111/2111/211/2/1}
 Group   3 Type Cl  : 14s5p5d2f1g contracted to 8s4p3d1f1g pattern {71111111/2111/311/2/1}
 Group   4 Type S   : 14s5p5d2f1g contracted to 8s4p3d1f1g pattern {71111111/2111/311/2/1}
 Group   5 Type O   : 12s5p4d2f1g contracted to 6s4p3d1f1g pattern {711111/2111/211/2/1}
 Group   6 Type H   : 5s2p1d contracted to 3s1p1d pattern {311/2/1}

Atom   0C    basis set group =>   1
Atom   1C    basis set group =>   1
Atom   2C    basis set group =>   1
Atom   3N    basis set group =>   2
Atom   4C    basis set group =>   1
Atom   5C    basis set group =>   1
Atom   6C    basis set group =>   1
Atom   7C    basis set group =>   1
Atom   8C    basis set group =>   1
Atom   9C    basis set group =>   1
Atom  10C    basis set group =>   1
Atom  11C    basis set group =>   1
Atom  12Cl   basis set group =>   3
Atom  13C    basis set group =>   1
Atom  14N    basis set group =>   2
Atom  15C    basis set group =>   1
Atom  16S    basis set group =>   4
Atom  17O    basis set group =>   5
Atom  18O    basis set group =>   5
Atom  19C    basis set group =>   1
Atom  20C    basis set group =>   1
Atom  21C    basis set group =>   1
Atom  22C    basis set group =>   1
Atom  23C    basis set group =>   1
Atom  24O    basis set group =>   5
Atom  25O    basis set group =>   5
Atom  26C    basis set group =>   1
Atom  27C    basis set group =>   1
Atom  28N    basis set group =>   2
Atom  29C    basis set group =>   1
Atom  30C    basis set group =>   1
Atom  31C    basis set group =>   1
Atom  32C    basis set group =>   1
Atom  33C    basis set group =>   1
Atom  34C    basis set group =>   1
Atom  35C    basis set group =>   1
Atom  36H    basis set group =>   6
Atom  37H    basis set group =>   6
Atom  38H    basis set group =>   6
Atom  39H    basis set group =>   6
Atom  40H    basis set group =>   6
Atom  41H    basis set group =>   6
Atom  42H    basis set group =>   6
Atom  43H    basis set group =>   6
Atom  44H    basis set group =>   6
Atom  45H    basis set group =>   6
Atom  46H    basis set group =>   6
Atom  47H    basis set group =>   6
Atom  48H    basis set group =>   6
Atom  49H    basis set group =>   6
Atom  50H    basis set group =>   6
Atom  51H    basis set group =>   6
Atom  52H    basis set group =>   6
Atom  53H    basis set group =>   6
Atom  54H    basis set group =>   6
Atom  55H    basis set group =>   6
Atom  56H    basis set group =>   6
------------------------------------------------------------------------------
                             ORCA STARTUP CALCULATIONS
                           -- RI-GTO INTEGRALS CHOSEN --
------------------------------------------------------------------------------
------------------------------------------------------------------------------
                   ___                                                        
                  /   \      - P O W E R E D   B Y -                         
                 /     \                                                     
                 |  |  |   _    _      __       _____    __    __             
                 |  |  |  | |  | |    /  \     |  _  \  |  |  /  |          
                  \  \/   | |  | |   /    \    | | | |  |  | /  /          
                 / \  \   | |__| |  /  /\  \   | |_| |  |  |/  /          
                |  |  |   |  __  | /  /__\  \  |    /   |      \           
                |  |  |   | |  | | |   __   |  |    \   |  |\   \          
                \     /   | |  | | |  |  |  |  | |\  \  |  | \   \       
                 \___/    |_|  |_| |__|  |__|  |_| \__\ |__|  \__/        
                                                                              
                      - O R C A' S   B I G   F R I E N D -                    
                                      &                                       
                       - I N T E G R A L  F E E D E R -                       
                                                                              
 v1 FN, 2020, v2 2021, v3 2022-2024                                           
------------------------------------------------------------------------------


----------------------
SHARK INTEGRAL PACKAGE
----------------------

Number of atoms                             ...     57
Number of basis functions                   ...    554
Number of shells                            ...    262
Maximum angular momentum                    ...      2
Integral batch strategy                     ... SHARK/LIBINT Hybrid
RI-J (if used) integral strategy            ... SPLIT-RIJ (Revised 2003 algorithm where possible)
Printlevel                                  ...      1
Contraction scheme used                     ... SEGMENTED contraction
Prescreening option                         ... SCHWARTZ
   Thresh                                   ... 1.000e-10
   Tcut                                     ... 1.000e-11
   Tpresel                                  ... 1.000e-11 
Coulomb Range Separation                    ... NOT USED
Exchange Range Separation                   ... NOT USED
Multipole approximations                    ... NOT USED
Finite Nucleus Model                        ... NOT USED
CABS basis                                  ... NOT available
Auxiliary Coulomb fitting basis             ... AVAILABLE
   # of basis functions in Aux-J            ...   1999
   # of shells in Aux-J                     ...    649
   Maximum angular momentum in Aux-J        ...      4
Auxiliary J/K fitting basis                 ... NOT available
Auxiliary Correlation fitting basis         ... NOT available
Auxiliary 'external' fitting basis          ... NOT available

Checking pre-screening integrals            ... done (  0.0 sec) Dimension = 262
Check shell pair data                       ... done (  0.0 sec)
Shell pair information
Shell pair cut-off parameter TPreSel        ...   1.0e-11
Total number of shell pairs                 ...     34453
Shell pairs after pre-screening             ...     19646
Total number of primitive shell pairs       ...    211155
Primitive shell pairs kept                  ...     60347
          la=0 lb=0:   6257 shell pairs
          la=1 lb=0:   7024 shell pairs
          la=1 lb=1:   1958 shell pairs
          la=2 lb=0:   2592 shell pairs
          la=2 lb=1:   1539 shell pairs
          la=2 lb=2:    276 shell pairs

Calculating one electron integrals          ... done (  0.3 sec)
Calculating RI/J V-Matrix + Cholesky decomp.... done (  0.5 sec)
Calculating Nuclear repulsion               ... done (  0.0 sec) ENN=   4193.277713348685 Eh

Diagonalization of the overlap matrix:
Smallest eigenvalue                        ... 3.481e-04
Time for diagonalization                   ...    0.054 sec
Threshold for overlap eigenvalues          ... 1.000e-07
Number of eigenvalues below threshold      ... 0
Time for construction of square roots      ...    0.040 sec
Total time needed                          ...    0.104 sec

-------------------
DFT GRID GENERATION
-------------------

General Integration Accuracy     IntAcc      ... 4.388
Radial Grid Type                 RadialGrid  ... OptM3 with GC (2021)
Angular Grid (max. ang.)         AngularGrid ... 4 (Lebedev-302)
Angular grid pruning method      GridPruning ... 4 (adaptive)
Weight generation scheme         WeightScheme... mBecke (2022)
Basis function cutoff            BFCut       ... 1.0000e-10
Integration weight cutoff        WCut        ... 1.0000e-14
Partially contracted basis set               ... off
Rotationally invariant grid construction     ... off
Angular grids for H and He will be reduced by one unit

Total number of grid points                  ...   283408
Total number of batches                      ...     4458
Average number of points per batch           ...       63
Average number of grid points per atom       ...     4972

--------------------
COSX GRID GENERATION
--------------------

GRIDX 1
-------
General Integration Accuracy     IntAcc      ... 3.816
Radial Grid Type                 RadialGrid  ... OptM3 with GC (2021)
Angular Grid (max. ang.)         AngularGrid ... 1 (Lebedev-50)
Angular grid pruning method      GridPruning ... 4 (adaptive)
Weight generation scheme         WeightScheme... mBecke (2022)
Basis function cutoff            BFCut       ... 1.0000e-10
Integration weight cutoff        WCut        ... 1.0000e-14
Partially contracted basis set               ... on
Rotationally invariant grid construction     ... off
Angular grids for H and He will be reduced by one unit

Total number of grid points                  ...    37866
Total number of batches                      ...      325
Average number of points per batch           ...      116
Average number of grid points per atom       ...      664
UseSFitting                                  ... on

GRIDX 2
-------
General Integration Accuracy     IntAcc      ... 4.020
Radial Grid Type                 RadialGrid  ... OptM3 with GC (2021)
Angular Grid (max. ang.)         AngularGrid ... 2 (Lebedev-110)
Angular grid pruning method      GridPruning ... 4 (adaptive)
Weight generation scheme         WeightScheme... mBecke (2022)
Basis function cutoff            BFCut       ... 1.0000e-10
Integration weight cutoff        WCut        ... 1.0000e-14
Partially contracted basis set               ... on
Rotationally invariant grid construction     ... off
Angular grids for H and He will be reduced by one unit

Total number of grid points                  ...    78203
Total number of batches                      ...      641
Average number of points per batch           ...      122
Average number of grid points per atom       ...     1372
UseSFitting                                  ... on

GRIDX 3
-------
General Integration Accuracy     IntAcc      ... 4.338
Radial Grid Type                 RadialGrid  ... OptM3 with GC (2021)
Angular Grid (max. ang.)         AngularGrid ... 3 (Lebedev-194)
Angular grid pruning method      GridPruning ... 4 (adaptive)
Weight generation scheme         WeightScheme... mBecke (2022)
Basis function cutoff            BFCut       ... 1.0000e-10
Integration weight cutoff        WCut        ... 1.0000e-14
Partially contracted basis set               ... on
Rotationally invariant grid construction     ... off
Angular grids for H and He will be reduced by one unit

Total number of grid points                  ...   171804
Total number of batches                      ...     1371
Average number of points per batch           ...      125
Average number of grid points per atom       ...     3014
UseSFitting                                  ... on
Initializing property integral containers    ... done (  0.0 sec)

SHARK setup successfully completed in  17.3 seconds

Maximum memory used throughout the entire STARTUP-calculation: 127.0 MB
-------------------------------------------------------------------------------
                                 ORCA GUESS
                   Start orbitals & Density for SCF / CASSCF
-------------------------------------------------------------------------------

------------
SCF SETTINGS
------------
Hamiltonian:
 Density Functional     Method          .... DFT(GTOs)
 Exchange Functional    Exchange        .... B88
   X-Alpha parameter    XAlpha          ....  0.666667
   Becke's b parameter  XBeta           ....  0.004200
 Correlation Functional Correlation     .... LYP
 LDA part of GGA corr.  LDAOpt          .... VWN-5
 Gradients option       PostSCFGGA      .... off
 Hybrid DFT is turned on
   Fraction HF Exchange ScalHFX         ....  0.200000
   Scaling of DF-GGA-X  ScalDFX         ....  0.720000
   Scaling of DF-GGA-C  ScalDFC         ....  0.810000
   Scaling of DF-LDA-C  ScalLDAC        ....  1.000000
   Perturbative correction              ....  0.000000
   NL short-range parameter             ....  4.800000
 RI-approximation to the Coulomb term is turned on
   Number of AuxJ basis functions       .... 1999
   RIJ-COSX (HFX calculated with COS-X)).... on


General Settings:
 Integral files         IntName         .... /home/nmrbox/aojoawo/Documents/ERDOS/inputs/CHEMBL3687338
 Hartree-Fock type      HFTyp           .... RHF
 Total Charge           Charge          ....   -1
 Multiplicity           Mult            ....    1
 Number of Electrons    NEL             ....  270
 Basis Dimension        Dim             ....  554
 Nuclear Repulsion      ENuc            ....   4193.2777133487 Eh

Convergence Acceleration:
 AO-DIIS                CNVDIIS         .... on
   Start iteration      DIISMaxIt       ....    12
   Startup error        DIISStart       ....  0.200000
   # of expansion vecs  DIISMaxEq       ....     5
   Bias factor          DIISBfac        ....   1.050
   Max. coefficient     DIISMaxC        ....  10.000
 MO-DIIS                CNVKDIIS        .... off
 Trust-Rad. Augm. Hess. CNVTRAH         .... auto
   Auto Start mean grad. ratio tolernc. ....  1.125000
   Auto Start start iteration           ....    50
   Auto Start num. interpolation iter.  ....    10
   Max. Number of Micro iterations      ....    24
   Max. Number of Macro iterations      .... Maxiter - #DIIS iter
   Number of Davidson start vectors     ....     2
   Converg. threshold    (grad. norm)   ....   5.000e-05
   Grad. Scal. Fac. for Micro threshold ....   0.100
   Minimum threshold for Micro iter.    ....   1.000e-02
   NR start threshold (gradient norm)   ....   1.000e-04
   Initial trust radius                 ....   0.400
   Minimum AH scaling param. (alpha)    ....   1.000
   Maximum AH scaling param. (alpha)    .... 1000.000
   Quad. conv. algorithm                .... NR
   White noise on init. David. guess    .... on
   Maximum white noise                  ....   0.010
   Pseudo random numbers                .... off
   Inactive MOs                         .... canonical
   Orbital update algorithm             .... Taylor
   Preconditioner                       .... Diag
   Full preconditioner red. dimension   ....   250
 SOSCF                  CNVSOSCF        .... on
   Start iteration      SOSCFMaxIt      ....   150
   Startup grad/error   SOSCFStart      ....  0.003300
   Hessian update       SOSCFHessUp     .... L-BFGS
 Level Shifting         CNVShift        .... on
   Level shift para.    LevelShift      ....    0.2500
   Turn off err/grad.   ShiftErr        ....    0.0010
 Zerner damping         CNVZerner       .... off
 Static damping         CNVDamp         .... on
   Fraction old density DampFac         ....    0.7000
   Max. Damping (<1)    DampMax         ....    0.9800
   Min. Damping (>=0)   DampMin         ....    0.0000
   Turn off err/grad.   DampErr         ....    0.1000

SCF Procedure:
 Maximum # iterations   MaxIter         ....   125
 SCF integral mode      SCFMode         .... Direct
   Integral package                     .... SHARK and LIBINT hybrid scheme
 Reset frequency        DirectResetFreq ....    20
 Integral Threshold     Thresh          ....  1.000e-10 Eh
 Primitive CutOff       TCut            ....  1.000e-11 Eh

Convergence Tolerance:
 Convergence Check Mode ConvCheckMode   .... Total+1el-Energy
 Convergence forced     ConvForced      .... 0
 Energy Change          TolE            ....  1.000e-06 Eh
 1-El. energy change                    ....  1.000e-03 Eh
 Orbital Gradient       TolG            ....  5.000e-05
 Orbital Rotation angle TolX            ....  5.000e-05
 DIIS Error             TolErr          ....  1.000e-06

------------------------------
INITIAL GUESS: MODEL POTENTIAL
------------------------------
Loading Hartree-Fock densities                     ... done
Calculating cut-offs                               ... done
Initializing the effective Hamiltonian             ... done
Setting up the integral package (SHARK)            ... done
Starting the Coulomb interaction                   ... done (   5.3 sec)
Making the grid                                    ... done (   2.1 sec)
Mapping shells                                     ... done
Starting the XC term evaluation                    ... done (   1.6 sec)
  promolecular density results
     # of electrons  =    268.982456208
     EX              =   -250.188774362
     EC              =     -9.494178986
     EX+EC           =   -259.682953347
Transforming the Hamiltonian                       ... done (   0.0 sec)
Diagonalizing the Hamiltonian                      ... done (   0.1 sec)
Back transforming the eigenvectors                 ... done (   0.0 sec)
Now organizing SCF variables                       ... done
                      ------------------
                      INITIAL GUESS DONE (   9.1 sec)
                      ------------------
             **** ENERGY FILE WAS UPDATED (/home/nmrbox/aojoawo/Documents/ERDOS/inputs/CHEMBL3687338.en.tmp) ****
Finished Guess after   9.4 sec
Maximum memory used throughout the entire GUESS-calculation: 71.0 MB

-------------------------------------------------------------------------------------------
                                      ORCA LEAN-SCF
                              memory conserving SCF solver
-------------------------------------------------------------------------------------------

----------------------------------------D-I-I-S--------------------------------------------
Iteration    Energy (Eh)           Delta-E    RMSDP     MaxDP     DIISErr   Damp  Time(sec)
-------------------------------------------------------------------------------------------
               ***  Starting incremental Fock matrix formation  ***
    1    -2362.8915623191669511     0.00e+00  2.65e-03  1.87e-01  3.23e-01  0.700  93.2
Warning: op=0 Small HOMO/LUMO gap (  -0.062) - skipping pre-diagonalization
         Will do a full diagonalization
    2    -2363.4036551324497850    -5.12e-01  1.64e-03  9.69e-02  1.18e-01  0.700  42.5
                               ***Turning on AO-DIIS***
    3    -2363.5916686459167977    -1.88e-01  6.75e-04  1.92e-02  3.28e-02  0.700  41.4
    4    -2363.7071729115859853    -1.16e-01  1.20e-03  3.57e-02  1.66e-02  0.000  37.8
    5    -2363.9651326317207349    -2.58e-01  2.76e-04  1.17e-02  7.56e-03  0.000  40.5
                              *** Initializing SOSCF ***
---------------------------------------S-O-S-C-F--------------------------------------
Iteration    Energy (Eh)           Delta-E    RMSDP     MaxDP     MaxGrad    Time(sec)
--------------------------------------------------------------------------------------
    6    -2363.9670621388213476    -1.93e-03  9.71e-05  3.84e-03  2.54e-03    34.4
               *** Restarting incremental Fock matrix formation ***
    7    -2363.9673384867319328    -2.76e-04  8.40e-05  3.72e-03  9.22e-04    93.8
    8    -2363.9673404244913399    -1.94e-06  4.83e-05  2.20e-03  1.07e-03    54.4
    9    -2363.9674194647950571    -7.90e-05  2.48e-05  1.40e-03  2.68e-04    49.0
   10    -2363.9674177993510966     1.67e-06  1.36e-05  8.28e-04  3.47e-04    43.8
   11    -2363.9674264006298472    -8.60e-06  9.93e-06  4.38e-04  1.16e-04    37.8
   12    -2363.9674270652139967    -6.65e-07  9.24e-06  4.32e-04  1.09e-04    35.4
                 **** Energy Check signals convergence ****

               *****************************************************
               *                     SUCCESS                       *
               *           SCF CONVERGED AFTER  12 CYCLES          *
               *****************************************************

Recomputing exchange energy using gridx3       ... done (  163.644 sec)
Old exchange energy                            :    -50.636748155 Eh
New exchange energy                            :    -50.636797874 Eh
Exchange energy change after final integration :     -0.000049719 Eh
Total energy after final integration           :  -2363.967476784 Eh
             **** ENERGY FILE WAS UPDATED (/home/nmrbox/aojoawo/Documents/ERDOS/inputs/CHEMBL3687338.en.tmp) ****

----------------
TOTAL SCF ENERGY
----------------

Total Energy       :      -2363.96747678413567 Eh          -64326.82536 eV

Components:
Nuclear Repulsion  :       4193.27771334868521 Eh          114104.88756 eV
Electronic Energy  :      -6557.24514041389921 Eh         -178431.71156 eV
One Electron Energy:     -11605.21837331097049 Eh         -315794.04660 eV
Two Electron Energy:       5047.97323289707128 Eh          137362.33503 eV

Virial components:
Potential Energy   :      -4717.07569071401849 Eh         -128358.15515 eV
Kinetic Energy     :       2353.10821392988237 Eh           64031.32979 eV
Virial Ratio       :          2.00461485909996

DFT components:
N(Alpha)           :      134.999951023136 electrons
N(Beta)            :      134.999951023136 electrons
N(Total)           :      269.999902046273 electrons
E(X)               :     -201.187644127157 Eh       
E(C)               :      -11.187073503986 Eh       
E(XC)              :     -212.374717631143 Eh       

---------------
SCF CONVERGENCE
---------------

  Last Energy change         ...    6.6458e-07  Tolerance :   1.0000e-06
  Last MAX-Density change    ...    4.3209e-04  Tolerance :   1.0000e-05
  Last RMS-Density change    ...    9.2432e-06  Tolerance :   1.0000e-06
  Last DIIS Error            ...    2.5438e-03  Tolerance :   1.0000e-06
  Last Orbital Gradient      ...    1.0886e-04  Tolerance :   5.0000e-05
  Last Orbital Rotation      ...    1.2694e-03  Tolerance :   5.0000e-05


----------------
ORBITAL ENERGIES
----------------

  NO   OCC          E(Eh)            E(eV) 
   0   2.0000    -101.475660     -2761.2931 
   1   2.0000     -89.002178     -2421.8724 
   2   2.0000     -19.035123      -517.9720 
   3   2.0000     -19.033818      -517.9365 
   4   2.0000     -18.903626      -514.3938 
   5   2.0000     -18.882868      -513.8290 
   6   2.0000     -14.326650      -389.8480 
   7   2.0000     -14.285995      -388.7417 
   8   2.0000     -14.268605      -388.2685 
   9   2.0000     -10.191235      -277.3176 
  10   2.0000     -10.186439      -277.1871 
  11   2.0000     -10.166209      -276.6366 
  12   2.0000     -10.164804      -276.5984 
  13   2.0000     -10.163247      -276.5560 
  14   2.0000     -10.158932      -276.4386 
  15   2.0000     -10.154192      -276.3096 
  16   2.0000     -10.146623      -276.1037 
  17   2.0000     -10.145183      -276.0645 
  18   2.0000     -10.142337      -275.9870 
  19   2.0000     -10.142104      -275.9807 
  20   2.0000     -10.141645      -275.9682 
  21   2.0000     -10.140962      -275.9496 
  22   2.0000     -10.139203      -275.9017 
  23   2.0000     -10.129414      -275.6354 
  24   2.0000     -10.123992      -275.4878 
  25   2.0000     -10.121105      -275.4093 
  26   2.0000     -10.113653      -275.2065 
  27   2.0000     -10.112561      -275.1768 
  28   2.0000     -10.109461      -275.0924 
  29   2.0000     -10.096504      -274.7398 
  30   2.0000     -10.089433      -274.5474 
  31   2.0000     -10.089419      -274.5470 
  32   2.0000     -10.088998      -274.5356 
  33   2.0000     -10.071078      -274.0480 
  34   2.0000     -10.070197      -274.0240 
  35   2.0000     -10.068786      -273.9856 
  36   2.0000      -9.407264      -255.9847 
  37   2.0000      -8.037961      -218.7240 
  38   2.0000      -7.170258      -195.1126 
  39   2.0000      -7.160949      -194.8593 
  40   2.0000      -7.160615      -194.8503 
  41   2.0000      -6.003354      -163.3596 
  42   2.0000      -6.001250      -163.3023 
  43   2.0000      -5.999897      -163.2655 
  44   2.0000      -0.991399       -26.9773 
  45   2.0000      -0.947185       -25.7742 
  46   2.0000      -0.892538       -24.2872 
  47   2.0000      -0.870844       -23.6969 
  48   2.0000      -0.843012       -22.9395 
  49   2.0000      -0.821538       -22.3552 
  50   2.0000      -0.813161       -22.1272 
  51   2.0000      -0.805902       -21.9297 
  52   2.0000      -0.783861       -21.3299 
  53   2.0000      -0.753611       -20.5068 
  54   2.0000      -0.745642       -20.2900 
  55   2.0000      -0.735229       -20.0066 
  56   2.0000      -0.718543       -19.5525 
  57   2.0000      -0.699268       -19.0281 
  58   2.0000      -0.693930       -18.8828 
  59   2.0000      -0.682735       -18.5782 
  60   2.0000      -0.674289       -18.3483 
  61   2.0000      -0.661134       -17.9904 
  62   2.0000      -0.640562       -17.4306 
  63   2.0000      -0.639157       -17.3924 
  64   2.0000      -0.630474       -17.1561 
  65   2.0000      -0.618567       -16.8321 
  66   2.0000      -0.588386       -16.0108 
  67   2.0000      -0.585375       -15.9289 
  68   2.0000      -0.555081       -15.1045 
  69   2.0000      -0.543066       -14.7776 
  70   2.0000      -0.534672       -14.5492 
  71   2.0000      -0.527117       -14.3436 
  72   2.0000      -0.512031       -13.9331 
  73   2.0000      -0.501317       -13.6415 
  74   2.0000      -0.497685       -13.5427 
  75   2.0000      -0.473463       -12.8836 
  76   2.0000      -0.460288       -12.5251 
  77   2.0000      -0.454849       -12.3771 
  78   2.0000      -0.445217       -12.1150 
  79   2.0000      -0.439883       -11.9698 
  80   2.0000      -0.431810       -11.7501 
  81   2.0000      -0.419785       -11.4229 
  82   2.0000      -0.418096       -11.3770 
  83   2.0000      -0.410659       -11.1746 
  84   2.0000      -0.402498       -10.9525 
  85   2.0000      -0.393925       -10.7192 
  86   2.0000      -0.390172       -10.6171 
  87   2.0000      -0.385683       -10.4950 
  88   2.0000      -0.381385       -10.3780 
  89   2.0000      -0.380913       -10.3652 
  90   2.0000      -0.370206       -10.0738 
  91   2.0000      -0.365299        -9.9403 
  92   2.0000      -0.362461        -9.8631 
  93   2.0000      -0.354707        -9.6521 
  94   2.0000      -0.347450        -9.4546 
  95   2.0000      -0.343302        -9.3417 
  96   2.0000      -0.340788        -9.2733 
  97   2.0000      -0.334545        -9.1034 
  98   2.0000      -0.332988        -9.0611 
  99   2.0000      -0.331446        -9.0191 
 100   2.0000      -0.330428        -8.9914 
 101   2.0000      -0.327108        -8.9011 
 102   2.0000      -0.318729        -8.6731 
 103   2.0000      -0.313331        -8.5262 
 104   2.0000      -0.306612        -8.3433 
 105   2.0000      -0.304332        -8.2813 
 106   2.0000      -0.302080        -8.2200 
 107   2.0000      -0.293356        -7.9826 
 108   2.0000      -0.292261        -7.9528 
 109   2.0000      -0.291862        -7.9420 
 110   2.0000      -0.288432        -7.8486 
 111   2.0000      -0.270310        -7.3555 
 112   2.0000      -0.260746        -7.0953 
 113   2.0000      -0.253856        -6.9078 
 114   2.0000      -0.241003        -6.5580 
 115   2.0000      -0.239836        -6.5263 
 116   2.0000      -0.230946        -6.2843 
 117   2.0000      -0.227088        -6.1794 
 118   2.0000      -0.214773        -5.8443 
 119   2.0000      -0.212001        -5.7688 
 120   2.0000      -0.211684        -5.7602 
 121   2.0000      -0.203298        -5.5320 
 122   2.0000      -0.194996        -5.3061 
 123   2.0000      -0.189707        -5.1622 
 124   2.0000      -0.185930        -5.0594 
 125   2.0000      -0.182495        -4.9659 
 126   2.0000      -0.175932        -4.7874 
 127   2.0000      -0.166887        -4.5412 
 128   2.0000      -0.162463        -4.4209 
 129   2.0000      -0.145601        -3.9620 
 130   2.0000      -0.137570        -3.7435 
 131   2.0000      -0.126301        -3.4368 
 132   2.0000      -0.057889        -1.5752 
 133   2.0000      -0.036231        -0.9859 
 134   2.0000      -0.019567        -0.5324 
 135   0.0000      -0.002118        -0.0576 
 136   0.0000       0.027960         0.7608 
 137   0.0000       0.039256         1.0682 
 138   0.0000       0.068935         1.8758 
 139   0.0000       0.079035         2.1507 
 140   0.0000       0.079696         2.1687 
 141   0.0000       0.087291         2.3753 
 142   0.0000       0.104732         2.8499 
 143   0.0000       0.112253         3.0546 
 144   0.0000       0.124266         3.3815 
 145   0.0000       0.144839         3.9413 
*Only the first 10 virtual orbitals were printed.

                    ********************************
                    * MULLIKEN POPULATION ANALYSIS *
                    ********************************

-----------------------
MULLIKEN ATOMIC CHARGES
-----------------------
   0 C :   -0.546675
   1 C :    0.126291
   2 C :    0.300103
   3 N :   -0.606261
   4 C :   -0.228913
   5 C :    0.278190
   6 C :   -0.257355
   7 C :    0.142025
   8 C :   -0.200589
   9 C :   -0.137637
  10 C :   -0.154039
  11 C :   -0.133923
  12 Cl:   -0.034622
  13 C :    0.282747
  14 N :   -0.470278
  15 C :   -0.350066
  16 S :    1.206311
  17 O :   -0.574594
  18 O :   -0.563209
  19 C :   -0.146012
  20 C :   -0.142581
  21 C :   -0.159918
  22 C :    0.104885
  23 C :    0.409941
  24 O :   -0.552539
  25 O :   -0.659520
  26 C :   -0.150881
  27 C :   -0.163931
  28 N :   -0.379432
  29 C :   -0.065919
  30 C :    0.142524
  31 C :   -0.204007
  32 C :   -0.127714
  33 C :   -0.122089
  34 C :   -0.194008
  35 C :    0.108915
  36 H :    0.157301
  37 H :    0.213631
  38 H :    0.158859
  39 H :    0.197962
  40 H :    0.167417
  41 H :    0.152876
  42 H :    0.125093
  43 H :    0.114128
  44 H :    0.127594
  45 H :    0.190868
  46 H :    0.185929
  47 H :    0.176874
  48 H :    0.146383
  49 H :    0.144670
  50 H :    0.150407
  51 H :    0.142851
  52 H :    0.149222
  53 H :    0.132435
  54 H :    0.123710
  55 H :    0.126573
  56 H :    0.139998
Sum of atomic charges:   -1.0000000

--------------------------------
MULLIKEN REDUCED ORBITAL CHARGES
--------------------------------
  0 C s       :     3.317384  s :     3.317384
      pz      :     1.016577  p :     3.195338
      px      :     1.041401
      py      :     1.137360
      dz2     :     0.007183  d :     0.033952
      dxz     :     0.006316
      dyz     :     0.008105
      dx2y2   :     0.009328
      dxy     :     0.003020

  1 C s       :     3.184367  s :     3.184367
      pz      :     0.862838  p :     2.649301
      px      :     0.906720
      py      :     0.879744
      dz2     :     0.008198  d :     0.040041
      dxz     :     0.005441
      dyz     :     0.012170
      dx2y2   :     0.006984
      dxy     :     0.007249

  2 C s       :     3.053228  s :     3.053228
      pz      :     0.835493  p :     2.572288
      px      :     0.957882
      py      :     0.778913
      dz2     :     0.016110  d :     0.074381
      dxz     :     0.010089
      dyz     :     0.022064
      dx2y2   :     0.013629
      dxy     :     0.012489

  3 N s       :     3.597519  s :     3.597519
      pz      :     1.505078  p :     3.975699
      px      :     1.315677
      py      :     1.154944
      dz2     :     0.004418  d :     0.033043
      dxz     :     0.005606
      dyz     :     0.006836
      dx2y2   :     0.007412
      dxy     :     0.008771

  4 C s       :     3.248873  s :     3.248873
      pz      :     1.041812  p :     2.924519
      px      :     0.878401
      py      :     1.004307
      dz2     :     0.015809  d :     0.055520
      dxz     :     0.007848
      dyz     :     0.007203
      dx2y2   :     0.013722
      dxy     :     0.010937

  5 C s       :     3.045185  s :     3.045185
      pz      :     0.904657  p :     2.618160
      px      :     0.852369
      py      :     0.861133
      dz2     :     0.012290  d :     0.058465
      dxz     :     0.014136
      dyz     :     0.009020
      dx2y2   :     0.011761
      dxy     :     0.011257

  6 C s       :     3.194569  s :     3.194569
      pz      :     0.974216  p :     3.025466
      px      :     0.997263
      py      :     1.053987
      dz2     :     0.007606  d :     0.037320
      dxz     :     0.007627
      dyz     :     0.008334
      dx2y2   :     0.005905
      dxy     :     0.007849

  7 C s       :     3.096168  s :     3.096168
      pz      :     0.889498  p :     2.714428
      px      :     0.892963
      py      :     0.931967
      dz2     :     0.009670  d :     0.047379
      dxz     :     0.010036
      dyz     :     0.008676
      dx2y2   :     0.011138
      dxy     :     0.007860

  8 C s       :     3.192669  s :     3.192669
      pz      :     0.997497  p :     2.971194
      px      :     0.995870
      py      :     0.977828
      dz2     :     0.006724  d :     0.036725
      dxz     :     0.007799
      dyz     :     0.008609
      dx2y2   :     0.007464
      dxy     :     0.006130

  9 C s       :     3.192729  s :     3.192729
      pz      :     0.949653  p :     2.908794
      px      :     0.984457
      py      :     0.974684
      dz2     :     0.006361  d :     0.036114
      dxz     :     0.010716
      dyz     :     0.005948
      dx2y2   :     0.007739
      dxy     :     0.005350

 10 C s       :     3.197803  s :     3.197803
      pz      :     0.941548  p :     2.921182
      px      :     0.977761
      py      :     1.001874
      dz2     :     0.008831  d :     0.035054
      dxz     :     0.007730
      dyz     :     0.006077
      dx2y2   :     0.004028
      dxy     :     0.008388

 11 C s       :     3.163414  s :     3.163414
      pz      :     0.874200  p :     2.922988
      px      :     1.066829
      py      :     0.981959
      dz2     :     0.010411  d :     0.047521
      dxz     :     0.009660
      dyz     :     0.010021
      dx2y2   :     0.008928
      dxy     :     0.008501

 12 Cls       :     5.923889  s :     5.923889
      pz      :     3.469446  p :    11.080935
      px      :     3.943260
      py      :     3.668229
      dz2     :     0.008092  d :     0.029798
      dxz     :     0.003307
      dyz     :     0.012949
      dx2y2   :     0.003557
      dxy     :     0.001893

 13 C s       :     3.033342  s :     3.033342
      pz      :     0.906599  p :     2.623233
      px      :     0.784886
      py      :     0.931748
      dz2     :     0.011738  d :     0.060678
      dxz     :     0.014026
      dyz     :     0.009795
      dx2y2   :     0.013340
      dxy     :     0.011778

 14 N s       :     3.601253  s :     3.601253
      pz      :     1.232218  p :     3.822805
      px      :     1.255553
      py      :     1.335034
      dz2     :     0.009144  d :     0.046220
      dxz     :     0.011473
      dyz     :     0.008607
      dx2y2   :     0.010218
      dxy     :     0.006777

 15 C s       :     3.282623  s :     3.282623
      pz      :     0.879198  p :     3.020441
      px      :     1.093173
      py      :     1.048070
      dz2     :     0.011883  d :     0.047002
      dxz     :     0.011803
      dyz     :     0.008649
      dx2y2   :     0.009862
      dxy     :     0.004805

 16 S s       :     5.224171  s :     5.224171
      pz      :     3.028932  p :     9.037936
      px      :     3.008040
      py      :     3.000965
      dz2     :     0.084394  d :     0.531581
      dxz     :     0.121816
      dyz     :     0.121721
      dx2y2   :     0.085390
      dxy     :     0.118261

 17 O s       :     3.922573  s :     3.922573
      pz      :     1.375543  p :     4.625990
      px      :     1.629856
      py      :     1.620590
      dz2     :     0.007312  d :     0.026031
      dxz     :     0.005971
      dyz     :     0.006412
      dx2y2   :     0.003339
      dxy     :     0.002997

 18 O s       :     3.923833  s :     3.923833
      pz      :     1.579142  p :     4.612930
      px      :     1.542183
      py      :     1.491605
      dz2     :     0.004320  d :     0.026447
      dxz     :     0.004310
      dyz     :     0.005247
      dx2y2   :     0.006414
      dxy     :     0.006156

 19 C s       :     3.211230  s :     3.211230
      pz      :     1.019170  p :     2.896153
      px      :     0.969731
      py      :     0.907252
      dz2     :     0.005277  d :     0.038629
      dxz     :     0.005305
      dyz     :     0.010172
      dx2y2   :     0.007076
      dxy     :     0.010799

 20 C s       :     3.197098  s :     3.197098
      pz      :     0.946711  p :     2.908881
      px      :     0.945694
      py      :     1.016475
      dz2     :     0.008550  d :     0.036602
      dxz     :     0.005618
      dyz     :     0.005875
      dx2y2   :     0.010982
      dxy     :     0.005576

 21 C s       :     3.216673  s :     3.216673
      pz      :     0.951713  p :     2.907825
      px      :     0.955448
      py      :     1.000664
      dz2     :     0.004504  d :     0.035421
      dxz     :     0.005808
      dyz     :     0.008949
      dx2y2   :     0.007530
      dxy     :     0.008630

 22 C s       :     3.210387  s :     3.210387
      pz      :     0.891675  p :     2.644758
      px      :     0.892620
      py      :     0.860463
      dz2     :     0.006864  d :     0.039970
      dxz     :     0.005627
      dyz     :     0.009240
      dx2y2   :     0.009294
      dxy     :     0.008945

 23 C s       :     3.003609  s :     3.003609
      pz      :     0.855102  p :     2.474049
      px      :     0.853859
      py      :     0.765088
      dz2     :     0.017381  d :     0.112401
      dxz     :     0.013604
      dyz     :     0.028422
      dx2y2   :     0.024908
      dxy     :     0.028085

 24 O s       :     3.842540  s :     3.842540
      pz      :     1.464854  p :     4.687022
      px      :     1.460104
      py      :     1.762063
      dz2     :     0.005965  d :     0.022977
      dxz     :     0.006074
      dyz     :     0.003549
      dx2y2   :     0.003892
      dxy     :     0.003497

 25 O s       :     3.910365  s :     3.910365
      pz      :     1.703675  p :     4.732093
      px      :     1.692892
      py      :     1.335525
      dz2     :     0.002245  d :     0.017062
      dxz     :     0.000145
      dyz     :     0.004042
      dx2y2   :     0.006499
      dxy     :     0.004132

 26 C s       :     3.218325  s :     3.218325
      pz      :     0.964066  p :     2.897069
      px      :     0.964721
      py      :     0.968283
      dz2     :     0.006798  d :     0.035486
      dxz     :     0.005255
      dyz     :     0.006995
      dx2y2   :     0.009722
      dxy     :     0.006716

 27 C s       :     3.206054  s :     3.206054
      pz      :     0.998311  p :     2.921244
      px      :     1.007559
      py      :     0.915375
      dz2     :     0.004621  d :     0.036632
      dxz     :     0.006386
      dyz     :     0.008773
      dx2y2   :     0.008411
      dxy     :     0.008442

 28 N s       :     3.691427  s :     3.691427
      pz      :     1.140614  p :     3.652672
      px      :     1.156146
      py      :     1.355912
      dz2     :     0.008867  d :     0.035333
      dxz     :     0.006745
      dyz     :     0.005907
      dx2y2   :     0.007948
      dxy     :     0.005866

 29 C s       :     3.165305  s :     3.165305
      pz      :     0.952569  p :     2.846794
      px      :     0.967882
      py      :     0.926342
      dz2     :     0.010800  d :     0.053820
      dxz     :     0.006650
      dyz     :     0.014365
      dx2y2   :     0.011131
      dxy     :     0.010874

 30 C s       :     3.138318  s :     3.138318
      pz      :     0.882305  p :     2.677256
      px      :     0.937165
      py      :     0.857786
      dz2     :     0.008812  d :     0.041902
      dxz     :     0.005830
      dyz     :     0.011395
      dx2y2   :     0.007700
      dxy     :     0.008164

 31 C s       :     3.209477  s :     3.209477
      pz      :     0.986774  p :     2.958136
      px      :     0.985551
      py      :     0.985811
      dz2     :     0.007193  d :     0.036394
      dxz     :     0.005838
      dyz     :     0.009077
      dx2y2   :     0.007118
      dxy     :     0.007168

 32 C s       :     3.190472  s :     3.190472
      pz      :     0.949622  p :     2.900757
      px      :     0.975646
      py      :     0.975489
      dz2     :     0.007703  d :     0.036485
      dxz     :     0.005241
      dyz     :     0.010450
      dx2y2   :     0.008261
      dxy     :     0.004830

 33 C s       :     3.193392  s :     3.193392
      pz      :     0.944942  p :     2.892119
      px      :     0.971728
      py      :     0.975449
      dz2     :     0.007687  d :     0.036578
      dxz     :     0.005380
      dyz     :     0.010409
      dx2y2   :     0.006004
      dxy     :     0.007097

 34 C s       :     3.208538  s :     3.208538
      pz      :     0.989802  p :     2.949797
      px      :     0.992447
      py      :     0.967548
      dz2     :     0.006879  d :     0.035672
      dxz     :     0.006121
      dyz     :     0.008783
      dx2y2   :     0.006735
      dxy     :     0.007155

 35 C s       :     3.141441  s :     3.141441
      pz      :     0.893816  p :     2.708155
      px      :     0.938380
      py      :     0.875959
      dz2     :     0.008842  d :     0.041489
      dxz     :     0.005735
      dyz     :     0.010864
      dx2y2   :     0.007995
      dxy     :     0.008053

 36 H s       :     0.842699  s :     0.842699

 37 H s       :     0.786369  s :     0.786369

 38 H s       :     0.841141  s :     0.841141

 39 H s       :     0.802038  s :     0.802038

 40 H s       :     0.832583  s :     0.832583

 41 H s       :     0.847124  s :     0.847124

 42 H s       :     0.874907  s :     0.874907

 43 H s       :     0.885872  s :     0.885872

 44 H s       :     0.872406  s :     0.872406

 45 H s       :     0.809132  s :     0.809132

 46 H s       :     0.814071  s :     0.814071

 47 H s       :     0.823126  s :     0.823126

 48 H s       :     0.853617  s :     0.853617

 49 H s       :     0.855330  s :     0.855330

 50 H s       :     0.849593  s :     0.849593

 51 H s       :     0.857149  s :     0.857149

 52 H s       :     0.850778  s :     0.850778

 53 H s       :     0.867565  s :     0.867565

 54 H s       :     0.876290  s :     0.876290

 55 H s       :     0.873427  s :     0.873427

 56 H s       :     0.860002  s :     0.860002



                     *******************************
                     * LOEWDIN POPULATION ANALYSIS *
                     *******************************

----------------------
LOEWDIN ATOMIC CHARGES
----------------------
   0 C :   -0.362144
   1 C :    0.002082
   2 C :    0.032103
   3 N :   -0.291365
   4 C :   -0.151577
   5 C :    0.007900
   6 C :   -0.187468
   7 C :   -0.035840
   8 C :   -0.130573
   9 C :   -0.148600
  10 C :   -0.159210
  11 C :   -0.111150
  12 Cl:    0.019259
  13 C :   -0.002328
  14 N :    0.014362
  15 C :   -0.274712
  16 S :    1.262345
  17 O :   -0.595194
  18 O :   -0.586301
  19 C :   -0.217831
  20 C :   -0.117975
  21 C :   -0.113240
  22 C :   -0.003839
  23 C :    0.071212
  24 O :   -0.378055
  25 O :   -0.507929
  26 C :   -0.110638
  27 C :   -0.131293
  28 N :   -0.126262
  29 C :   -0.067680
  30 C :   -0.030916
  31 C :   -0.114831
  32 C :   -0.132857
  33 C :   -0.123997
  34 C :   -0.120019
  35 C :   -0.009611
  36 H :    0.135611
  37 H :    0.159591
  38 H :    0.135922
  39 H :    0.160916
  40 H :    0.130242
  41 H :    0.147211
  42 H :    0.132483
  43 H :    0.126329
  44 H :    0.134484
  45 H :    0.147260
  46 H :    0.142113
  47 H :    0.137109
  48 H :    0.140292
  49 H :    0.145718
  50 H :    0.149452
  51 H :    0.138967
  52 H :    0.135343
  53 H :    0.134006
  54 H :    0.129769
  55 H :    0.131479
  56 H :    0.139874

-------------------------------
LOEWDIN REDUCED ORBITAL CHARGES
-------------------------------
  0 C s       :     2.972407  s :     2.972407
      pz      :     1.065883  p :     3.323708
      px      :     1.100485
      py      :     1.157340
      dz2     :     0.014953  d :     0.066029
      dxz     :     0.012966
      dyz     :     0.015680
      dx2y2   :     0.017357
      dxy     :     0.005073

  1 C s       :     2.890390  s :     2.890390
      pz      :     1.012407  p :     3.009789
      px      :     0.953789
      py      :     1.043594
      dz2     :     0.019519  d :     0.097740
      dxz     :     0.012504
      dyz     :     0.030837
      dx2y2   :     0.017678
      dxy     :     0.017202

  2 C s       :     2.847963  s :     2.847963
      pz      :     0.994648  p :     2.941259
      px      :     0.993194
      py      :     0.953418
      dz2     :     0.037555  d :     0.178675
      dxz     :     0.024074
      dyz     :     0.055213
      dx2y2   :     0.032427
      dxy     :     0.029405

  3 N s       :     3.176926  s :     3.176926
      pz      :     1.505740  p :     4.029726
      px      :     1.335025
      py      :     1.188961
      dz2     :     0.010325  d :     0.084713
      dxz     :     0.014208
      dyz     :     0.017919
      dx2y2   :     0.019231
      dxy     :     0.023031

  4 C s       :     2.917594  s :     2.917594
      pz      :     1.088540  p :     3.114871
      px      :     0.969264
      py      :     1.057067
      dz2     :     0.032308  d :     0.119112
      dxz     :     0.017651
      dyz     :     0.014311
      dx2y2   :     0.030290
      dxy     :     0.024552

  5 C s       :     2.860583  s :     2.860583
      pz      :     1.014759  p :     2.993010
      px      :     1.005939
      py      :     0.972312
      dz2     :     0.029949  d :     0.138507
      dxz     :     0.033573
      dyz     :     0.022059
      dx2y2   :     0.026568
      dxy     :     0.026357

  6 C s       :     2.900213  s :     2.900213
      pz      :     1.062542  p :     3.199640
      px      :     1.053284
      py      :     1.083814
      dz2     :     0.018258  d :     0.087615
      dxz     :     0.020547
      dyz     :     0.016512
      dx2y2   :     0.013451
      dxy     :     0.018848

  7 C s       :     2.834113  s :     2.834113
      pz      :     1.023349  p :     3.078354
      px      :     1.040237
      py      :     1.014768
      dz2     :     0.025745  d :     0.123372
      dxz     :     0.027078
      dyz     :     0.022921
      dx2y2   :     0.026828
      dxy     :     0.020800

  8 C s       :     2.910846  s :     2.910846
      pz      :     1.051490  p :     3.134419
      px      :     1.046214
      py      :     1.036715
      dz2     :     0.015608  d :     0.085309
      dxz     :     0.018896
      dyz     :     0.016923
      dx2y2   :     0.017201
      dxy     :     0.016680

  9 C s       :     2.916705  s :     2.916705
      pz      :     1.048436  p :     3.147127
      px      :     1.057215
      py      :     1.041476
      dz2     :     0.015632  d :     0.084768
      dxz     :     0.022651
      dyz     :     0.015634
      dx2y2   :     0.017080
      dxy     :     0.013771

 10 C s       :     2.919757  s :     2.919757
      pz      :     1.050063  p :     3.156399
      px      :     1.049643
      py      :     1.056694
      dz2     :     0.021401  d :     0.083054
      dxz     :     0.020853
      dyz     :     0.014976
      dx2y2   :     0.009354
      dxy     :     0.016470

 11 C s       :     2.912150  s :     2.912150
      pz      :     0.974801  p :     3.088025
      px      :     1.093056
      py      :     1.020168
      dz2     :     0.023272  d :     0.110976
      dxz     :     0.024364
      dyz     :     0.023014
      dx2y2   :     0.020454
      dxy     :     0.019872

 12 Cls       :     5.801086  s :     5.801086
      pz      :     3.518500  p :    11.146380
      px      :     3.935690
      py      :     3.692190
      dz2     :     0.008955  d :     0.033275
      dxz     :     0.003544
      dyz     :     0.014782
      dx2y2   :     0.003973
      dxy     :     0.002020

 13 C s       :     2.826908  s :     2.826908
      pz      :     1.013390  p :     3.026083
      px      :     0.973714
      py      :     1.038979
      dz2     :     0.028790  d :     0.149337
      dxz     :     0.036025
      dyz     :     0.024309
      dx2y2   :     0.031527
      dxy     :     0.028687

 14 N s       :     3.047847  s :     3.047847
      pz      :     1.247952  p :     3.824731
      px      :     1.245944
      py      :     1.330836
      dz2     :     0.021100  d :     0.113059
      dxz     :     0.029011
      dyz     :     0.020202
      dx2y2   :     0.024690
      dxy     :     0.018057

 15 C s       :     2.970915  s :     2.970915
      pz      :     0.973591  p :     3.211423
      px      :     1.136506
      py      :     1.101326
      dz2     :     0.024471  d :     0.092373
      dxz     :     0.023612
      dyz     :     0.017237
      dx2y2   :     0.018583
      dxy     :     0.008471

 16 S s       :     5.107239  s :     5.107239
      pz      :     2.987558  p :     8.957058
      px      :     2.983692
      py      :     2.985809
      dz2     :     0.098940  d :     0.673358
      dxz     :     0.159746
      dyz     :     0.158403
      dx2y2   :     0.100932
      dxy     :     0.155338

 17 O s       :     3.708086  s :     3.708086
      pz      :     1.482829  p :     4.832620
      px      :     1.677212
      py      :     1.672579
      dz2     :     0.012334  d :     0.054489
      dxz     :     0.014108
      dyz     :     0.015813
      dx2y2   :     0.005091
      dxy     :     0.007143

 18 O s       :     3.709869  s :     3.709869
      pz      :     1.627778  p :     4.821482
      px      :     1.612564
      py      :     1.581140
[...]
      pz      :     1.034279  p :     3.125294
      px      :     1.038365
      py      :     1.052650
      dz2     :     0.010802  d :     0.087136
      dxz     :     0.011585
      dyz     :     0.021559
      dx2y2   :     0.022708
      dxy     :     0.020482

 28 N s       :     3.238700  s :     3.238700
      pz      :     1.221707  p :     3.807545
      px      :     1.172911
      py      :     1.412927
      dz2     :     0.021006  d :     0.080018
      dxz     :     0.015633
      dyz     :     0.015470
      dx2y2   :     0.016843
      dxy     :     0.011066

 29 C s       :     2.912264  s :     2.912264
      pz      :     1.034469  p :     3.031742
      px      :     0.984552
      py      :     1.012721
      dz2     :     0.023800  d :     0.123674
      dxz     :     0.011580
      dyz     :     0.035071
      dx2y2   :     0.028724
      dxy     :     0.024499

 30 C s       :     2.858650  s :     2.858650
      pz      :     1.027567  p :     3.063148
      px      :     0.985722
      py      :     1.049859
      dz2     :     0.022273  d :     0.109118
      dxz     :     0.014056
      dyz     :     0.032211
      dx2y2   :     0.020460
      dxy     :     0.020118

 31 C s       :     2.915531  s :     2.915531
      pz      :     1.048653  p :     3.114371
      px      :     1.005761
      py      :     1.059957
      dz2     :     0.015987  d :     0.084930
      dxz     :     0.010347
      dyz     :     0.022903
      dx2y2   :     0.018386
      dxy     :     0.017306

 32 C s       :     2.916011  s :     2.916011
      pz      :     1.048774  p :     3.130633
      px      :     1.010240
      py      :     1.071619
      dz2     :     0.018838  d :     0.086213
      dxz     :     0.013440
      dyz     :     0.024976
      dx2y2   :     0.017318
      dxy     :     0.011641

 33 C s       :     2.917187  s :     2.917187
      pz      :     1.045475  p :     3.120624
      px      :     1.001861
      py      :     1.073289
      dz2     :     0.018764  d :     0.086186
      dxz     :     0.012517
      dyz     :     0.025892
      dx2y2   :     0.013830
      dxy     :     0.015182

 34 C s       :     2.917141  s :     2.917141
      pz      :     1.053075  p :     3.120101
      px      :     1.010443
      py      :     1.056583
      dz2     :     0.015185  d :     0.082778
      dxz     :     0.010638
      dyz     :     0.022407
      dx2y2   :     0.018030
      dxy     :     0.016517

 35 C s       :     2.856303  s :     2.856303
      pz      :     1.021258  p :     3.047058
      px      :     0.985232
      py      :     1.040569
      dz2     :     0.022226  d :     0.106249
      dxz     :     0.013980
      dyz     :     0.030246
      dx2y2   :     0.020141
      dxy     :     0.019656

 36 H s       :     0.864389  s :     0.864389

 37 H s       :     0.840409  s :     0.840409

 38 H s       :     0.864078  s :     0.864078

 39 H s       :     0.839084  s :     0.839084

 40 H s       :     0.869758  s :     0.869758

 41 H s       :     0.852789  s :     0.852789

 42 H s       :     0.867517  s :     0.867517

 43 H s       :     0.873671  s :     0.873671

 44 H s       :     0.865516  s :     0.865516

 45 H s       :     0.852740  s :     0.852740

 46 H s       :     0.857887  s :     0.857887

 47 H s       :     0.862891  s :     0.862891

 48 H s       :     0.859708  s :     0.859708

 49 H s       :     0.854282  s :     0.854282

 50 H s       :     0.850548  s :     0.850548

 51 H s       :     0.861033  s :     0.861033

 52 H s       :     0.864657  s :     0.864657

 53 H s       :     0.865994  s :     0.865994

 54 H s       :     0.870231  s :     0.870231

 55 H s       :     0.868521  s :     0.868521

 56 H s       :     0.860126  s :     0.860126



                      *****************************
                      * MAYER POPULATION ANALYSIS *
                      *****************************

  NA   - Mulliken gross atomic population
  ZA   - Total nuclear charge
  QA   - Mulliken gross atomic charge
  VA   - Mayer's total valence
  BVA  - Mayer's bonded valence
  FA   - Mayer's free valence

  ATOM       NA         ZA         QA         VA         BVA        FA
  0 C      6.5467     6.0000    -0.5467     3.8224     3.8224    -0.0000
  1 C      5.8737     6.0000     0.1263     3.8623     3.8623     0.0000
  2 C      5.6999     6.0000     0.3001     3.8934     3.8934     0.0000
  3 N      7.6063     7.0000    -0.6063     2.7708     2.7708    -0.0000
  4 C      6.2289     6.0000    -0.2289     3.8238     3.8238     0.0000
  5 C      5.7218     6.0000     0.2782     3.7764     3.7764     0.0000
  6 C      6.2574     6.0000    -0.2574     3.8656     3.8656    -0.0000
  7 C      5.8580     6.0000     0.1420     4.1040     4.1040    -0.0000
  8 C      6.2006     6.0000    -0.2006     3.8929     3.8929     0.0000
  9 C      6.1376     6.0000    -0.1376     3.9239     3.9239     0.0000
 10 C      6.1540     6.0000    -0.1540     3.9282     3.9282     0.0000
 11 C      6.1339     6.0000    -0.1339     3.8451     3.8451    -0.0000
 12 Cl    17.0346    17.0000    -0.0346     1.0870     1.0870    -0.0000
 13 C      5.7173     6.0000     0.2827     3.8217     3.8217    -0.0000
 14 N      7.4703     7.0000    -0.4703     3.2552     3.2552     0.0000
 15 C      6.3501     6.0000    -0.3501     3.7746     3.7746    -0.0000
 16 S     14.7937    16.0000     1.2063     5.0641     5.0641    -0.0000
 17 O      8.5746     8.0000    -0.5746     1.8613     1.8613     0.0000
 18 O      8.5632     8.0000    -0.5632     1.8707     1.8707    -0.0000
 19 C      6.1460     6.0000    -0.1460     3.8003     3.8003     0.0000
 20 C      6.1426     6.0000    -0.1426     3.9012     3.9012     0.0000
 21 C      6.1599     6.0000    -0.1599     3.8808     3.8808     0.0000
 22 C      5.8951     6.0000     0.1049     3.8383     3.8383    -0.0000
 23 C      5.5901     6.0000     0.4099     4.2074     4.2074     0.0000
 24 O      8.5525     8.0000    -0.5525     1.9554     1.9554    -0.0000
 25 O      8.6595     8.0000    -0.6595     1.8348     1.8348     0.0000
 26 C      6.1509     6.0000    -0.1509     3.8694     3.8694     0.0000
 27 C      6.1639     6.0000    -0.1639     3.8925     3.8925     0.0000
 28 N      7.3794     7.0000    -0.3794     2.9512     2.9512     0.0000
 29 C      6.0659     6.0000    -0.0659     3.8654     3.8654    -0.0000
 30 C      5.8575     6.0000     0.1425     3.9493     3.9493     0.0000
 31 C      6.2040     6.0000    -0.2040     3.9021     3.9021    -0.0000
 32 C      6.1277     6.0000    -0.1277     3.9276     3.9276    -0.0000
 33 C      6.1221     6.0000    -0.1221     3.9259     3.9259    -0.0000
 34 C      6.1940     6.0000    -0.1940     3.8741     3.8741    -0.0000
 35 C      5.8911     6.0000     0.1089     3.9986     3.9986     0.0000
 36 H      0.8427     1.0000     0.1573     0.9314     0.9314     0.0000
 37 H      0.7864     1.0000     0.2136     0.9327     0.9327     0.0000
 38 H      0.8411     1.0000     0.1589     0.9318     0.9318    -0.0000
 39 H      0.8020     1.0000     0.1980     0.9354     0.9354     0.0000
 40 H      0.8326     1.0000     0.1674     0.9246     0.9246     0.0000
 41 H      0.8471     1.0000     0.1529     0.9444     0.9444     0.0000
 42 H      0.8749     1.0000     0.1251     0.9380     0.9380    -0.0000
 43 H      0.8859     1.0000     0.1141     0.9408     0.9408     0.0000
 44 H      0.8724     1.0000     0.1276     0.9440     0.9440     0.0000
 45 H      0.8091     1.0000     0.1909     0.9377     0.9377    -0.0000
 46 H      0.8141     1.0000     0.1859     0.9287     0.9287    -0.0000
 47 H      0.8231     1.0000     0.1769     0.9258     0.9258     0.0000
 48 H      0.8536     1.0000     0.1464     0.9465     0.9465    -0.0000
 49 H      0.8553     1.0000     0.1447     0.9593     0.9593     0.0000
 50 H      0.8496     1.0000     0.1504     0.9650     0.9650     0.0000
 51 H      0.8571     1.0000     0.1429     0.9454     0.9454     0.0000
 52 H      0.8508     1.0000     0.1492     0.9346     0.9346    -0.0000
 53 H      0.8676     1.0000     0.1324     0.9381     0.9381     0.0000
 54 H      0.8763     1.0000     0.1237     0.9384     0.9384     0.0000
 55 H      0.8734     1.0000     0.1266     0.9381     0.9381    -0.0000
 56 H      0.8600     1.0000     0.1400     0.9432     0.9432     0.0000

  Mayer bond orders larger than 0.100000
B(  0-C ,  1-C ) :   1.0101 B(  0-C , 36-H ) :   0.9273 B(  0-C , 37-H ) :   0.9135 
B(  0-C , 38-H ) :   0.9216 B(  1-C ,  2-C ) :   1.4298 B(  1-C , 29-C ) :   0.1032 
B(  1-C , 35-C ) :   1.2580 B(  2-C ,  3-N ) :   0.9177 B(  2-C , 28-N ) :   1.2721 
B(  3-N ,  4-C ) :   0.9338 B(  3-N , 16-S ) :   0.7712 B(  4-C ,  5-C ) :   0.9722 
B(  4-C , 39-H ) :   0.9121 B(  4-C , 40-H ) :   0.9111 B(  5-C ,  6-C ) :   1.5146 
B(  5-C , 14-N ) :   1.1244 B(  6-C ,  7-C ) :   1.2848 B(  6-C , 41-H ) :   0.9237 
B(  7-C ,  8-C ) :   1.3361 B(  7-C , 13-C ) :   1.3023 B(  8-C ,  9-C ) :   1.4767 
B(  8-C , 42-H ) :   0.9263 B(  9-C , 10-C ) :   1.3782 B(  9-C , 43-H ) :   0.9316 
B( 10-C , 11-C ) :   1.4469 B( 10-C , 44-H ) :   0.9277 B( 11-C , 12-Cl) :   0.9969 
B( 11-C , 13-C ) :   1.2840 B( 13-C , 14-N ) :   1.0520 B( 14-N , 15-C ) :   0.9386 
B( 15-C , 45-H ) :   0.9207 B( 15-C , 46-H ) :   0.9267 B( 15-C , 47-H ) :   0.9314 
B( 16-S , 17-O ) :   1.6036 B( 16-S , 18-O ) :   1.6394 B( 16-S , 19-C ) :   0.8461 
B( 19-C , 20-C ) :   1.3632 B( 19-C , 27-C ) :   1.3678 B( 20-C , 21-C ) :   1.4223 
B( 20-C , 48-H ) :   0.9160 B( 21-C , 22-C ) :   1.3834 B( 21-C , 49-H ) :   0.9082 
B( 22-C , 23-C ) :   0.9271 B( 22-C , 26-C ) :   1.4069 B( 23-C , 24-O ) :   1.7074 
B( 23-C , 25-O ) :   1.5502 B( 24-O , 25-O ) :   0.1479 B( 26-C , 27-C ) :   1.3976 
B( 26-C , 50-H ) :   0.9016 B( 27-C , 51-H ) :   0.9206 B( 28-N , 29-C ) :   1.4934 
B( 29-C , 30-C ) :   1.2341 B( 29-C , 52-H ) :   0.9273 B( 30-C , 31-C ) :   1.2848 
B( 30-C , 35-C ) :   1.2880 B( 31-C , 32-C ) :   1.5133 B( 31-C , 34-C ) :   0.1065 
B( 31-C , 53-H ) :   0.9240 B( 32-C , 33-C ) :   1.3520 B( 32-C , 54-H ) :   0.9312 
B( 33-C , 34-C ) :   1.5088 B( 33-C , 55-H ) :   0.9310 B( 34-C , 35-C ) :   1.2961 
B( 34-C , 56-H ) :   0.9151 

-------
TIMINGS
-------

Total SCF time: 0 days 0 hours 12 min 48 sec 

Total time                  ....     768.559 sec
Sum of individual times     ....     768.313 sec  (100.0%)

SCF preparation             ....       0.412 sec  (  0.1%)
Fock matrix formation       ....     765.196 sec  ( 99.6%)
  Startup                   ....       0.092 sec  (  0.0% of F)
  Split-RI-J                ....      98.679 sec  ( 12.9% of F)
  Chain of spheres X        ....     607.998 sec  ( 79.5% of F)
  XC integration            ....      57.581 sec  (  7.5% of F)
    XC Preparation          ....       0.000 sec  (  0.0% of XC)
    Basis function eval.    ....      22.175 sec  ( 38.5% of XC)
    Density eval.           ....      15.531 sec  ( 27.0% of XC)
    XC-Functional eval.     ....       2.609 sec  (  4.5% of XC)
    XC-Potential eval.      ....      15.375 sec  ( 26.7% of XC)
Diagonalization             ....       0.000 sec  (  0.0%)
Density matrix formation    ....       0.362 sec  (  0.0%)
Total Energy calculation    ....       0.075 sec  (  0.0%)
Population analysis         ....       0.102 sec  (  0.0%)
Orbital Transformation      ....       0.281 sec  (  0.0%)
Orbital Orthonormalization  ....       0.000 sec  (  0.0%)
DIIS solution               ....       1.147 sec  (  0.1%)
SOSCF solution              ....       0.738 sec  (  0.1%)
Finished LeanSCF after 768.6 sec

Maximum memory used throughout the entire LEANSCF-calculation: 103.1 MB

-------------------------   --------------------
FINAL SINGLE POINT ENERGY     -2363.967476784136
-------------------------   --------------------


------------------------------------------------------------------------------
                              ORCA PROPERTY CALCULATIONS
------------------------------------------------------------------------------

GBWName                                 ... /home/nmrbox/aojoawo/Documents/ERDOS/inputs/CHEMBL3687338.gbw
Number of atoms                         ...     57
Number of basis functions               ...    554
Max core memory                         ...   1024 MB

Electric properties:
Dipole moment                           ... YES
Quadrupole moment                       ...  NO
Static polarizability (Dipole/Dipole)   ...  NO
Static polarizability (Dipole/Quad.)    ...  NO
Static polarizability (Quad./Quad.)     ...  NO
Static polarizability (Velocity)        ...  NO

Atomic electric properties:
Dipole moment                           ...  NO
Quadrupole moment                       ...  NO
Static polarizability                   ...  NO

Choice of electric origin               ... Center of mass
Position of electric origin             ...    -0.342058     0.552004     0.108236

General magnetic properties:
Magnetizability                         ...  NO

EPR properties:
g-Tensor (aka g-matrix)                 ...  NO
Zero-Field splitting spin-orbit         ...  NO
Zero-field splitting spin-spin          ...  NO
Hyperfine couplings                     ...  NO (   0 nuclei)
Quadrupole couplings                    ...  NO (   0 nuclei)
Contact density                         ...  NO (   0 nuclei)

NMR properties:
Chemical shifts                         ...  NO (   0 nuclei)
Spin-rotation constants                 ...  NO (   0 nuclei)
Spin-spin couplings                     ...  NO (   0 nuclei,    0 pairs)

Choice of magnetic origin               ... GIAO
Position of magnetic origin             ...     0.000000     0.000000     0.000000

Properties with geometric perturbations:
SCF Hessian                             ...  NO
IR spectrum                             ...  NO
VCD spectrum                            ...  NO
X-ray spectroscopy properties:
SCF XES/XAS/RIXS spectra                ...  NO


-------------
DIPOLE MOMENT
-------------

Method             : SCF
Type of density    : Electron Density
Multiplicity       :   1
Irrep              :   0
Energy             : -2363.9674767841356697 Eh
Relativity type    : 
Basis              : AO
                                X                 Y                 Z
Electronic contribution:      2.136153393       3.459834190       3.347186112
Nuclear contribution   :      6.116915408     -12.234649630      -4.786857896
                        -----------------------------------------
Total Dipole Moment    :      8.253068801      -8.774815439      -1.439671784
                        -----------------------------------------
Magnitude (a.u.)       :     12.131907742
Magnitude (Debye)      :     30.836858836



--------------------
Rotational spectrum 
--------------------
 
Rotational constants in cm-1:             0.005055             0.002006             0.001696 
Rotational constants in MHz :           151.550815            60.131650            50.850525 

Dipole components along the rotational axes: 
x,y,z [a.u.] :    12.005519    -1.564322     0.776911 
x,y,z [Debye]:    30.515605    -3.976191     1.974752 

 

Dipole moment calculation done in   0.0 sec 

Maximum memory used throughout the entire PROP-calculation: 50.6 MB

--------------------------------
SUGGESTED CITATIONS FOR THIS RUN
--------------------------------

Below you find a list of papers that are relevant to this ORCA run
We neither can nor want to force you to cite these papers, but we appreciate if you do
You receive ORCA, which is the product of decades of hard work by many enthusiastic individuals, for free
The only thing we kindly ask in return is that you cite our papers,
We deeply appreciate it, if you show your appreciation for ORCA by not just citing the generic ORCA reference.

Please note that relegating all ORCA citations to the supporting information does *not* help us.
SI sections are not indexed - citations you put there will not count into any citation statistics
But we need these citations in order to attract the funding resources that allow us to do what we are doing

Therefore, if you are a happy ORCA user, please consider citing a few of the papers listed below in the main body of your paper

In addition to the list printed below, the program has created the file /home/nmrbox/aojoawo/Documents/ERDOS/inputs/CHEMBL3687338.bibtex that contains the list in bibtex format
You can import this file easily into all common literature databanks and citation aid programs


List of essential papers. We consider these as the minimum necessary citations

  1. Neese,F.
     Software update: the ORCA program system, version 5.0
     WIRES Comput. Molec. Sci., 2022 12(1)e1606
     doi.org/10.1002/wcms.1606

List of papers to cite with high priority. The work reported in these papers was absolutely
necessary for this run to complete.
Our perspective: the developers of density functionals and basis sets usually get cited in chemistry papers
Good! But without the algorithms to do something with them, the functionals or basis sets would not do anything.
Hence, in our opinion, the algorithm design and method developments papers are equally worthy of getting cited

  1. Neese,F.
     An improvement of the resolution of the identity approximation for the formation of the Coulomb matrix
     J. Comp. Chem., 2003 24(14)1740-1747
     doi.org/10.1002/jcc.10318
  2. Neese,F.; Wennmohs,F.; Hansen,A.; Becker,U.
     Efficient, approximate and parallel Hartree-Fock and hybrid DFT calculations. A 'chain-of-spheres' algorithm for the Hartree-Fock exchange
     Chem. Phys., 2009 356(1-3)98-109
     doi.org/10.1016/j.chemphys.2008.10.036
  3. Helmich-Paris,B.; de Souza,B.; Neese,F.; Izsák,R.
     An improved chain of spheres for exchange algorithm
     J. Chem. Phys., 2021 155 104109
     doi.org/doi: 10.1063/5.0058766.
  4. Neese,F.
     The SHARK Integral Generation and Digestion System
     J. Comp. Chem., 2022  1-16
     doi.org/10.1002/jcc.26942

List of suggested additional citations. These are papers that are important in the 'surrounding' of 
of this run, or papers that preceded the highly important papers. If you like your results we are grateful for a citation.

  1. Izsak,R.; Neese,F.
     An overlap fitted chain of spheres exchange method
     J. Chem. Phys., 2011 135 144105
     doi.org/10.1063/1.3646921
  2. Izsak,R.; Hansen,A.; Neese,F.
     The resolution of identity and chain of spheres approximations for the LPNO-CCSD singles Fock term
     Molec. Phys., 2012 110 2413-2417
     doi.org/10.1080/00268976.2012.687466
  3. Neese,F.
     The ORCA program system
     WIRES Comput. Molec. Sci., 2012 2(1)73-78
     doi.org/10.1002/wcms.81
  4. Izsak,R.; Neese,F.; Klopper,W.
     Robust fitting techniques in the chain of spheres approximation to the Fock exchange: The role of the complementary space
     J. Chem. Phys., 2013 139 
     doi.org/10.1063/1.4819264
  5. Neese,F.
     Software update: the ORCA program system, version 4.0
     WIRES Comput. Molec. Sci., 2018 8(1)1-6
     doi.org/10.1002/wcms.1327
  6. Neese,F.; Wennmohs,F.; Becker,U.; Riplinger,C.
     The ORCA quantum chemistry program package
     J. Chem. Phys., 2020 152 Art. No. L224108
     doi.org/10.1063/5.0004608

List of optional additional citations

  1. Neese,F.
     Approximate second-order SCF convergence for spin unrestricted wavefunctions
     Chem. Phys. Lett., 2000 325(1-3)93-98
     doi.org/10.1016/s0009-2614(00)00662-x

Timings for individual modules:

Sum of individual times          ...      795.723 sec (=  13.262 min)
Startup calculation              ...       17.345 sec (=   0.289 min)   2.2 %
SCF iterations                   ...      778.135 sec (=  12.969 min)  97.8 %
Property calculations            ...        0.243 sec (=   0.004 min)   0.0 %
                             ****ORCA TERMINATED NORMALLY****
TOTAL RUN TIME: 0 days 0 hours 13 minutes 16 seconds 522 msec
