
                                 *****************
                                 * O   R   C   A *
                                 *****************

                                            #,                                       
                                            ###                                      
                                            ####                                     
                                            #####                                    
                                            ######                                   
                                           ########,                                 
                                     ,,################,,,,,                         
                               ,,#################################,,                 
                          ,,##########################################,,             
                       ,#########################################, ''#####,          
                    ,#############################################,,   '####,        
                  ,##################################################,,,,####,       
                ,###########''''           ''''###############################       
              ,#####''   ,,,,##########,,,,          '''####'''          '####       
            ,##' ,,,,###########################,,,                        '##       
           ' ,,###''''                  '''############,,,                           
         ,,##''                                '''############,,,,        ,,,,,,###''
      ,#''                                            '''#######################'''  
     '                                                          ''''####''''         
             ,#######,   #######,   ,#######,      ##                                
            ,#'     '#,  ##    ##  ,#'     '#,    #''#        ,####,   ,####,        
            ##       ##  ##   ,#'  ##            #'  '#       #'       #'  '#        
            ##       ##  #######   ##           ,######,      #####,   #    #        
            '#,     ,#'  ##    ##  '#,     ,#' ,#      #,     #,   #   #,  ,#        
             '#######'   ##     ##  '#######'  #'      '#     '####' # '####'        



                #########################################################
                #                        -***-                          #
                #          Department of theory and spectroscopy        #
                #                                                       #
                #                      Frank Neese                      #
                #                                                       #
                #     Directorship, Architecture, Infrastructure        #
                #                    SHARK, DRIVERS                     #
                #        Core code/Algorithms in most modules           #
                #                                                       #
                #        Max Planck Institute fuer Kohlenforschung      #
                #                Kaiser Wilhelm Platz 1                 #
                #                 D-45470 Muelheim/Ruhr                 #
                #                      Germany                          #
                #                                                       #
                #                  All rights reserved                  #
                #                        -***-                          #
                #########################################################


                         Program Version 6.0.0  -   RELEASE  -


 With contributions from (in alphabetic order):
   Daniel Aravena         : Magnetic Suceptibility
   Michael Atanasov       : Ab Initio Ligand Field Theory (pilot matlab implementation)
   Alexander A. Auer      : GIAO ZORA, VPT2 properties, NMR spectrum
   Ute Becker             : All parallelization in ORCA, NUMFREQ, NUMCALC
   Giovanni Bistoni       : ED, misc. LED, open-shell LED, HFLD
   Martin Brehm           : Molecular dynamics
   Dmytro Bykov           : pre 5.0 version of the SCF Hessian
   Marcos Casanova-Páez   : Triplet and SCS-CIS(D). UHF-(DLPNO)-IP/EA/STEOM-CCSD. UHF-CVS-IP/STEOM-CCSD
   Vijay G. Chilkuri      : MRCI spin determinant printing, contributions to CSF-ICE
   Pauline Colinet        : FMM embedding
   Dipayan Datta          : RHF DLPNO-CCSD density
   Achintya Kumar Dutta   : EOM-CC, STEOM-CC
   Nicolas Foglia         : Exact transition moments, OPA infrastructure, MCD improvements
   Dmitry Ganyushin       : Spin-Orbit,Spin-Spin,Magnetic field MRCI
   Miquel Garcia          : C-PCM and meta-GGA Hessian, CCSD/C-PCM, Gaussian charge scheme
   Tiago L. C. Gouveia    : GS-ROHF, GS-ROCIS
   Yang Guo               : DLPNO-NEVPT2, F12-NEVPT2, CIM, IAO-localization
   Andreas Hansen         : Spin unrestricted coupled pair/coupled cluster methods
   Ingolf Harden          : AUTO-CI MPn and infrastructure 
   Benjamin Helmich-Paris : MC-RPA, TRAH-(SCF,CASSCF), AVAS, COSX integrals, SCF dyn. polar.
   Lee Huntington         : MR-EOM, pCC
   Robert Izsak           : Overlap fitted RIJCOSX, COSX-SCS-MP3, EOM
   Riya Kayal             : Wick's Theorem for AUTO-CI, AUTO-CI UHF-CCSDT
   Emily Kempfer          : AUTO-CI, RHF CISDT and CCSDT
   Christian Kollmar      : KDIIS, OOCD, Brueckner-CCSD(T), CCSD density, CASPT2, CASPT2-K, improved NEVPT2
   Axel Koslowski         : Symmetry handling
   Simone Kossmann        : Meta GGA functionals, TD-DFT gradient, OOMP2, (MP2 Hessian; deprecated post 5.0)
   Lucas Lang             : DCDCAS
   Marvin Lechner         : AUTO-CI (C++ implementation), FIC-MRCC
   Spencer Leger          : CASSCF response
   Dagmar Lenk            : GEPOL surface, SMD, ORCA-2-JSON
   Dimitrios Liakos       : Extrapolation schemes; Compound Job, initial MDCI parallelization
   Dimitrios Manganas     : Further ROCIS development; embedding schemes. LFT, Crystal Embedding
   Dimitrios Pantazis     : SARC Basis sets
   Anastasios Papadopoulos: AUTO-CI, single reference methods and gradients
   Taras Petrenko         : pre 6.0 DFT Hessian and TD-DFT gradient, (ASA, deprecated), ECA, 1-Electron XAS/XES, NRVS
   Peter Pinski           : DLPNO-MP2, DLPNO-MP2 Gradient
   Christoph Reimann      : Effective Core Potentials
   Marius Retegan         : Local ZFS, SOC
   Christoph Riplinger    : Optimizer, TS searches, QM/MM, DLPNO-CCSD(T), (RO)-DLPNO pert. Triples
   Michael Roemelt        : Original ROCIS implementation
   Masaaki Saitow         : Open-shell DLPNO-CCSD energy and density
   Barbara Sandhoefer     : DKH picture change effects
   Kantharuban Sivalingam : CASSCF convergence/infrastructure, NEVPT2 and variants, FIC-MRCI
   Bernardo de Souza      : ESD, SOC TD-DFT
   Georgi Stoychev        : AutoAux, RI-MP2 NMR, DLPNO-MP2 response, X2C
   Van Anh Tran           : RI-MP2 g-tensors
   Willem Van den Heuvel  : Paramagnetic NMR
   Zikuan Wang            : NOTCH, Electric field optimization 
   Frank Wennmohs         : Technical directorship and infrastructure
   Hang Xu                : AUTO-CI-Response properties 


 We gratefully acknowledge several colleagues who have allowed us to
 interface, adapt or use parts of their codes:
   Stefan Grimme, W. Hujo, H. Kruse, P. Pracht,  : VdW corrections, initial TS optimization,
                  C. Bannwarth, S. Ehlert,         DFT functionals, gCP, sTDA/sTD-DF
                  L. Wittmann, M. Mueller
   Ed Valeev, F. Pavosevic, A. Kumar             : LibInt (2-el integral package), F12 methods
   Garnet Chan, S. Sharma, J. Yang, R. Olivares  : DMRG
   Ulf Ekstrom                                   : XCFun DFT Library
   Mihaly Kallay                                 : mrcc  (arbitrary order and MRCC methods)
   Frank Weinhold                                : gennbo (NPA and NBO analysis)
   Simon Mueller                                 : openCOSMO-RS
   Christopher J. Cramer and Donald G. Truhlar   : smd solvation model
   Lars Goerigk                                  : TD-DFT with DH, B97 family of functionals
   V. Asgeirsson, H. Jonsson                     : NEB implementation
   FAccTs GmbH                                   : IRC, NEB, NEB-TS, DLPNO-Multilevel, CI-OPT
                                                   MM, QMMM, 2- and 3-layer-ONIOM, Crystal-QMMM,
                                                   LR-CPCM, SF, NACMEs, symmetry and pop. for TD-DFT,
                                                   nearIR, NL-DFT gradient (VV10), updates on ESD,
                                                   ML-optimized integration grids, MBIS, APM,
                                                   GOAT, DOCKER, SOLVATOR, interface openCOSMO-RS
   S Lehtola, MJT Oliveira, MAL Marques          : LibXC Library
   Liviu Ungur et al                             : ANISO software


 Your calculation uses the libint2 library for the computation of 2-el integrals
 For citations please refer to: http://libint.valeyev.net

 Your ORCA version has been built with support for libXC version: 6.2.2
 For citations please refer to: https://libxc.gitlab.io

 This ORCA versions uses:
   CBLAS   interface :  Fast vector & matrix operations
   LAPACKE interface :  Fast linear algebra routines
   SCALAPACK package :  Parallel linear algebra routines
   Shared memory     :  Shared parallel matrices
   BLAS/LAPACK       :  OpenBLAS 0.3.27  USE64BITINT DYNAMIC_ARCH NO_AFFINITY SkylakeX SINGLE_THREADED
        Core in use  :  SkylakeX
   Copyright (c) 2011-2014, The OpenBLAS Project


Warning: RI is on but no J-basis has been assigned. Assigning Def2/J (nothing to worry about!)
================================================================================

----- Orbital basis set information -----
Your calculation utilizes the basis: 6-31G*
   H-He, Li-Ne : W. J. Hehre, R. Ditchfield and J.A. Pople, J. Chem. Phys. 56, 2257 (1972).
                 Note: He and Ne are unpublished basis sets taken from the Gaussian program.
                 Note: Li and B from J. D. Dill and J. A. Pople, J. Chem. Phys. 62, 2921 (1975).
   Na - Ar     : M. M. Francl, W. J. Pietro, W. J. Hehre, J. S. Binkley, M. S. Gordon, 
                 D. J. DeFrees and J. A. Pople, J. Chem. Phys. 77, 3654 (1982).
   K - Zn      : V. A. Rassolov, J. A. Pople, M. A. Ratner, and T. L. Windus, J. Chem. Phys. 109, 1223 (1998).

----- AuxJ basis set information -----
Your calculation utilizes the auxiliary basis: def2/J
   F. Weigend, Phys. Chem. Chem. Phys. 8, 1057 (2006).

================================================================================
                                        WARNINGS
                       Please study these warnings very carefully!
================================================================================


================================================================================
                                       INPUT FILE
================================================================================
NAME = /home/nmrbox/aojoawo/Documents/ERDOS/inputs/CHEMBL3682561.inp
|  1> ! B3LYP 6-31G* SP
|  2> 
|  3> * xyz -1 1
|  4> C -2.4383 0.3198 0.9984
|  5> C -2.7829 1.4148 0.0139
|  6> C -2.7442 1.1717 -1.3799
|  7> N -2.4065 -0.1186 -1.9030
|  8> C -1.0991 -0.3257 -2.5288
|  9> C -0.0271 -0.3761 -1.4750
| 10> C 0.3216 -1.5954 -0.8758
| 11> C 1.2564 -1.6289 0.1618
| 12> C 1.8546 -0.4499 0.6209
| 13> O 2.7831 -0.5448 1.6702
| 14> C 3.5801 0.5279 2.1742
| 15> C 4.7154 0.8755 1.1958
| 16> C 5.6077 1.9943 1.7161
| 17> C 6.9515 1.7930 1.0275
| 18> C 6.9954 0.3377 0.5608
| 19> C 5.6636 -0.2924 0.9513
| 20> C 1.4977 0.7759 0.0261
| 21> C 0.5634 0.8095 -1.0126
| 22> S -3.6562 -1.3123 -2.0755
| 23> O -4.8535 -0.9214 -1.2538
| 24> O -4.0739 -1.3940 -3.5169
| 25> C -3.0702 -2.8788 -1.5239
| 26> C -2.4757 -3.7676 -2.4285
| 27> C -1.9680 -4.9915 -1.9836
| 28> C -2.0483 -5.3444 -0.6246
| 29> C -1.5030 -6.6335 -0.1464
| 30> O -0.9556 -7.4350 -0.9495
| 31> O -1.5863 -6.9779 1.1979
| 32> C -2.6535 -4.4517 0.2765
| 33> C -3.1622 -3.2295 -0.1713
| 34> N -3.0176 2.1742 -2.2552
| 35> C -3.3466 3.4244 -1.8505
| 36> C -3.4197 3.7249 -0.4883
| 37> C -3.7686 5.0173 -0.0665
| 38> C -3.8428 5.3149 1.2944
| 39> C -3.5712 4.3284 2.2421
| 40> C -3.2220 3.0375 1.8365
| 41> C -3.1382 2.7131 0.4639
| 42> H -1.6091 0.6543 1.6567
| 43> H -3.3295 0.0754 1.6135
| 44> H -2.0988 -0.6110 0.5071
| 45> H -1.0937 -1.2686 -3.1160
| 46> H -0.8929 0.4957 -3.2492
| 47> H -0.1352 -2.5195 -1.2040
| 48> H 1.5151 -2.5770 0.6158
| 49> H 2.9484 1.4183 2.3795
| 50> H 4.0130 0.2084 3.1465
| 51> H 4.2869 1.1944 0.2199
| 52> H 5.1780 2.9928 1.4832
| 53> H 5.7465 1.9061 2.8171
| 54> H 7.7875 2.0125 1.7269
| 55> H 7.0306 2.4728 0.1505
| 56> H 7.8397 -0.2064 1.0379
| 57> H 7.1236 0.2984 -0.5433
| 58> H 5.8003 -0.8874 1.8820
| 59> H 5.2804 -0.9588 0.1479
| 60> H 1.9237 1.7101 0.3623
| 61> H 0.2869 1.7632 -1.4453
| 62> H -2.3914 -3.5088 -3.4761
| 63> H -1.5070 -5.6576 -2.7021
| 64> H -2.7322 -4.6950 1.3285
| 65> H -3.6223 -2.5562 0.5402
| 66> H -3.5551 4.1815 -2.5964
| 67> H -3.9843 5.7957 -0.7890
| 68> H -4.1124 6.3128 1.6157
| 69> H -3.6319 4.5647 3.2966
| 70> H -3.0246 2.3040 2.6062
| 71> *
| 72> 
| 73>                          ****END OF INPUT****
================================================================================

                       ****************************
                       * Single Point Calculation *
                       ****************************

---------------------------------
CARTESIAN COORDINATES (ANGSTROEM)
---------------------------------
  C     -2.438300    0.319800    0.998400
  C     -2.782900    1.414800    0.013900
  C     -2.744200    1.171700   -1.379900
  N     -2.406500   -0.118600   -1.903000
  C     -1.099100   -0.325700   -2.528800
  C     -0.027100   -0.376100   -1.475000
  C      0.321600   -1.595400   -0.875800
  C      1.256400   -1.628900    0.161800
  C      1.854600   -0.449900    0.620900
  O      2.783100   -0.544800    1.670200
  C      3.580100    0.527900    2.174200
  C      4.715400    0.875500    1.195800
  C      5.607700    1.994300    1.716100
  C      6.951500    1.793000    1.027500
  C      6.995400    0.337700    0.560800
  C      5.663600   -0.292400    0.951300
  C      1.497700    0.775900    0.026100
  C      0.563400    0.809500   -1.012600
  S     -3.656200   -1.312300   -2.075500
  O     -4.853500   -0.921400   -1.253800
  O     -4.073900   -1.394000   -3.516900
  C     -3.070200   -2.878800   -1.523900
  C     -2.475700   -3.767600   -2.428500
  C     -1.968000   -4.991500   -1.983600
  C     -2.048300   -5.344400   -0.624600
  C     -1.503000   -6.633500   -0.146400
  O     -0.955600   -7.435000   -0.949500
  O     -1.586300   -6.977900    1.197900
  C     -2.653500   -4.451700    0.276500
  C     -3.162200   -3.229500   -0.171300
  N     -3.017600    2.174200   -2.255200
  C     -3.346600    3.424400   -1.850500
  C     -3.419700    3.724900   -0.488300
  C     -3.768600    5.017300   -0.066500
  C     -3.842800    5.314900    1.294400
  C     -3.571200    4.328400    2.242100
  C     -3.222000    3.037500    1.836500
  C     -3.138200    2.713100    0.463900
  H     -1.609100    0.654300    1.656700
  H     -3.329500    0.075400    1.613500
  H     -2.098800   -0.611000    0.507100
  H     -1.093700   -1.268600   -3.116000
  H     -0.892900    0.495700   -3.249200
  H     -0.135200   -2.519500   -1.204000
  H      1.515100   -2.577000    0.615800
  H      2.948400    1.418300    2.379500
  H      4.013000    0.208400    3.146500
  H      4.286900    1.194400    0.219900
  H      5.178000    2.992800    1.483200
  H      5.746500    1.906100    2.817100
  H      7.787500    2.012500    1.726900
  H      7.030600    2.472800    0.150500
  H      7.839700   -0.206400    1.037900
  H      7.123600    0.298400   -0.543300
  H      5.800300   -0.887400    1.882000
  H      5.280400   -0.958800    0.147900
  H      1.923700    1.710100    0.362300
  H      0.286900    1.763200   -1.445300
  H     -2.391400   -3.508800   -3.476100
  H     -1.507000   -5.657600   -2.702100
  H     -2.732200   -4.695000    1.328500
  H     -3.622300   -2.556200    0.540200
  H     -3.555100    4.181500   -2.596400
  H     -3.984300    5.795700   -0.789000
  H     -4.112400    6.312800    1.615700
  H     -3.631900    4.564700    3.296600
  H     -3.024600    2.304000    2.606200

----------------------------
CARTESIAN COORDINATES (A.U.)
----------------------------
  NO LB      ZA    FRAG     MASS         X           Y           Z
   0 C     6.0000    0    12.011   -4.607719    0.604334    1.886703
   1 C     6.0000    0    12.011   -5.258919    2.673585    0.026267
   2 C     6.0000    0    12.011   -5.185786    2.214192   -2.607633
   3 N     7.0000    0    14.007   -4.547626   -0.224122   -3.596149
   4 C     6.0000    0    12.011   -2.076998   -0.615484   -4.778739
   5 C     6.0000    0    12.011   -0.051212   -0.710726   -2.787346
   6 C     6.0000    0    12.011    0.607736   -3.014869   -1.655022
   7 C     6.0000    0    12.011    2.374252   -3.078175    0.305758
   8 C     6.0000    0    12.011    3.504686   -0.850188    1.173331
   9 O     8.0000    0    15.999    5.259297   -1.029523    3.156221
  10 C     6.0000    0    12.011    6.765409    0.997586    4.108643
  11 C     6.0000    0    12.011    8.910815    1.654455    2.259735
  12 C     6.0000    0    12.011   10.597017    3.768681    3.242959
  13 C     6.0000    0    12.011   13.136431    3.388279    1.941694
  14 C     6.0000    0    12.011   13.219390    0.638161    1.059758
  15 C     6.0000    0    12.011   10.702653   -0.552556    1.797696
  16 C     6.0000    0    12.011    2.830243    1.466239    0.049322
  17 C     6.0000    0    12.011    1.064672    1.529733   -1.913537
  18 S    16.0000    0    32.060   -6.909217   -2.479888   -3.922127
  19 O     8.0000    0    15.999   -9.171786   -1.741194   -2.369339
  20 O     8.0000    0    15.999   -7.698555   -2.634278   -6.645978
  21 C     6.0000    0    12.011   -5.801837   -5.440144   -2.879754
  22 C     6.0000    0    12.011   -4.678395   -7.119732   -4.589200
  23 C     6.0000    0    12.011   -3.718981   -9.432568   -3.748461
  24 C     6.0000    0    12.011   -3.870726  -10.099452   -1.180323
  25 C     6.0000    0    12.011   -2.840258  -12.535498   -0.276656
  26 O     8.0000    0    15.999   -1.805822  -14.050114   -1.794295
  27 O     8.0000    0    15.999   -2.997673  -13.186320    2.263703
  28 C     6.0000    0    12.011   -5.014388   -8.412494    0.522509
  29 C     6.0000    0    12.011   -5.975692   -6.102871   -0.323710
  30 N     7.0000    0    14.007   -5.702438    4.108643   -4.261710
  31 C     6.0000    0    12.011   -6.324157    6.471178   -3.496938
  32 C     6.0000    0    12.011   -6.462296    7.039041   -0.922753
  33 C     6.0000    0    12.011   -7.121622    9.481323   -0.125667
  34 C     6.0000    0    12.011   -7.261840   10.043705    2.446062
  35 C     6.0000    0    12.011   -6.748590    8.179491    4.236955
  36 C     6.0000    0    12.011   -6.088698    5.740043    3.470482
  37 C     6.0000    0    12.011   -5.930339    5.127016    0.876644
  38 H     1.0000    0     1.008   -3.040758    1.236448    3.130709
  39 H     1.0000    0     1.008   -6.291843    0.142485    3.049073
  40 H     1.0000    0     1.008   -3.966157   -1.154623    0.958280
  41 H     1.0000    0     1.008   -2.066793   -2.397307   -5.888387
  42 H     1.0000    0     1.008   -1.687336    0.936737   -6.140098
  43 H     1.0000    0     1.008   -0.255491   -4.761165   -2.275230
  44 H     1.0000    0     1.008    2.863124   -4.869824    1.163693
  45 H     1.0000    0     1.008    5.571669    2.680199    4.496603
  46 H     1.0000    0     1.008    7.583471    0.393819    5.946023
  47 H     1.0000    0     1.008    8.101067    2.257089    0.415551
  48 H     1.0000    0     1.008    9.785002    5.655572    2.802842
  49 H     1.0000    0     1.008   10.859311    3.602007    5.323547
  50 H     1.0000    0     1.008   14.716242    3.803074    3.263368
  51 H     1.0000    0     1.008   13.285909    4.672915    0.284404
  52 H     1.0000    0     1.008   14.814886   -0.390039    1.961347
  53 H     1.0000    0     1.008   13.461653    0.563894   -1.026688
  54 H     1.0000    0     1.008   10.960978   -1.676943    3.556465
  55 H     1.0000    0     1.008    9.978510   -1.811869    0.279490
  56 H     1.0000    0     1.008    3.635266    3.231621    0.684648
  57 H     1.0000    0     1.008    0.542162    3.331965   -2.731221
  58 H     1.0000    0     1.008   -4.519091   -6.630671   -6.568877
  59 H     1.0000    0     1.008   -2.847817  -10.691315   -5.106229
  60 H     1.0000    0     1.008   -5.163110   -8.872264    2.510501
  61 H     1.0000    0     1.008   -6.845155   -4.830518    1.020830
  62 H     1.0000    0     1.008   -6.718165    7.901890   -4.906485
  63 H     1.0000    0     1.008   -7.529236   10.952286   -1.490994
  64 H     1.0000    0     1.008   -7.771310   11.929463    3.053231
  65 H     1.0000    0     1.008   -6.863296    8.626033    6.229671
  66 H     1.0000    0     1.008   -5.715666    4.353929    4.925004

--------------------------------
INTERNAL COORDINATES (ANGSTROEM)
--------------------------------
 C      0   0   0     0.000000000000     0.00000000     0.00000000
 C      1   0   0     1.512287806603     0.00000000     0.00000000
 C      2   1   0     1.415370530992   120.69611550     0.00000000
 N      3   2   1     1.432671975715   121.37862824     1.29856675
 C      4   3   2     1.464175812531   119.59850192   253.37210513
 C      5   4   3     1.504067352215   109.98060170    73.91486697
 C      6   5   4     1.402613567594   120.37337892    89.26374152
 C      7   6   5     1.396992143858   120.29829157   184.07224170
 C      8   7   6     1.399520292815   120.62814550     0.19511490
 O      9   8   7     1.404332136640   118.08521430   179.74783659
 C     10   9   8     1.428254280582   125.58149365   173.60580824
 C     11  10   9     1.538505251860   110.91962968   286.07110041
 C     12  11  10     1.522703129307   112.40351897   181.38270454
 C     13  12  11     1.523315492602   105.38993366   154.93553936
 C     14  13  12     1.528932369335   106.80374860   339.32950784
 C     12  11  10     1.524091171814   112.82897539   299.46696208
 C      9   8   7     1.408456705050   119.10004233     0.26017862
 C     17   9   8     1.397477420211   120.27985487   359.68895380
 S      4   3   2     1.736786120972   119.05575444    85.64303634
 O     19   4   3     1.503835426501   109.87406233   343.05078557
 O     19   4   3     1.502924529043   109.42653344   102.04938460
 C     19   4   3     1.761130548824   109.92658768   223.14203134
 C     22  19   4     1.400605886750   120.22501880   268.35530476
 C     23  22  19     1.397721900093   120.28241293   177.75391870
 C     24  23  22     1.406366772929   120.43547822     0.00000000
 C     25  24  23     1.479123436364   120.66743768   180.49317628
 O     26  25  24     1.259769272526   120.56942413     0.12364421
 O     26  25  24     1.390213199477   120.42685364   180.06609962
 C     25  24  23     1.405404404433   118.99753415     0.37863003
 C     29  25  24     1.397524014105   120.45130632   359.72121851
 N      3   2   1     1.358640460166   120.14512107   181.94076845
 C     31   3   2     1.354630255826   122.50606059   359.33184752
 C     32  31   3     1.396865312047   120.17144687   359.81084339
 C     33  32  31     1.403547010257   120.27586869   180.40262338
 C     34  33  32     1.395034125031   120.18724350   179.91377631
 C     35  34  33     1.394662719083   120.10849219   359.95930645
 C     36  35  34     1.397452972375   120.32099154     0.06981500
 C     37  36  35     1.412900760846   120.58902227     0.03813597
 H      1   2   3     1.110325078524   109.75560900   123.15767888
 H      1   2   3     1.110097657866   109.70599027   243.78073390
 H      1   2   3     1.105904417208   112.96487998     4.19848833
 H      5   4   3     1.110807548588   110.50830754   195.28133642
 H      5   4   3     1.111841967188   109.75728408   312.42221400
 H      7   6   5     1.081823594677   120.52992469     3.51865953
 H      8   7   6     1.082559605749   119.49821246   179.92674275
 H     11  10   9     1.110857839690   110.48086827    49.41645748
 H     11  10   9     1.111238025807   108.07147290   166.02052905
 H     12  11  10     1.112515289783   109.77889395    60.71071618
 H     13  12  11     1.111704434641   111.21328990   275.79190372
 H     13  12  11     1.113214121362   110.65845468    37.17158701
 H     14  13  12     1.111861776481   110.66161844   218.40387592
 H     14  13  12     1.112435998159   109.77595425    98.33334951
 H     15  14  13     1.111985481020   110.88999371   240.71970293
 H     15  14  13     1.112212452727   109.87456494   120.49154001
 H     16  12  11     1.113065308057   110.60341122   324.05362889
 H     16  12  11     1.111927497636   111.14677846    85.31595248
 H     17   9   8     1.080387004735   121.41421169   178.95934620
 H     18  17   9     1.083155219717   119.25889982   178.83700360
 H     23  22  19     1.082381490049   120.42681207   358.64201961
 H     24  23  22     1.082798439230   118.82239007   180.42942666
 H     29  25  24     1.082632245964   120.76935273   179.89622377
 H     30  29  25     1.082246344415   119.22081741   180.13020012
 H     32  31   3     1.083069466840   119.08775555   180.07881417
 H     34  33  32     1.083715506948   120.69791039   359.96217444
 H     35  34  33     1.082461204848   119.96501645   180.01077582
 H     36  35  34     1.082355038793   119.78081458   180.09780199
 H     37  36  35     1.081400527094   117.74902647   180.27674489

---------------------------
INTERNAL COORDINATES (A.U.)
---------------------------
 C      0   0   0     0.000000000000     0.00000000     0.00000000
 C      1   0   0     2.857809790148     0.00000000     0.00000000
 C      2   1   0     2.674662681597   120.69611550     0.00000000
 N      3   2   1     2.707357673846   121.37862824     1.29856675
 C      4   3   2     2.766891297595   119.59850192   253.37210513
 C      5   4   3     2.842275382659   109.98060170    73.91486697
 C      6   5   4     2.650555514476   120.37337892    89.26374152
 C      7   6   5     2.639932563130   120.29829157   184.07224170
 C      8   7   6     2.644710072285   120.62814550     0.19511490
 O      9   8   7     2.653803139314   118.08521430   179.74783659
 C     10   9   8     2.699009439900   125.58149365   173.60580824
 C     11  10   9     2.907353581614   110.91962968   286.07110041
 C     12  11  10     2.877491897654   112.40351897   181.38270454
 C     13  12  11     2.878649096576   105.38993366   154.93553936
 C     14  13  12     2.889263455330   106.80374860   339.32950784
 C     12  11  10     2.880114917855   112.82897539   299.46696208
 C      9   8   7     2.661597444029   119.10004233     0.26017862
 C     17   9   8     2.640849602538   120.27985487   359.68895380
 S      4   3   2     3.282050121832   119.05575444    85.64303634
 O     19   4   3     2.841837106576   109.87406233   343.05078557
 O     19   4   3     2.840115759844   109.42653344   102.04938460
 C     19   4   3     3.328054423359   109.92658768   223.14203134
 C     22  19   4     2.646761547516   120.22501880   268.35530476
 C     23  22  19     2.641311602560   120.28241293   177.75391870
 C     24  23  22     2.657648044683   120.43547822     0.00000000
 C     25  24  23     2.795138212992   120.66743768   180.49317628
 O     26  25  24     2.380618917003   120.56942413     0.12364421
 O     26  25  24     2.627122214774   120.42685364   180.06609962
 C     25  24  23     2.655829431785   118.99753415     0.37863003
 C     29  25  24     2.640937652237   120.45130632   359.72121851
 N      3   2   1     2.567458384178   120.14512107   181.94076845
 C     31   3   2     2.559880196235   122.50606059   359.33184752
 C     32  31   3     2.639692885743   120.17144687   359.81084339
 C     33  32  31     2.652319465469   120.27586869   180.40262338
 C     34  33  32     2.636232443782   120.18724350   179.91377631
 C     35  34  33     2.635530588257   120.10849219   359.95930645
 C     36  35  34     2.640803402823   120.32099154     0.06981500
 C     37  36  35     2.669995492408   120.58902227     0.03813597
 H      1   2   3     2.098210318036   109.75560900   123.15767888
 H      1   2   3     2.097780555275   109.70599027   243.78073390
 H      1   2   3     2.089856478817   112.96487998     4.19848833
 H      5   4   3     2.099122054324   110.50830754   195.28133642
 H      5   4   3     2.101076822185   109.75728408   312.42221400
 H      7   6   5     2.044350319154   120.52992469     3.51865953
 H      8   7   6     2.045741178512   119.49821246   179.92674275
 H     11  10   9     2.099217090733   110.48086827    49.41645748
 H     11  10   9     2.099935538375   108.07147290   166.02052905
 H     12  11  10     2.102349217489   109.77889395    60.71071618
 H     13  12  11     2.100816923337   111.21328990   275.79190372
 H     13  12  11     2.103669817788   110.65845468    37.17158701
 H     14  13  12     2.101114256325   110.66161844   218.40387592
 H     14  13  12     2.102199378036   109.77595425    98.33334951
 H     15  14  13     2.101348024025   110.88999371   240.71970293
 H     15  14  13     2.101776938390   109.87456494   120.49154001
 H     16  12  11     2.103388601396   110.60341122   324.05362889
 H     16  12  11     2.101238451309   111.14677846    85.31595248
 H     17   9   8     2.041635557596   121.41421169   178.95934620
 H     18  17   9     2.046866725792   119.25889982   178.83700360
 H     23  22  19     2.045404588618   120.42681207   358.64201961
 H     24  23  22     2.046192508383   118.82239007   180.42942666
 H     29  25  24     2.045878448623   120.76935273   179.89622377
 H     30  29  25     2.045149200382   119.22081741   180.13020012
 H     32  31   3     2.046704676339   119.08775555   180.07881417
 H     34  33  32     2.047925515216   120.69791039   359.96217444
 H     35  34  33     2.045555227756   119.96501645   180.01077582
 H     36  35  34     2.045354602988   119.78081458   180.09780199
 H     37  36  35     2.043550837286   117.74902647   180.27674489

---------------------
BASIS SET INFORMATION
---------------------
There are 5 groups of distinct atoms

 Group   1 Type C   : 10s4p1d contracted to 3s2p1d pattern {631/31/1}
 Group   2 Type N   : 10s4p1d contracted to 3s2p1d pattern {631/31/1}
 Group   3 Type O   : 10s4p1d contracted to 3s2p1d pattern {631/31/1}
 Group   4 Type S   : 16s10p1d contracted to 4s3p1d pattern {6631/631/1}
 Group   5 Type H   : 4s contracted to 2s pattern {31}

Atom   0C    basis set group =>   1
Atom   1C    basis set group =>   1
Atom   2C    basis set group =>   1
Atom   3N    basis set group =>   2
Atom   4C    basis set group =>   1
Atom   5C    basis set group =>   1
Atom   6C    basis set group =>   1
Atom   7C    basis set group =>   1
Atom   8C    basis set group =>   1
Atom   9O    basis set group =>   3
Atom  10C    basis set group =>   1
Atom  11C    basis set group =>   1
Atom  12C    basis set group =>   1
Atom  13C    basis set group =>   1
Atom  14C    basis set group =>   1
Atom  15C    basis set group =>   1
Atom  16C    basis set group =>   1
Atom  17C    basis set group =>   1
Atom  18S    basis set group =>   4
Atom  19O    basis set group =>   3
Atom  20O    basis set group =>   3
Atom  21C    basis set group =>   1
Atom  22C    basis set group =>   1
Atom  23C    basis set group =>   1
Atom  24C    basis set group =>   1
Atom  25C    basis set group =>   1
Atom  26O    basis set group =>   3
Atom  27O    basis set group =>   3
Atom  28C    basis set group =>   1
Atom  29C    basis set group =>   1
Atom  30N    basis set group =>   2
Atom  31C    basis set group =>   1
Atom  32C    basis set group =>   1
Atom  33C    basis set group =>   1
Atom  34C    basis set group =>   1
Atom  35C    basis set group =>   1
Atom  36C    basis set group =>   1
Atom  37C    basis set group =>   1
Atom  38H    basis set group =>   5
Atom  39H    basis set group =>   5
Atom  40H    basis set group =>   5
Atom  41H    basis set group =>   5
Atom  42H    basis set group =>   5
Atom  43H    basis set group =>   5
Atom  44H    basis set group =>   5
Atom  45H    basis set group =>   5
Atom  46H    basis set group =>   5
Atom  47H    basis set group =>   5
Atom  48H    basis set group =>   5
Atom  49H    basis set group =>   5
Atom  50H    basis set group =>   5
Atom  51H    basis set group =>   5
Atom  52H    basis set group =>   5
Atom  53H    basis set group =>   5
Atom  54H    basis set group =>   5
Atom  55H    basis set group =>   5
Atom  56H    basis set group =>   5
Atom  57H    basis set group =>   5
Atom  58H    basis set group =>   5
Atom  59H    basis set group =>   5
Atom  60H    basis set group =>   5
Atom  61H    basis set group =>   5
Atom  62H    basis set group =>   5
Atom  63H    basis set group =>   5
Atom  64H    basis set group =>   5
Atom  65H    basis set group =>   5
Atom  66H    basis set group =>   5
---------------------------------
AUXILIARY/J BASIS SET INFORMATION
---------------------------------
There are 5 groups of distinct atoms

 Group   1 Type C   : 12s5p4d2f1g contracted to 6s4p3d1f1g pattern {711111/2111/211/2/1}
 Group   2 Type N   : 12s5p4d2f1g contracted to 6s4p3d1f1g pattern {711111/2111/211/2/1}
 Group   3 Type O   : 12s5p4d2f1g contracted to 6s4p3d1f1g pattern {711111/2111/211/2/1}
 Group   4 Type S   : 14s5p5d2f1g contracted to 8s4p3d1f1g pattern {71111111/2111/311/2/1}
 Group   5 Type H   : 5s2p1d contracted to 3s1p1d pattern {311/2/1}

Atom   0C    basis set group =>   1
Atom   1C    basis set group =>   1
Atom   2C    basis set group =>   1
Atom   3N    basis set group =>   2
Atom   4C    basis set group =>   1
Atom   5C    basis set group =>   1
Atom   6C    basis set group =>   1
Atom   7C    basis set group =>   1
Atom   8C    basis set group =>   1
Atom   9O    basis set group =>   3
Atom  10C    basis set group =>   1
Atom  11C    basis set group =>   1
Atom  12C    basis set group =>   1
Atom  13C    basis set group =>   1
Atom  14C    basis set group =>   1
Atom  15C    basis set group =>   1
Atom  16C    basis set group =>   1
Atom  17C    basis set group =>   1
Atom  18S    basis set group =>   4
Atom  19O    basis set group =>   3
Atom  20O    basis set group =>   3
Atom  21C    basis set group =>   1
Atom  22C    basis set group =>   1
Atom  23C    basis set group =>   1
Atom  24C    basis set group =>   1
Atom  25C    basis set group =>   1
Atom  26O    basis set group =>   3
Atom  27O    basis set group =>   3
Atom  28C    basis set group =>   1
Atom  29C    basis set group =>   1
Atom  30N    basis set group =>   2
Atom  31C    basis set group =>   1
Atom  32C    basis set group =>   1
Atom  33C    basis set group =>   1
Atom  34C    basis set group =>   1
Atom  35C    basis set group =>   1
Atom  36C    basis set group =>   1
Atom  37C    basis set group =>   1
Atom  38H    basis set group =>   5
Atom  39H    basis set group =>   5
Atom  40H    basis set group =>   5
Atom  41H    basis set group =>   5
Atom  42H    basis set group =>   5
Atom  43H    basis set group =>   5
Atom  44H    basis set group =>   5
Atom  45H    basis set group =>   5
Atom  46H    basis set group =>   5
Atom  47H    basis set group =>   5
Atom  48H    basis set group =>   5
Atom  49H    basis set group =>   5
Atom  50H    basis set group =>   5
Atom  51H    basis set group =>   5
Atom  52H    basis set group =>   5
Atom  53H    basis set group =>   5
Atom  54H    basis set group =>   5
Atom  55H    basis set group =>   5
Atom  56H    basis set group =>   5
Atom  57H    basis set group =>   5
Atom  58H    basis set group =>   5
Atom  59H    basis set group =>   5
Atom  60H    basis set group =>   5
Atom  61H    basis set group =>   5
Atom  62H    basis set group =>   5
Atom  63H    basis set group =>   5
Atom  64H    basis set group =>   5
Atom  65H    basis set group =>   5
Atom  66H    basis set group =>   5
------------------------------------------------------------------------------
                             ORCA STARTUP CALCULATIONS
                           -- RI-GTO INTEGRALS CHOSEN --
------------------------------------------------------------------------------
------------------------------------------------------------------------------
                   ___                                                        
                  /   \      - P O W E R E D   B Y -                         
                 /     \                                                     
                 |  |  |   _    _      __       _____    __    __             
                 |  |  |  | |  | |    /  \     |  _  \  |  |  /  |          
                  \  \/   | |  | |   /    \    | | | |  |  | /  /          
                 / \  \   | |__| |  /  /\  \   | |_| |  |  |/  /          
                |  |  |   |  __  | /  /__\  \  |    /   |      \           
                |  |  |   | |  | | |   __   |  |    \   |  |\   \          
                \     /   | |  | | |  |  |  |  | |\  \  |  | \   \       
                 \___/    |_|  |_| |__|  |__|  |_| \__\ |__|  \__/        
                                                                              
                      - O R C A' S   B I G   F R I E N D -                    
                                      &                                       
                       - I N T E G R A L  F E E D E R -                       
                                                                              
 v1 FN, 2020, v2 2021, v3 2022-2024                                           
------------------------------------------------------------------------------


----------------------
SHARK INTEGRAL PACKAGE
----------------------

Number of atoms                             ...     67
Number of basis functions                   ...    594
Number of shells                            ...    288
Maximum angular momentum                    ...      2
Integral batch strategy                     ... SHARK/LIBINT Hybrid
RI-J (if used) integral strategy            ... SPLIT-RIJ (Revised 2003 algorithm where possible)
Printlevel                                  ...      1
Contraction scheme used                     ... SEGMENTED contraction
Prescreening option                         ... SCHWARTZ
   Thresh                                   ... 1.000e-10
   Tcut                                     ... 1.000e-11
   Tpresel                                  ... 1.000e-11 
Coulomb Range Separation                    ... NOT USED
Exchange Range Separation                   ... NOT USED
Multipole approximations                    ... NOT USED
Finite Nucleus Model                        ... NOT USED
CABS basis                                  ... NOT available
Auxiliary Coulomb fitting basis             ... AVAILABLE
   # of basis functions in Aux-J            ...   2183
   # of shells in Aux-J                     ...    717
   Maximum angular momentum in Aux-J        ...      4
Auxiliary J/K fitting basis                 ... NOT available
Auxiliary Correlation fitting basis         ... NOT available
Auxiliary 'external' fitting basis          ... NOT available

Checking pre-screening integrals            ... done (  0.0 sec) Dimension = 288
Check shell pair data                       ... done (  0.0 sec)
Shell pair information
Shell pair cut-off parameter TPreSel        ...   1.0e-11
Total number of shell pairs                 ...     41616
Shell pairs after pre-screening             ...     20941
Total number of primitive shell pairs       ...    244866
Primitive shell pairs kept                  ...     62780
          la=0 lb=0:   7105 shell pairs
          la=1 lb=0:   7356 shell pairs
          la=1 lb=1:   1940 shell pairs
          la=2 lb=0:   2741 shell pairs
          la=2 lb=1:   1522 shell pairs
          la=2 lb=2:    277 shell pairs

Calculating one electron integrals          ... done (  0.4 sec)
Calculating RI/J V-Matrix + Cholesky decomp.... done (  0.6 sec)
Calculating Nuclear repulsion               ... done (  0.0 sec) ENN=   4311.274457687829 Eh

Diagonalization of the overlap matrix:
Smallest eigenvalue                        ... 3.537e-04
Time for diagonalization                   ...    0.073 sec
Threshold for overlap eigenvalues          ... 1.000e-07
Number of eigenvalues below threshold      ... 0
Time for construction of square roots      ...    0.045 sec
Total time needed                          ...    0.127 sec

-------------------
DFT GRID GENERATION
-------------------

General Integration Accuracy     IntAcc      ... 4.388
Radial Grid Type                 RadialGrid  ... OptM3 with GC (2021)
Angular Grid (max. ang.)         AngularGrid ... 4 (Lebedev-302)
Angular grid pruning method      GridPruning ... 4 (adaptive)
Weight generation scheme         WeightScheme... mBecke (2022)
Basis function cutoff            BFCut       ... 1.0000e-10
Integration weight cutoff        WCut        ... 1.0000e-14
Partially contracted basis set               ... off
Rotationally invariant grid construction     ... off
Angular grids for H and He will be reduced by one unit

Total number of grid points                  ...   319119
Total number of batches                      ...     5019
Average number of points per batch           ...       63
Average number of grid points per atom       ...     4763

--------------------
COSX GRID GENERATION
--------------------

GRIDX 1
-------
General Integration Accuracy     IntAcc      ... 3.816
Radial Grid Type                 RadialGrid  ... OptM3 with GC (2021)
Angular Grid (max. ang.)         AngularGrid ... 1 (Lebedev-50)
Angular grid pruning method      GridPruning ... 4 (adaptive)
Weight generation scheme         WeightScheme... mBecke (2022)
Basis function cutoff            BFCut       ... 1.0000e-10
Integration weight cutoff        WCut        ... 1.0000e-14
Partially contracted basis set               ... on
Rotationally invariant grid construction     ... off
Angular grids for H and He will be reduced by one unit

Total number of grid points                  ...    41406
Total number of batches                      ...      365
Average number of points per batch           ...      113
Average number of grid points per atom       ...      618
UseSFitting                                  ... on

GRIDX 2
-------
General Integration Accuracy     IntAcc      ... 4.020
Radial Grid Type                 RadialGrid  ... OptM3 with GC (2021)
Angular Grid (max. ang.)         AngularGrid ... 2 (Lebedev-110)
Angular grid pruning method      GridPruning ... 4 (adaptive)
Weight generation scheme         WeightScheme... mBecke (2022)
Basis function cutoff            BFCut       ... 1.0000e-10
Integration weight cutoff        WCut        ... 1.0000e-14
Partially contracted basis set               ... on
Rotationally invariant grid construction     ... off
Angular grids for H and He will be reduced by one unit

Total number of grid points                  ...    87186
Total number of batches                      ...      716
Average number of points per batch           ...      121
Average number of grid points per atom       ...     1301
UseSFitting                                  ... on

GRIDX 3
-------
General Integration Accuracy     IntAcc      ... 4.338
Radial Grid Type                 RadialGrid  ... OptM3 with GC (2021)
Angular Grid (max. ang.)         AngularGrid ... 3 (Lebedev-194)
Angular grid pruning method      GridPruning ... 4 (adaptive)
Weight generation scheme         WeightScheme... mBecke (2022)
Basis function cutoff            BFCut       ... 1.0000e-10
Integration weight cutoff        WCut        ... 1.0000e-14
Partially contracted basis set               ... on
Rotationally invariant grid construction     ... off
Angular grids for H and He will be reduced by one unit

Total number of grid points                  ...   190591
Total number of batches                      ...     1523
Average number of points per batch           ...      125
Average number of grid points per atom       ...     2845
UseSFitting                                  ... on
Initializing property integral containers    ... done (  0.0 sec)

SHARK setup successfully completed in  18.0 seconds

Maximum memory used throughout the entire STARTUP-calculation: 139.7 MB
-------------------------------------------------------------------------------
                                 ORCA GUESS
                   Start orbitals & Density for SCF / CASSCF
-------------------------------------------------------------------------------

------------
SCF SETTINGS
------------
Hamiltonian:
 Density Functional     Method          .... DFT(GTOs)
 Exchange Functional    Exchange        .... B88
   X-Alpha parameter    XAlpha          ....  0.666667
   Becke's b parameter  XBeta           ....  0.004200
 Correlation Functional Correlation     .... LYP
 LDA part of GGA corr.  LDAOpt          .... VWN-5
 Gradients option       PostSCFGGA      .... off
 Hybrid DFT is turned on
   Fraction HF Exchange ScalHFX         ....  0.200000
   Scaling of DF-GGA-X  ScalDFX         ....  0.720000
   Scaling of DF-GGA-C  ScalDFC         ....  0.810000
   Scaling of DF-LDA-C  ScalLDAC        ....  1.000000
   Perturbative correction              ....  0.000000
   NL short-range parameter             ....  4.800000
 RI-approximation to the Coulomb term is turned on
   Number of AuxJ basis functions       .... 2183
   RIJ-COSX (HFX calculated with COS-X)).... on


General Settings:
 Integral files         IntName         .... /home/nmrbox/aojoawo/Documents/ERDOS/inputs/CHEMBL3682561
 Hartree-Fock type      HFTyp           .... RHF
 Total Charge           Charge          ....   -1
 Multiplicity           Mult            ....    1
 Number of Electrons    NEL             ....  280
 Basis Dimension        Dim             ....  594
 Nuclear Repulsion      ENuc            ....   4311.2744576878 Eh

Convergence Acceleration:
 AO-DIIS                CNVDIIS         .... on
   Start iteration      DIISMaxIt       ....    12
   Startup error        DIISStart       ....  0.200000
   # of expansion vecs  DIISMaxEq       ....     5
   Bias factor          DIISBfac        ....   1.050
   Max. coefficient     DIISMaxC        ....  10.000
 MO-DIIS                CNVKDIIS        .... off
 Trust-Rad. Augm. Hess. CNVTRAH         .... auto
   Auto Start mean grad. ratio tolernc. ....  1.125000
   Auto Start start iteration           ....    50
   Auto Start num. interpolation iter.  ....    10
   Max. Number of Micro iterations      ....    24
   Max. Number of Macro iterations      .... Maxiter - #DIIS iter
   Number of Davidson start vectors     ....     2
   Converg. threshold    (grad. norm)   ....   5.000e-05
   Grad. Scal. Fac. for Micro threshold ....   0.100
   Minimum threshold for Micro iter.    ....   1.000e-02
   NR start threshold (gradient norm)   ....   1.000e-04
   Initial trust radius                 ....   0.400
   Minimum AH scaling param. (alpha)    ....   1.000
   Maximum AH scaling param. (alpha)    .... 1000.000
   Quad. conv. algorithm                .... NR
   White noise on init. David. guess    .... on
   Maximum white noise                  ....   0.010
   Pseudo random numbers                .... off
   Inactive MOs                         .... canonical
   Orbital update algorithm             .... Taylor
   Preconditioner                       .... Diag
   Full preconditioner red. dimension   ....   250
 SOSCF                  CNVSOSCF        .... on
   Start iteration      SOSCFMaxIt      ....   150
   Startup grad/error   SOSCFStart      ....  0.003300
   Hessian update       SOSCFHessUp     .... L-BFGS
 Level Shifting         CNVShift        .... on
   Level shift para.    LevelShift      ....    0.2500
   Turn off err/grad.   ShiftErr        ....    0.0010
 Zerner damping         CNVZerner       .... off
 Static damping         CNVDamp         .... on
   Fraction old density DampFac         ....    0.7000
   Max. Damping (<1)    DampMax         ....    0.9800
   Min. Damping (>=0)   DampMin         ....    0.0000
   Turn off err/grad.   DampErr         ....    0.1000

SCF Procedure:
 Maximum # iterations   MaxIter         ....   125
 SCF integral mode      SCFMode         .... Direct
   Integral package                     .... SHARK and LIBINT hybrid scheme
 Reset frequency        DirectResetFreq ....    20
 Integral Threshold     Thresh          ....  1.000e-10 Eh
 Primitive CutOff       TCut            ....  1.000e-11 Eh

Convergence Tolerance:
 Convergence Check Mode ConvCheckMode   .... Total+1el-Energy
 Convergence forced     ConvForced      .... 0
 Energy Change          TolE            ....  1.000e-06 Eh
 1-El. energy change                    ....  1.000e-03 Eh
 Orbital Gradient       TolG            ....  5.000e-05
 Orbital Rotation angle TolX            ....  5.000e-05
 DIIS Error             TolErr          ....  1.000e-06

------------------------------
INITIAL GUESS: MODEL POTENTIAL
------------------------------
Loading Hartree-Fock densities                     ... done
Calculating cut-offs                               ... done
Initializing the effective Hamiltonian             ... done
Setting up the integral package (SHARK)            ... done
Starting the Coulomb interaction                   ... done (   5.5 sec)
Making the grid                                    ... done (   2.0 sec)
Mapping shells                                     ... done
Starting the XC term evaluation                    ... done (   1.4 sec)
  promolecular density results
     # of electrons  =    278.982080167
     EX              =   -242.010071690
     EC              =     -9.641438884
     EX+EC           =   -251.651510574
Transforming the Hamiltonian                       ... done (   0.0 sec)
Diagonalizing the Hamiltonian                      ... done (   0.1 sec)
Back transforming the eigenvectors                 ... done (   0.0 sec)
Now organizing SCF variables                       ... done
                      ------------------
                      INITIAL GUESS DONE (   9.1 sec)
                      ------------------
             **** ENERGY FILE WAS UPDATED (/home/nmrbox/aojoawo/Documents/ERDOS/inputs/CHEMBL3682561.en.tmp) ****
Finished Guess after   9.4 sec
Maximum memory used throughout the entire GUESS-calculation: 76.0 MB

-------------------------------------------------------------------------------------------
                                      ORCA LEAN-SCF
                              memory conserving SCF solver
-------------------------------------------------------------------------------------------

----------------------------------------D-I-I-S--------------------------------------------
Iteration    Energy (Eh)           Delta-E    RMSDP     MaxDP     DIISErr   Damp  Time(sec)
-------------------------------------------------------------------------------------------
               ***  Starting incremental Fock matrix formation  ***
    1    -2042.1634575937723639     0.00e+00  2.53e-03  1.87e-01  3.25e-01  0.700  83.2
Warning: op=0 Small HOMO/LUMO gap (  -0.046) - skipping pre-diagonalization
         Will do a full diagonalization
    2    -2042.7228915378364036    -5.59e-01  1.59e-03  9.80e-02  1.21e-01  0.700  37.3
                               ***Turning on AO-DIIS***
    3    -2042.9307174198556822    -2.08e-01  6.34e-04  1.87e-02  3.52e-02  0.700  38.5
    4    -2043.0577531908202218    -1.27e-01  1.05e-03  2.66e-02  1.74e-02  0.000  34.4
    5    -2043.3406673202580350    -2.83e-01  2.57e-04  1.17e-02  7.71e-03  0.000  36.3
                              *** Initializing SOSCF ***
---------------------------------------S-O-S-C-F--------------------------------------
Iteration    Energy (Eh)           Delta-E    RMSDP     MaxDP     MaxGrad    Time(sec)
--------------------------------------------------------------------------------------
    6    -2043.3425674314366915    -1.90e-03  9.08e-05  3.67e-03  2.66e-03    31.4
               *** Restarting incremental Fock matrix formation ***
    7    -2043.3427261440565417    -1.59e-04  8.05e-05  3.63e-03  1.04e-03    87.3
    8    -2043.3427122563434750     1.39e-05  4.56e-05  2.20e-03  1.08e-03    49.0
    9    -2043.3428026079109259    -9.04e-05  1.95e-05  1.13e-03  2.65e-04    43.9
   10    -2043.3428008408736787     1.77e-06  1.12e-05  9.22e-04  3.41e-04    39.0
   11    -2043.3428073463328474    -6.51e-06  6.87e-06  3.50e-04  6.20e-05    32.9
   12    -2043.3428072181450261     1.28e-07  3.80e-06  2.23e-04  1.30e-04    31.7
                 **** Energy Check signals convergence ****

               *****************************************************
               *                     SUCCESS                       *
               *           SCF CONVERGED AFTER  12 CYCLES          *
               *****************************************************

Recomputing exchange energy using gridx3       ... done (  151.367 sec)
Old exchange energy                            :    -49.115434048 Eh
New exchange energy                            :    -49.115472468 Eh
Exchange energy change after final integration :     -0.000038420 Eh
Total energy after final integration           :  -2043.342845638 Eh
             **** ENERGY FILE WAS UPDATED (/home/nmrbox/aojoawo/Documents/ERDOS/inputs/CHEMBL3682561.en.tmp) ****

----------------
TOTAL SCF ENERGY
----------------

Total Energy       :      -2043.34284563811798 Eh          -55602.18559 eV

Components:
Nuclear Repulsion  :       4311.27445768782854 Eh          117315.74221 eV
Electronic Energy  :      -6354.61726490597357 Eh         -172917.92676 eV
One Electron Energy:     -11394.33244804801325 Eh         -310055.54883 eV
Two Electron Energy:       5039.71518314203968 Eh          137137.62208 eV

Virial components:
Potential Energy   :      -4075.35325011198802 Eh         -110895.99978 eV
Kinetic Energy     :       2032.01040447386981 Eh           55293.81419 eV
Virial Ratio       :          2.00557696020616

DFT components:
N(Alpha)           :      139.999865855378 electrons
N(Beta)            :      139.999865855378 electrons
N(Total)           :      279.999731710755 electrons
E(X)               :     -195.111326582450 Eh       
E(C)               :      -11.372249194483 Eh       
E(XC)              :     -206.483575776932 Eh       

---------------
SCF CONVERGENCE
---------------

  Last Energy change         ...   -1.2819e-07  Tolerance :   1.0000e-06
  Last MAX-Density change    ...    2.2301e-04  Tolerance :   1.0000e-05
  Last RMS-Density change    ...    3.8034e-06  Tolerance :   1.0000e-06
  Last DIIS Error            ...    2.6560e-03  Tolerance :   1.0000e-06
  Last Orbital Gradient      ...    1.2952e-04  Tolerance :   5.0000e-05
  Last Orbital Rotation      ...    2.5005e-04  Tolerance :   5.0000e-05


----------------
ORBITAL ENERGIES
----------------

  NO   OCC          E(Eh)            E(eV) 
   0   2.0000     -88.996436     -2421.7161 
   1   2.0000     -19.096678      -519.6470 
   2   2.0000     -19.026966      -517.7501 
   3   2.0000     -19.022438      -517.6269 
   4   2.0000     -18.908331      -514.5218 
   5   2.0000     -18.887719      -513.9610 
   6   2.0000     -14.276515      -388.4837 
   7   2.0000     -14.258810      -388.0019 
   8   2.0000     -10.182561      -277.0816 
   9   2.0000     -10.178523      -276.9717 
  10   2.0000     -10.177669      -276.9484 
  11   2.0000     -10.154437      -276.3163 
  12   2.0000     -10.147096      -276.1165 
  13   2.0000     -10.137668      -275.8600 
  14   2.0000     -10.135349      -275.7969 
  15   2.0000     -10.135118      -275.7906 
  16   2.0000     -10.134981      -275.7869 
  17   2.0000     -10.134121      -275.7635 
  18   2.0000     -10.133210      -275.7387 
  19   2.0000     -10.131611      -275.6952 
  20   2.0000     -10.125467      -275.5280 
  21   2.0000     -10.124858      -275.5114 
  22   2.0000     -10.123604      -275.4773 
  23   2.0000     -10.119573      -275.3676 
  24   2.0000     -10.117777      -275.3187 
  25   2.0000     -10.114879      -275.2399 
  26   2.0000     -10.114781      -275.2372 
  27   2.0000     -10.114167      -275.2205 
  28   2.0000     -10.110701      -275.1262 
  29   2.0000     -10.108047      -275.0539 
  30   2.0000     -10.106741      -275.0184 
  31   2.0000     -10.102120      -274.8927 
  32   2.0000     -10.096612      -274.7428 
  33   2.0000     -10.094315      -274.6803 
  34   2.0000     -10.093665      -274.6626 
  35   2.0000     -10.077801      -274.2309 
  36   2.0000     -10.076712      -274.2013 
  37   2.0000     -10.075243      -274.1613 
  38   2.0000      -8.032208      -218.5675 
  39   2.0000      -5.997533      -163.2012 
  40   2.0000      -5.995280      -163.1399 
  41   2.0000      -5.994454      -163.1174 
  42   2.0000      -0.983406       -26.7598 
  43   2.0000      -0.975913       -26.5559 
  44   2.0000      -0.881895       -23.9976 
  45   2.0000      -0.862203       -23.4617 
  46   2.0000      -0.833699       -22.6861 
  47   2.0000      -0.817812       -22.2538 
  48   2.0000      -0.797812       -21.7096 
  49   2.0000      -0.790905       -21.5216 
  50   2.0000      -0.776944       -21.1417 
  51   2.0000      -0.758717       -20.6457 
  52   2.0000      -0.736225       -20.0337 
  53   2.0000      -0.711219       -19.3533 
  54   2.0000      -0.702820       -19.1247 
  55   2.0000      -0.698728       -19.0133 
  56   2.0000      -0.681591       -18.5470 
  57   2.0000      -0.674290       -18.3484 
  58   2.0000      -0.672883       -18.3101 
  59   2.0000      -0.662721       -18.0336 
  60   2.0000      -0.657613       -17.8946 
  61   2.0000      -0.645924       -17.5765 
  62   2.0000      -0.626807       -17.0563 
  63   2.0000      -0.618131       -16.8202 
  64   2.0000      -0.588325       -16.0091 
  65   2.0000      -0.583307       -15.8726 
  66   2.0000      -0.576778       -15.6949 
  67   2.0000      -0.542341       -14.7578 
  68   2.0000      -0.539558       -14.6821 
  69   2.0000      -0.526724       -14.3329 
  70   2.0000      -0.514716       -14.0061 
  71   2.0000      -0.508382       -13.8338 
  72   2.0000      -0.503729       -13.7072 
  73   2.0000      -0.499646       -13.5961 
  74   2.0000      -0.497556       -13.5392 
  75   2.0000      -0.465342       -12.6626 
  76   2.0000      -0.456556       -12.4235 
  77   2.0000      -0.451547       -12.2872 
  78   2.0000      -0.436968       -11.8905 
  79   2.0000      -0.435159       -11.8413 
  80   2.0000      -0.434283       -11.8174 
  81   2.0000      -0.419801       -11.4234 
  82   2.0000      -0.418954       -11.4003 
  83   2.0000      -0.412608       -11.2276 
  84   2.0000      -0.405889       -11.0448 
  85   2.0000      -0.395581       -10.7643 
  86   2.0000      -0.385095       -10.4790 
  87   2.0000      -0.382638       -10.4121 
  88   2.0000      -0.380169       -10.3449 
  89   2.0000      -0.369754       -10.0615 
  90   2.0000      -0.366780        -9.9806 
  91   2.0000      -0.366275        -9.9668 
  92   2.0000      -0.362761        -9.8712 
  93   2.0000      -0.358272        -9.7491 
  94   2.0000      -0.354187        -9.6379 
  95   2.0000      -0.349801        -9.5186 
  96   2.0000      -0.347958        -9.4684 
  97   2.0000      -0.338818        -9.2197 
  98   2.0000      -0.335160        -9.1202 
  99   2.0000      -0.329216        -8.9584 
 100   2.0000      -0.325879        -8.8676 
 101   2.0000      -0.323310        -8.7977 
 102   2.0000      -0.320040        -8.7087 
 103   2.0000      -0.314758        -8.5650 
 104   2.0000      -0.311595        -8.4789 
 105   2.0000      -0.300554        -8.1785 
 106   2.0000      -0.296609        -8.0711 
 107   2.0000      -0.292986        -7.9726 
 108   2.0000      -0.291542        -7.9333 
 109   2.0000      -0.285958        -7.7813 
 110   2.0000      -0.284878        -7.7519 
 111   2.0000      -0.283406        -7.7119 
 112   2.0000      -0.280875        -7.6430 
 113   2.0000      -0.279381        -7.6023 
 114   2.0000      -0.276230        -7.5166 
 115   2.0000      -0.271643        -7.3918 
 116   2.0000      -0.265945        -7.2367 
 117   2.0000      -0.260813        -7.0971 
 118   2.0000      -0.246590        -6.7101 
 119   2.0000      -0.241184        -6.5630 
 120   2.0000      -0.237687        -6.4678 
 121   2.0000      -0.230557        -6.2738 
 122   2.0000      -0.228830        -6.2268 
 123   2.0000      -0.221945        -6.0394 
 124   2.0000      -0.213185        -5.8011 
 125   2.0000      -0.202652        -5.5144 
 126   2.0000      -0.200992        -5.4693 
 127   2.0000      -0.194608        -5.2956 
 128   2.0000      -0.187545        -5.1034 
 129   2.0000      -0.180237        -4.9045 
 130   2.0000      -0.179179        -4.8757 
 131   2.0000      -0.176832        -4.8118 
 132   2.0000      -0.165290        -4.4978 
 133   2.0000      -0.152819        -4.1584 
 134   2.0000      -0.149337        -4.0637 
 135   2.0000      -0.143403        -3.9022 
 136   2.0000      -0.131879        -3.5886 
 137   2.0000      -0.062532        -1.7016 
 138   2.0000      -0.040798        -1.1102 
 139   2.0000      -0.024190        -0.6582 
 140   0.0000       0.006650         0.1810 
 141   0.0000       0.036185         0.9847 
 142   0.0000       0.062965         1.7134 
 143   0.0000       0.068193         1.8556 
 144   0.0000       0.076689         2.0868 
 145   0.0000       0.087951         2.3933 
 146   0.0000       0.096810         2.6343 
 147   0.0000       0.120051         3.2668 
 148   0.0000       0.124821         3.3965 
 149   0.0000       0.134442         3.6583 
 150   0.0000       0.150302         4.0899 
*Only the first 10 virtual orbitals were printed.

                    ********************************
                    * MULLIKEN POPULATION ANALYSIS *
                    ********************************

-----------------------
MULLIKEN ATOMIC CHARGES
-----------------------
   0 C :   -0.542771
   1 C :    0.126684
   2 C :    0.326626
   3 N :   -0.606259
   4 C :   -0.242268
   5 C :    0.158912
   6 C :   -0.177897
   7 C :   -0.184951
   8 C :    0.364631
   9 O :   -0.525961
  10 C :   -0.019826
  11 C :   -0.103785
  12 C :   -0.272388
  13 C :   -0.260402
  14 C :   -0.265196
  15 C :   -0.258888
  16 C :   -0.205944
  17 C :   -0.174620
  18 S :    1.186664
  19 O :   -0.569644
  20 O :   -0.548890
  21 C :   -0.152381
  22 C :   -0.161999
  23 C :   -0.161011
  24 C :    0.104032
  25 C :    0.411072
  26 O :   -0.550741
  27 O :   -0.656005
  28 C :   -0.153224
  29 C :   -0.150334
  30 N :   -0.379179
  31 C :   -0.062326
  32 C :    0.140106
  33 C :   -0.205178
  34 C :   -0.129089
  35 C :   -0.124747
  36 C :   -0.194753
  37 C :    0.114817
  38 H :    0.151764
  39 H :    0.165284
  40 H :    0.194681
  41 H :    0.173880
  42 H :    0.162543
  43 H :    0.171157
  44 H :    0.157656
  45 H :    0.125040
  46 H :    0.140614
  47 H :    0.136149
  48 H :    0.128390
  49 H :    0.121094
  50 H :    0.125013
  51 H :    0.128251
  52 H :    0.127739
  53 H :    0.131279
  54 H :    0.128298
  55 H :    0.152354
  56 H :    0.119421
  57 H :    0.126656
  58 H :    0.146898
  59 H :    0.148459
  60 H :    0.154187
  61 H :    0.147481
  62 H :    0.137438
  63 H :    0.125099
  64 H :    0.118301
  65 H :    0.123025
  66 H :    0.138962
Sum of atomic charges:   -1.0000000

--------------------------------
MULLIKEN REDUCED ORBITAL CHARGES
--------------------------------
  0 C s       :     3.321132  s :     3.321132
      pz      :     1.071135  p :     3.187637
      px      :     1.053649
      py      :     1.062853
      dz2     :     0.001997  d :     0.034002
      dxz     :     0.010901
      dyz     :     0.008955
      dx2y2   :     0.007154
      dxy     :     0.004996

  1 C s       :     3.181169  s :     3.181169
      pz      :     0.858953  p :     2.652299
      px      :     0.923562
      py      :     0.869784
      dz2     :     0.010803  d :     0.039848
      dxz     :     0.006696
      dyz     :     0.010839
      dx2y2   :     0.005940
      dxy     :     0.005570

  2 C s       :     3.048267  s :     3.048267
      pz      :     0.876721  p :     2.550720
      px      :     0.978773
      py      :     0.695226
      dz2     :     0.020196  d :     0.074387
      dxz     :     0.008230
      dyz     :     0.025776
      dx2y2   :     0.010827
      dxy     :     0.009358

  3 N s       :     3.588743  s :     3.588743
      pz      :     1.629400  p :     3.984851
      px      :     1.165365
      py      :     1.190087
      dz2     :     0.003816  d :     0.032665
      dxz     :     0.005733
      dyz     :     0.004468
      dx2y2   :     0.007663
      dxy     :     0.010985

  4 C s       :     3.263499  s :     3.263499
      pz      :     0.982249  p :     2.923117
      px      :     0.823850
      py      :     1.117018
      dz2     :     0.006906  d :     0.055653
      dxz     :     0.015744
      dyz     :     0.012322
      dx2y2   :     0.015296
      dxy     :     0.005386

  5 C s       :     3.113954  s :     3.113954
      pz      :     0.909438  p :     2.687341
      px      :     0.916455
      py      :     0.861448
      dz2     :     0.005675  d :     0.039793
      dxz     :     0.005949
      dyz     :     0.010153
      dx2y2   :     0.008903
      dxy     :     0.009113

  6 C s       :     3.210530  s :     3.210530
      pz      :     0.963182  p :     2.930796
      px      :     0.977490
      py      :     0.990124
      dz2     :     0.007348  d :     0.036571
      dxz     :     0.005090
      dyz     :     0.008219
      dx2y2   :     0.007592
      dxy     :     0.008322

  7 C s       :     3.204964  s :     3.204964
      pz      :     0.993403  p :     2.945663
      px      :     0.999413
      py      :     0.952847
      dz2     :     0.005689  d :     0.034324
      dxz     :     0.004459
      dyz     :     0.009260
      dx2y2   :     0.007525
      dxy     :     0.007391

  8 C s       :     3.079407  s :     3.079407
      pz      :     0.787212  p :     2.489466
      px      :     0.819717
      py      :     0.882536
      dz2     :     0.015131  d :     0.066497
      dxz     :     0.012501
      dyz     :     0.013289
      dx2y2   :     0.013316
      dxy     :     0.012260

  9 O s       :     3.872437  s :     3.872437
      pz      :     1.531406  p :     4.627412
      px      :     1.521728
      py      :     1.574277
      dz2     :     0.005690  d :     0.026112
      dxz     :     0.005502
      dyz     :     0.004402
      dx2y2   :     0.004939
      dxy     :     0.005579

 10 C s       :     3.200883  s :     3.200883
      pz      :     0.981606  p :     2.754381
      px      :     0.910476
      py      :     0.862299
      dz2     :     0.011972  d :     0.064562
      dxz     :     0.012381
      dyz     :     0.010448
      dx2y2   :     0.009883
      dxy     :     0.019879

 11 C s       :     3.210228  s :     3.210228
      pz      :     0.986531  p :     2.848906
      px      :     0.933498
      py      :     0.928877
      dz2     :     0.008529  d :     0.044652
      dxz     :     0.010436
      dyz     :     0.007345
      dx2y2   :     0.007134
      dxy     :     0.011208

 12 C s       :     3.249388  s :     3.249388
      pz      :     1.015949  p :     2.982591
      px      :     0.953966
      py      :     1.012676
      dz2     :     0.012691  d :     0.040410
      dxz     :     0.006204
      dyz     :     0.003294
      dx2y2   :     0.008781
      dxy     :     0.009440

 13 C s       :     3.241771  s :     3.241771
      pz      :     1.019845  p :     2.978713
      px      :     0.981696
      py      :     0.977172
      dz2     :     0.004868  d :     0.039917
      dxz     :     0.009373
      dyz     :     0.010000
      dx2y2   :     0.010302
      dxy     :     0.005374

 14 C s       :     3.243048  s :     3.243048
      pz      :     1.042107  p :     2.982394
      px      :     0.995364
      py      :     0.944923
      dz2     :     0.011133  d :     0.039755
      dxz     :     0.005429
      dyz     :     0.005429
      dx2y2   :     0.008428
      dxy     :     0.009335

 15 C s       :     3.251677  s :     3.251677
      pz      :     1.056560  p :     2.967329
      px      :     0.930086
      py      :     0.980684
      dz2     :     0.006201  d :     0.039881
      dxz     :     0.005606
      dyz     :     0.011899
      dx2y2   :     0.006522
      dxy     :     0.009655

 16 C s       :     3.181142  s :     3.181142
      pz      :     1.023040  p :     2.990370
      px      :     1.031194
      py      :     0.936137
      dz2     :     0.006481  d :     0.034431
      dxz     :     0.004578
      dyz     :     0.008378
      dx2y2   :     0.006927
      dxy     :     0.008068

 17 C s       :     3.198398  s :     3.198398
      pz      :     0.980862  p :     2.939479
      px      :     0.979545
      py      :     0.979071
      dz2     :     0.006732  d :     0.036743
      dxz     :     0.005021
      dyz     :     0.008940
      dx2y2   :     0.009078
      dxy     :     0.006972

 18 S s       :     5.224883  s :     5.224883
      pz      :     2.980591  p :     9.057079
      px      :     3.007805
      py      :     3.068683
      dz2     :     0.133972  d :     0.531374
      dxz     :     0.121220
      dyz     :     0.097265
      dx2y2   :     0.065349
      dxy     :     0.113568

 19 O s       :     3.920835  s :     3.920835
      pz      :     1.611203  p :     4.622466
      px      :     1.325216
      py      :     1.686047
      dz2     :     0.004292  d :     0.026344
      dxz     :     0.007440
      dyz     :     0.002729
      dx2y2   :     0.006186
      dxy     :     0.005696

 20 O s       :     3.916562  s :     3.916562
      pz      :     1.283108  p :     4.606275
      px      :     1.614763
      py      :     1.708404
      dz2     :     0.009433  d :     0.026053
      dxz     :     0.007728
      dyz     :     0.006887
      dx2y2   :     0.001101
      dxy     :     0.000904

 21 C s       :     3.214933  s :     3.214933
      pz      :     0.972416  p :     2.898820
      px      :     1.083141
      py      :     0.843263
      dz2     :     0.010380  d :     0.038629
      dxz     :     0.007576
      dyz     :     0.010710
      dx2y2   :     0.005703
      dxy     :     0.004259

 22 C s       :     3.207812  s :     3.207812
      pz      :     0.992977  p :     2.917411
      px      :     0.969313
      py      :     0.955121
      dz2     :     0.010581  d :     0.036776
      dxz     :     0.003828
      dyz     :     0.010226
      dx2y2   :     0.006240
      dxy     :     0.005901

 23 C s       :     3.217717  s :     3.217717
      pz      :     1.023248  p :     2.907843
      px      :     0.962328
      py      :     0.922268
      dz2     :     0.008463  d :     0.035451
      dxz     :     0.006186
      dyz     :     0.011642
      dx2y2   :     0.004089
      dxy     :     0.005070

 24 C s       :     3.211423  s :     3.211423
      pz      :     0.826807  p :     2.644487
      px      :     0.886488
      py      :     0.931192
      dz2     :     0.010208  d :     0.040058
      dxz     :     0.006818
      dyz     :     0.011626
      dx2y2   :     0.005617
      dxy     :     0.005790

 25 C s       :     3.002435  s :     3.002435
      pz      :     0.759026  p :     2.474049
      px      :     0.861200
      py      :     0.853823
      dz2     :     0.034849  d :     0.112444
      dxz     :     0.023264
      dyz     :     0.031973
      dx2y2   :     0.011509
      dxy     :     0.010850

 26 O s       :     3.843364  s :     3.843364
      pz      :     1.640371  p :     4.684354
      px      :     1.484058
      py      :     1.559925
      dz2     :     0.003751  d :     0.023024
      dxz     :     0.003928
      dyz     :     0.006029
      dx2y2   :     0.004819
      dxy     :     0.004496

 27 O s       :     3.910979  s :     3.910979
      pz      :     1.372430  p :     4.727902
      px      :     1.618671
      py      :     1.736801
      dz2     :     0.007583  d :     0.017124
      dxz     :     0.004113
      dyz     :     0.004421
      dx2y2   :     0.000431
      dxy     :     0.000575

 28 C s       :     3.220583  s :     3.220583
      pz      :     1.010071  p :     2.897031
      px      :     0.956731
      py      :     0.930229
      dz2     :     0.011542  d :     0.035611
      dxz     :     0.004078
      dyz     :     0.009162
      dx2y2   :     0.005365
      dxy     :     0.005464

 29 C s       :     3.201911  s :     3.201911
      pz      :     0.933278  p :     2.911884
      px      :     0.980088
      py      :     0.998518
      dz2     :     0.008425  d :     0.036539
      dxz     :     0.006931
      dyz     :     0.011674
      dx2y2   :     0.003991
      dxy     :     0.005517

 30 N s       :     3.685585  s :     3.685585
      pz      :     1.557250  p :     3.658307
      px      :     1.101631
      py      :     0.999426
      dz2     :     0.005495  d :     0.035287
      dxz     :     0.005818
      dyz     :     0.011954
      dx2y2   :     0.005492
      dxy     :     0.006528

 31 C s       :     3.160320  s :     3.160320
      pz      :     0.974764  p :     2.848250
      px      :     0.967560
      py      :     0.905926
      dz2     :     0.011637  d :     0.053756
      dxz     :     0.005724
      dyz     :     0.021544
      dx2y2   :     0.007956
      dxy     :     0.006895

 32 C s       :     3.138320  s :     3.138320
      pz      :     0.850379  p :     2.679726
      px      :     0.959519
      py      :     0.869828
      dz2     :     0.010754  d :     0.041848
      dxz     :     0.006440
      dyz     :     0.012720
      dx2y2   :     0.005845
      dxy     :     0.006089

 33 C s       :     3.208947  s :     3.208947
      pz      :     0.966750  p :     2.959839
      px      :     0.994496
      py      :     0.998594
      dz2     :     0.008113  d :     0.036391
      dxz     :     0.005272
      dyz     :     0.013934
      dx2y2   :     0.004942
      dxy     :     0.004130

 34 C s       :     3.189330  s :     3.189330
      pz      :     0.945229  p :     2.903293
      px      :     0.996041
      py      :     0.962023
      dz2     :     0.009995  d :     0.036466
      dxz     :     0.006204
      dyz     :     0.011341
      dx2y2   :     0.005507
      dxy     :     0.003419

 35 C s       :     3.192650  s :     3.192650
      pz      :     0.962920  p :     2.895537
      px      :     0.984870
      py      :     0.947746
      dz2     :     0.011853  d :     0.036560
      dxz     :     0.002799
      dyz     :     0.010580
      dx2y2   :     0.005464
      dxy     :     0.005864

 36 C s       :     3.209258  s :     3.209258
      pz      :     1.006016  p :     2.949835
      px      :     0.990194
      py      :     0.953625
      dz2     :     0.008678  d :     0.035660
      dxz     :     0.004561
      dyz     :     0.013588
      dx2y2   :     0.004604
      dxy     :     0.004229

 37 C s       :     3.138369  s :     3.138369
      pz      :     0.840054  p :     2.705461
      px      :     0.963874
      py      :     0.901533
      dz2     :     0.010177  d :     0.041353
      dxz     :     0.006634
      dyz     :     0.013333
      dx2y2   :     0.005564
      dxy     :     0.005645

 38 H s       :     0.848236  s :     0.848236

 39 H s       :     0.834716  s :     0.834716

 40 H s       :     0.805319  s :     0.805319

 41 H s       :     0.826120  s :     0.826120

 42 H s       :     0.837457  s :     0.837457

 43 H s       :     0.828843  s :     0.828843

 44 H s       :     0.842344  s :     0.842344

 45 H s       :     0.874960  s :     0.874960

 46 H s       :     0.859386  s :     0.859386

 47 H s       :     0.863851  s :     0.863851

 48 H s       :     0.871610  s :     0.871610

 49 H s       :     0.878906  s :     0.878906

 50 H s       :     0.874987  s :     0.874987

 51 H s       :     0.871749  s :     0.871749

 52 H s       :     0.872261  s :     0.872261

 53 H s       :     0.868721  s :     0.868721

 54 H s       :     0.871702  s :     0.871702

 55 H s       :     0.847646  s :     0.847646

 56 H s       :     0.880579  s :     0.880579

 57 H s       :     0.873344  s :     0.873344

 58 H s       :     0.853102  s :     0.853102

 59 H s       :     0.851541  s :     0.851541

 60 H s       :     0.845813  s :     0.845813

 61 H s       :     0.852519  s :     0.852519

 62 H s       :     0.862562  s :     0.862562

 63 H s       :     0.874901  s :     0.874901

 64 H s       :     0.881699  s :     0.881699

 65 H s       :     0.876975  s :     0.876975

 66 H s       :     0.861038  s :     0.861038



                     *******************************
                     * LOEWDIN POPULATION ANALYSIS *
                     *******************************

----------------------
LOEWDIN ATOMIC CHARGES
----------------------
   0 C :   -0.360674
   1 C :    0.003597
   2 C :    0.042206
   3 N :   -0.288681
   4 C :   -0.144792
   5 C :   -0.049344
   6 C :   -0.117221
   7 C :   -0.144316
   8 C :    0.085343
   9 O :   -0.187818
  10 C :   -0.083061
  11 C :   -0.143478
  12 C :   -0.229958
  13 C :   -0.234400
  14 C :   -0.235982
  15 C :   -0.226816
  16 C :   -0.183749
  17 C :   -0.131384
  18 S :    1.258956
  19 O :   -0.592753
  20 O :   -0.587805
  21 C :   -0.216299
  22 C :   -0.131504
  23 C :   -0.117900
  24 C :   -0.004382
  25 C :    0.070744
  26 O :   -0.376453
  27 O :   -0.504290
  28 C :   -0.107356
  29 C :   -0.124912
  30 N :   -0.120235
  31 C :   -0.070626
  32 C :   -0.030140
  33 C :   -0.117572
  34 C :   -0.136663
  35 C :   -0.128065
  36 C :   -0.120155
  37 C :   -0.007372
  38 H :    0.132383
  39 H :    0.139162
  40 H :    0.151555
  41 H :    0.143673
  42 H :    0.131065
  43 H :    0.152729
  44 H :    0.149438
  45 H :    0.106225
  46 H :    0.123472
  47 H :    0.123749
  48 H :    0.118325
  49 H :    0.112488
  50 H :    0.116116
  51 H :    0.116764
  52 H :    0.117650
  53 H :    0.118346
  54 H :    0.117477
  55 H :    0.131051
  56 H :    0.127633
  57 H :    0.130622
  58 H :    0.139577
  59 H :    0.147241
  60 H :    0.151255
  61 H :    0.140647
  62 H :    0.130007
  63 H :    0.130637
  64 H :    0.127117
  65 H :    0.129669
  66 H :    0.139237

-------------------------------
LOEWDIN REDUCED ORBITAL CHARGES
-------------------------------
  0 C s       :     2.972592  s :     2.972592
      pz      :     1.101951  p :     3.321797
      px      :     1.116260
      py      :     1.103586
      dz2     :     0.004133  d :     0.066285
      dxz     :     0.020678
      dyz     :     0.018359
      dx2y2   :     0.013685
      dxy     :     0.009431

  1 C s       :     2.890095  s :     2.890095
      pz      :     1.045742  p :     3.009017
      px      :     0.934471
      py      :     1.028804
      dz2     :     0.029109  d :     0.097292
      dxz     :     0.013727
      dyz     :     0.030010
      dx2y2   :     0.012946
      dxy     :     0.011500

  2 C s       :     2.847412  s :     2.847412
      pz      :     1.030671  p :     2.932602
      px      :     0.977610
      py      :     0.924321
      dz2     :     0.051229  d :     0.177780
      dxz     :     0.017252
[...]
      dxz     :     0.010987
      dyz     :     0.033544
      dx2y2   :     0.010121
      dxy     :     0.008399

 34 C s       :     2.915960  s :     2.915960
      pz      :     1.074519  p :     3.134502
      px      :     0.995385
      py      :     1.064598
      dz2     :     0.027225  d :     0.086202
      dxz     :     0.013990
      dyz     :     0.028986
      dx2y2   :     0.009879
      dxy     :     0.006121

 35 C s       :     2.917058  s :     2.917058
      pz      :     1.070963  p :     3.124808
      px      :     0.985040
      py      :     1.068805
      dz2     :     0.025549  d :     0.086199
      dxz     :     0.005526
      dyz     :     0.027415
      dx2y2   :     0.014079
      dxy     :     0.013630

 36 C s       :     2.917568  s :     2.917568
      pz      :     1.064826  p :     3.119880
      px      :     0.989657
      py      :     1.065398
      dz2     :     0.021514  d :     0.082706
      dxz     :     0.009631
      dyz     :     0.032573
      dx2y2   :     0.010281
      dxy     :     0.008708

 37 C s       :     2.856286  s :     2.856286
      pz      :     1.044138  p :     3.045227
      px      :     0.966813
      py      :     1.034276
      dz2     :     0.029346  d :     0.105859
      dxz     :     0.014319
      dyz     :     0.036381
      dx2y2   :     0.013459
      dxy     :     0.012353

 38 H s       :     0.867617  s :     0.867617

 39 H s       :     0.860838  s :     0.860838

 40 H s       :     0.848445  s :     0.848445

 41 H s       :     0.856327  s :     0.856327

 42 H s       :     0.868935  s :     0.868935

 43 H s       :     0.847271  s :     0.847271

 44 H s       :     0.850562  s :     0.850562

 45 H s       :     0.893775  s :     0.893775

 46 H s       :     0.876528  s :     0.876528

 47 H s       :     0.876251  s :     0.876251

 48 H s       :     0.881675  s :     0.881675

 49 H s       :     0.887512  s :     0.887512

 50 H s       :     0.883884  s :     0.883884

 51 H s       :     0.883236  s :     0.883236

 52 H s       :     0.882350  s :     0.882350

 53 H s       :     0.881654  s :     0.881654

 54 H s       :     0.882523  s :     0.882523

 55 H s       :     0.868949  s :     0.868949

 56 H s       :     0.872367  s :     0.872367

 57 H s       :     0.869378  s :     0.869378

 58 H s       :     0.860423  s :     0.860423

 59 H s       :     0.852759  s :     0.852759

 60 H s       :     0.848745  s :     0.848745

 61 H s       :     0.859353  s :     0.859353

 62 H s       :     0.869993  s :     0.869993

 63 H s       :     0.869363  s :     0.869363

 64 H s       :     0.872883  s :     0.872883

 65 H s       :     0.870331  s :     0.870331

 66 H s       :     0.860763  s :     0.860763



                      *****************************
                      * MAYER POPULATION ANALYSIS *
                      *****************************

  NA   - Mulliken gross atomic population
  ZA   - Total nuclear charge
  QA   - Mulliken gross atomic charge
  VA   - Mayer's total valence
  BVA  - Mayer's bonded valence
  FA   - Mayer's free valence

  ATOM       NA         ZA         QA         VA         BVA        FA
  0 C      6.5428     6.0000    -0.5428     3.8219     3.8219    -0.0000
  1 C      5.8733     6.0000     0.1267     3.8704     3.8704     0.0000
  2 C      5.6734     6.0000     0.3266     3.8861     3.8861     0.0000
  3 N      7.6063     7.0000    -0.6063     2.7827     2.7827    -0.0000
  4 C      6.2423     6.0000    -0.2423     3.8271     3.8271     0.0000
  5 C      5.8411     6.0000     0.1589     3.8871     3.8871     0.0000
  6 C      6.1779     6.0000    -0.1779     3.9334     3.9334    -0.0000
  7 C      6.1850     6.0000    -0.1850     3.9076     3.9076    -0.0000
  8 C      5.6354     6.0000     0.3646     3.8250     3.8250     0.0000
  9 O      8.5260     8.0000    -0.5260     1.9602     1.9602    -0.0000
 10 C      6.0198     6.0000    -0.0198     3.8105     3.8105     0.0000
 11 C      6.1038     6.0000    -0.1038     3.8632     3.8632     0.0000
 12 C      6.2724     6.0000    -0.2724     3.8534     3.8534    -0.0000
 13 C      6.2604     6.0000    -0.2604     3.8619     3.8619    -0.0000
 14 C      6.2652     6.0000    -0.2652     3.8612     3.8612    -0.0000
 15 C      6.2589     6.0000    -0.2589     3.8556     3.8556     0.0000
 16 C      6.2059     6.0000    -0.2059     3.8867     3.8867     0.0000
 17 C      6.1746     6.0000    -0.1746     3.9492     3.9492     0.0000
 18 S     14.8133    16.0000     1.1867     5.0844     5.0844    -0.0000
 19 O      8.5696     8.0000    -0.5696     1.8586     1.8586     0.0000
 20 O      8.5489     8.0000    -0.5489     1.8963     1.8963     0.0000
 21 C      6.1524     6.0000    -0.1524     3.8026     3.8026    -0.0000
 22 C      6.1620     6.0000    -0.1620     3.8969     3.8969     0.0000
 23 C      6.1610     6.0000    -0.1610     3.8704     3.8704    -0.0000
 24 C      5.8960     6.0000     0.1040     3.8354     3.8354    -0.0000
 25 C      5.5889     6.0000     0.4111     4.2068     4.2068     0.0000
 26 O      8.5507     8.0000    -0.5507     1.9572     1.9572     0.0000
 27 O      8.6560     8.0000    -0.6560     1.8381     1.8381     0.0000
 28 C      6.1532     6.0000    -0.1532     3.8708     3.8708     0.0000
 29 C      6.1503     6.0000    -0.1503     3.8926     3.8926    -0.0000
 30 N      7.3792     7.0000    -0.3792     2.9644     2.9644     0.0000
 31 C      6.0623     6.0000    -0.0623     3.8689     3.8689    -0.0000
 32 C      5.8599     6.0000     0.1401     3.9581     3.9581    -0.0000
 33 C      6.2052     6.0000    -0.2052     3.9024     3.9024    -0.0000
 34 C      6.1291     6.0000    -0.1291     3.9283     3.9283    -0.0000
 35 C      6.1247     6.0000    -0.1247     3.9265     3.9265    -0.0000
 36 C      6.1948     6.0000    -0.1948     3.8736     3.8736    -0.0000
 37 C      5.8852     6.0000     0.1148     3.9941     3.9941    -0.0000
 38 H      0.8482     1.0000     0.1518     0.9343     0.9343     0.0000
 39 H      0.8347     1.0000     0.1653     0.9296     0.9296    -0.0000
 40 H      0.8053     1.0000     0.1947     0.9422     0.9422     0.0000
 41 H      0.8261     1.0000     0.1739     0.9393     0.9393    -0.0000
 42 H      0.8375     1.0000     0.1625     0.9327     0.9327    -0.0000
 43 H      0.8288     1.0000     0.1712     0.9399     0.9399    -0.0000
 44 H      0.8423     1.0000     0.1577     0.9358     0.9358    -0.0000
 45 H      0.8750     1.0000     0.1250     0.9338     0.9338    -0.0000
 46 H      0.8594     1.0000     0.1406     0.9388     0.9388     0.0000
 47 H      0.8639     1.0000     0.1361     0.9386     0.9386     0.0000
 48 H      0.8716     1.0000     0.1284     0.9383     0.9383    -0.0000
 49 H      0.8789     1.0000     0.1211     0.9391     0.9391    -0.0000
 50 H      0.8750     1.0000     0.1250     0.9379     0.9379    -0.0000
 51 H      0.8717     1.0000     0.1283     0.9362     0.9362    -0.0000
 52 H      0.8723     1.0000     0.1277     0.9376     0.9376     0.0000
 53 H      0.8687     1.0000     0.1313     0.9359     0.9359    -0.0000
 54 H      0.8717     1.0000     0.1283     0.9403     0.9403     0.0000
 55 H      0.8476     1.0000     0.1524     0.9376     0.9376    -0.0000
 56 H      0.8806     1.0000     0.1194     0.9428     0.9428     0.0000
 57 H      0.8733     1.0000     0.1267     0.9431     0.9431     0.0000
 58 H      0.8531     1.0000     0.1469     0.9439     0.9439     0.0000
 59 H      0.8515     1.0000     0.1485     0.9587     0.9587     0.0000
 60 H      0.8458     1.0000     0.1542     0.9642     0.9642     0.0000
 61 H      0.8525     1.0000     0.1475     0.9446     0.9446     0.0000
 62 H      0.8626     1.0000     0.1374     0.9369     0.9369    -0.0000
 63 H      0.8749     1.0000     0.1251     0.9393     0.9393     0.0000
 64 H      0.8817     1.0000     0.1183     0.9391     0.9391     0.0000
 65 H      0.8770     1.0000     0.1230     0.9386     0.9386    -0.0000
 66 H      0.8610     1.0000     0.1390     0.9435     0.9435    -0.0000

  Mayer bond orders larger than 0.100000
B(  0-C ,  1-C ) :   1.0053 B(  0-C , 38-H ) :   0.9262 B(  0-C , 39-H ) :   0.9234 
B(  0-C , 40-H ) :   0.9131 B(  1-C ,  2-C ) :   1.4245 B(  1-C , 31-C ) :   0.1038 
B(  1-C , 37-C ) :   1.2636 B(  2-C ,  3-N ) :   0.9133 B(  2-C , 30-N ) :   1.2824 
B(  3-N ,  4-C ) :   0.9245 B(  3-N , 18-S ) :   0.7855 B(  4-C ,  5-C ) :   0.9474 
B(  4-C , 41-H ) :   0.9196 B(  4-C , 42-H ) :   0.9218 B(  5-C ,  6-C ) :   1.4137 
B(  5-C , 17-C ) :   1.4387 B(  6-C ,  7-C ) :   1.4495 B(  6-C , 43-H ) :   0.9060 
B(  7-C ,  8-C ) :   1.3940 B(  7-C , 44-H ) :   0.9170 B(  8-C ,  9-O ) :   0.8997 
B(  8-C , 16-C ) :   1.3678 B(  9-O , 10-C ) :   0.9085 B( 10-C , 11-C ) :   0.9895 
B( 10-C , 45-H ) :   0.9216 B( 10-C , 46-H ) :   0.9305 B( 11-C , 12-C ) :   0.9880 
B( 11-C , 15-C ) :   0.9952 B( 11-C , 47-H ) :   0.9240 B( 12-C , 13-C ) :   1.0022 
B( 12-C , 48-H ) :   0.9462 B( 12-C , 49-H ) :   0.9440 B( 13-C , 14-C ) :   0.9987 
B( 13-C , 50-H ) :   0.9538 B( 13-C , 51-H ) :   0.9531 B( 14-C , 15-C ) :   0.9994 
B( 14-C , 52-H ) :   0.9539 B( 14-C , 53-H ) :   0.9531 B( 15-C , 54-H ) :   0.9465 
B( 15-C , 55-H ) :   0.9432 B( 16-C , 17-C ) :   1.4209 B( 16-C , 56-H ) :   0.9191 
B( 17-C , 57-H ) :   0.9228 B( 18-S , 19-O ) :   1.6101 B( 18-S , 20-O ) :   1.6610 
B( 18-S , 21-C ) :   0.8373 B( 21-C , 22-C ) :   1.3647 B( 21-C , 29-C ) :   1.3634 
B( 22-C , 23-C ) :   1.4014 B( 22-C , 58-H ) :   0.9186 B( 23-C , 24-C ) :   1.3867 
B( 23-C , 59-H ) :   0.9071 B( 24-C , 25-C ) :   0.9271 B( 24-C , 28-C ) :   1.3986 
B( 25-C , 26-O ) :   1.7078 B( 25-C , 27-O ) :   1.5497 B( 26-O , 27-O ) :   0.1490 
B( 28-C , 29-C ) :   1.4051 B( 28-C , 60-H ) :   0.9010 B( 29-C , 61-H ) :   0.9180 
B( 30-N , 31-C ) :   1.4999 B( 31-C , 32-C ) :   1.2363 B( 31-C , 62-H ) :   0.9294 
B( 32-C , 33-C ) :   1.2839 B( 32-C , 37-C ) :   1.2900 B( 33-C , 34-C ) :   1.5136 
B( 33-C , 36-C ) :   0.1067 B( 33-C , 63-H ) :   0.9249 B( 34-C , 35-C ) :   1.3517 
B( 34-C , 64-H ) :   0.9320 B( 35-C , 36-C ) :   1.5103 B( 35-C , 65-H ) :   0.9314 
B( 36-C , 37-C ) :   1.2938 B( 36-C , 66-H ) :   0.9153 

-------
TIMINGS
-------

Total SCF time: 0 days 0 hours 11 min 37 sec 

Total time                  ....     697.291 sec
Sum of individual times     ....     696.904 sec  ( 99.9%)

SCF preparation             ....       0.424 sec  (  0.1%)
Fock matrix formation       ....     693.096 sec  ( 99.4%)
  Startup                   ....       0.114 sec  (  0.0% of F)
  Split-RI-J                ....      98.821 sec  ( 14.3% of F)
  Chain of spheres X        ....     537.851 sec  ( 77.6% of F)
  XC integration            ....      55.390 sec  (  8.0% of F)
    XC Preparation          ....       0.000 sec  (  0.0% of XC)
    Basis function eval.    ....      21.626 sec  ( 39.0% of XC)
    Density eval.           ....      13.985 sec  ( 25.2% of XC)
    XC-Functional eval.     ....       2.469 sec  (  4.5% of XC)
    XC-Potential eval.      ....      15.150 sec  ( 27.4% of XC)
Diagonalization             ....       0.000 sec  (  0.0%)
Density matrix formation    ....       0.486 sec  (  0.1%)
Total Energy calculation    ....       0.102 sec  (  0.0%)
Population analysis         ....       0.098 sec  (  0.0%)
Orbital Transformation      ....       0.328 sec  (  0.0%)
Orbital Orthonormalization  ....       0.000 sec  (  0.0%)
DIIS solution               ....       1.453 sec  (  0.2%)
SOSCF solution              ....       0.917 sec  (  0.1%)
Finished LeanSCF after 697.4 sec

Maximum memory used throughout the entire LEANSCF-calculation: 109.0 MB

-------------------------   --------------------
FINAL SINGLE POINT ENERGY     -2043.342845638118
-------------------------   --------------------


------------------------------------------------------------------------------
                              ORCA PROPERTY CALCULATIONS
------------------------------------------------------------------------------

GBWName                                 ... /home/nmrbox/aojoawo/Documents/ERDOS/inputs/CHEMBL3682561.gbw
Number of atoms                         ...     67
Number of basis functions               ...    594
Max core memory                         ...   1024 MB

Electric properties:
Dipole moment                           ... YES
Quadrupole moment                       ...  NO
Static polarizability (Dipole/Dipole)   ...  NO
Static polarizability (Dipole/Quad.)    ...  NO
Static polarizability (Quad./Quad.)     ...  NO
Static polarizability (Velocity)        ...  NO

Atomic electric properties:
Dipole moment                           ...  NO
Quadrupole moment                       ...  NO
Static polarizability                   ...  NO

Choice of electric origin               ... Center of mass
Position of electric origin             ...    -1.563876    -0.910546    -0.614694

General magnetic properties:
Magnetizability                         ...  NO

EPR properties:
g-Tensor (aka g-matrix)                 ...  NO
Zero-Field splitting spin-orbit         ...  NO
Zero-field splitting spin-spin          ...  NO
Hyperfine couplings                     ...  NO (   0 nuclei)
Quadrupole couplings                    ...  NO (   0 nuclei)
Contact density                         ...  NO (   0 nuclei)

NMR properties:
Chemical shifts                         ...  NO (   0 nuclei)
Spin-rotation constants                 ...  NO (   0 nuclei)
Spin-spin couplings                     ...  NO (   0 nuclei,    0 pairs)

Choice of magnetic origin               ... GIAO
Position of magnetic origin             ...     0.000000     0.000000     0.000000

Properties with geometric perturbations:
SCF Hessian                             ...  NO
IR spectrum                             ...  NO
VCD spectrum                            ...  NO
X-ray spectroscopy properties:
SCF XES/XAS/RIXS spectra                ...  NO


-------------
DIPOLE MOMENT
-------------

Method             : SCF
Type of density    : Electron Density
Multiplicity       :   1
Irrep              :   0
Energy             : -2043.3428456381179785 Eh
Relativity type    : 
Basis              : AO
                                X                 Y                 Z
Electronic contribution:    -46.364651393     -16.543748863     -17.196276843
Nuclear contribution   :     49.754428695      26.923040845      18.256795618
                        -----------------------------------------
Total Dipole Moment    :      3.389777302      10.379291982       1.060518776
                        -----------------------------------------
Magnitude (a.u.)       :     10.970186520
Magnitude (Debye)      :     27.883998157



--------------------
Rotational spectrum 
--------------------
 
Rotational constants in cm-1:             0.002761             0.002345             0.001451 
Rotational constants in MHz :            82.786289            70.292483            43.487502 

Dipole components along the rotational axes: 
x,y,z [a.u.] :     7.254363    -8.154901    -1.103084 
x,y,z [Debye]:    18.439126   -20.728112    -2.803816 

 

Dipole moment calculation done in   0.0 sec 

Maximum memory used throughout the entire PROP-calculation: 53.2 MB

--------------------------------
SUGGESTED CITATIONS FOR THIS RUN
--------------------------------

Below you find a list of papers that are relevant to this ORCA run
We neither can nor want to force you to cite these papers, but we appreciate if you do
You receive ORCA, which is the product of decades of hard work by many enthusiastic individuals, for free
The only thing we kindly ask in return is that you cite our papers,
We deeply appreciate it, if you show your appreciation for ORCA by not just citing the generic ORCA reference.

Please note that relegating all ORCA citations to the supporting information does *not* help us.
SI sections are not indexed - citations you put there will not count into any citation statistics
But we need these citations in order to attract the funding resources that allow us to do what we are doing

Therefore, if you are a happy ORCA user, please consider citing a few of the papers listed below in the main body of your paper

In addition to the list printed below, the program has created the file /home/nmrbox/aojoawo/Documents/ERDOS/inputs/CHEMBL3682561.bibtex that contains the list in bibtex format
You can import this file easily into all common literature databanks and citation aid programs


List of essential papers. We consider these as the minimum necessary citations

  1. Neese,F.
     Software update: the ORCA program system, version 5.0
     WIRES Comput. Molec. Sci., 2022 12(1)e1606
     doi.org/10.1002/wcms.1606

List of papers to cite with high priority. The work reported in these papers was absolutely
necessary for this run to complete.
Our perspective: the developers of density functionals and basis sets usually get cited in chemistry papers
Good! But without the algorithms to do something with them, the functionals or basis sets would not do anything.
Hence, in our opinion, the algorithm design and method developments papers are equally worthy of getting cited

  1. Neese,F.
     An improvement of the resolution of the identity approximation for the formation of the Coulomb matrix
     J. Comp. Chem., 2003 24(14)1740-1747
     doi.org/10.1002/jcc.10318
  2. Neese,F.; Wennmohs,F.; Hansen,A.; Becker,U.
     Efficient, approximate and parallel Hartree-Fock and hybrid DFT calculations. A 'chain-of-spheres' algorithm for the Hartree-Fock exchange
     Chem. Phys., 2009 356(1-3)98-109
     doi.org/10.1016/j.chemphys.2008.10.036
  3. Helmich-Paris,B.; de Souza,B.; Neese,F.; Izsák,R.
     An improved chain of spheres for exchange algorithm
     J. Chem. Phys., 2021 155 104109
     doi.org/doi: 10.1063/5.0058766.
  4. Neese,F.
     The SHARK Integral Generation and Digestion System
     J. Comp. Chem., 2022  1-16
     doi.org/10.1002/jcc.26942

List of suggested additional citations. These are papers that are important in the 'surrounding' of 
of this run, or papers that preceded the highly important papers. If you like your results we are grateful for a citation.

  1. Izsak,R.; Neese,F.
     An overlap fitted chain of spheres exchange method
     J. Chem. Phys., 2011 135 144105
     doi.org/10.1063/1.3646921
  2. Izsak,R.; Hansen,A.; Neese,F.
     The resolution of identity and chain of spheres approximations for the LPNO-CCSD singles Fock term
     Molec. Phys., 2012 110 2413-2417
     doi.org/10.1080/00268976.2012.687466
  3. Neese,F.
     The ORCA program system
     WIRES Comput. Molec. Sci., 2012 2(1)73-78
     doi.org/10.1002/wcms.81
  4. Izsak,R.; Neese,F.; Klopper,W.
     Robust fitting techniques in the chain of spheres approximation to the Fock exchange: The role of the complementary space
     J. Chem. Phys., 2013 139 
     doi.org/10.1063/1.4819264
  5. Neese,F.
     Software update: the ORCA program system, version 4.0
     WIRES Comput. Molec. Sci., 2018 8(1)1-6
     doi.org/10.1002/wcms.1327
  6. Neese,F.; Wennmohs,F.; Becker,U.; Riplinger,C.
     The ORCA quantum chemistry program package
     J. Chem. Phys., 2020 152 Art. No. L224108
     doi.org/10.1063/5.0004608

List of optional additional citations

  1. Neese,F.
     Approximate second-order SCF convergence for spin unrestricted wavefunctions
     Chem. Phys. Lett., 2000 325(1-3)93-98
     doi.org/10.1016/s0009-2614(00)00662-x

Timings for individual modules:

Sum of individual times          ...      725.214 sec (=  12.087 min)
Startup calculation              ...       18.093 sec (=   0.302 min)   2.5 %
SCF iterations                   ...      706.888 sec (=  11.781 min)  97.5 %
Property calculations            ...        0.233 sec (=   0.004 min)   0.0 %
                             ****ORCA TERMINATED NORMALLY****
TOTAL RUN TIME: 0 days 0 hours 12 minutes 5 seconds 867 msec
