
                                 *****************
                                 * O   R   C   A *
                                 *****************

                                            #,                                       
                                            ###                                      
                                            ####                                     
                                            #####                                    
                                            ######                                   
                                           ########,                                 
                                     ,,################,,,,,                         
                               ,,#################################,,                 
                          ,,##########################################,,             
                       ,#########################################, ''#####,          
                    ,#############################################,,   '####,        
                  ,##################################################,,,,####,       
                ,###########''''           ''''###############################       
              ,#####''   ,,,,##########,,,,          '''####'''          '####       
            ,##' ,,,,###########################,,,                        '##       
           ' ,,###''''                  '''############,,,                           
         ,,##''                                '''############,,,,        ,,,,,,###''
      ,#''                                            '''#######################'''  
     '                                                          ''''####''''         
             ,#######,   #######,   ,#######,      ##                                
            ,#'     '#,  ##    ##  ,#'     '#,    #''#        ,####,   ,####,        
            ##       ##  ##   ,#'  ##            #'  '#       #'       #'  '#        
            ##       ##  #######   ##           ,######,      #####,   #    #        
            '#,     ,#'  ##    ##  '#,     ,#' ,#      #,     #,   #   #,  ,#        
             '#######'   ##     ##  '#######'  #'      '#     '####' # '####'        



                #########################################################
                #                        -***-                          #
                #          Department of theory and spectroscopy        #
                #                                                       #
                #                      Frank Neese                      #
                #                                                       #
                #     Directorship, Architecture, Infrastructure        #
                #                    SHARK, DRIVERS                     #
                #        Core code/Algorithms in most modules           #
                #                                                       #
                #        Max Planck Institute fuer Kohlenforschung      #
                #                Kaiser Wilhelm Platz 1                 #
                #                 D-45470 Muelheim/Ruhr                 #
                #                      Germany                          #
                #                                                       #
                #                  All rights reserved                  #
                #                        -***-                          #
                #########################################################


                         Program Version 6.0.0  -   RELEASE  -


 With contributions from (in alphabetic order):
   Daniel Aravena         : Magnetic Suceptibility
   Michael Atanasov       : Ab Initio Ligand Field Theory (pilot matlab implementation)
   Alexander A. Auer      : GIAO ZORA, VPT2 properties, NMR spectrum
   Ute Becker             : All parallelization in ORCA, NUMFREQ, NUMCALC
   Giovanni Bistoni       : ED, misc. LED, open-shell LED, HFLD
   Martin Brehm           : Molecular dynamics
   Dmytro Bykov           : pre 5.0 version of the SCF Hessian
   Marcos Casanova-Páez   : Triplet and SCS-CIS(D). UHF-(DLPNO)-IP/EA/STEOM-CCSD. UHF-CVS-IP/STEOM-CCSD
   Vijay G. Chilkuri      : MRCI spin determinant printing, contributions to CSF-ICE
   Pauline Colinet        : FMM embedding
   Dipayan Datta          : RHF DLPNO-CCSD density
   Achintya Kumar Dutta   : EOM-CC, STEOM-CC
   Nicolas Foglia         : Exact transition moments, OPA infrastructure, MCD improvements
   Dmitry Ganyushin       : Spin-Orbit,Spin-Spin,Magnetic field MRCI
   Miquel Garcia          : C-PCM and meta-GGA Hessian, CCSD/C-PCM, Gaussian charge scheme
   Tiago L. C. Gouveia    : GS-ROHF, GS-ROCIS
   Yang Guo               : DLPNO-NEVPT2, F12-NEVPT2, CIM, IAO-localization
   Andreas Hansen         : Spin unrestricted coupled pair/coupled cluster methods
   Ingolf Harden          : AUTO-CI MPn and infrastructure 
   Benjamin Helmich-Paris : MC-RPA, TRAH-(SCF,CASSCF), AVAS, COSX integrals, SCF dyn. polar.
   Lee Huntington         : MR-EOM, pCC
   Robert Izsak           : Overlap fitted RIJCOSX, COSX-SCS-MP3, EOM
   Riya Kayal             : Wick's Theorem for AUTO-CI, AUTO-CI UHF-CCSDT
   Emily Kempfer          : AUTO-CI, RHF CISDT and CCSDT
   Christian Kollmar      : KDIIS, OOCD, Brueckner-CCSD(T), CCSD density, CASPT2, CASPT2-K, improved NEVPT2
   Axel Koslowski         : Symmetry handling
   Simone Kossmann        : Meta GGA functionals, TD-DFT gradient, OOMP2, (MP2 Hessian; deprecated post 5.0)
   Lucas Lang             : DCDCAS
   Marvin Lechner         : AUTO-CI (C++ implementation), FIC-MRCC
   Spencer Leger          : CASSCF response
   Dagmar Lenk            : GEPOL surface, SMD, ORCA-2-JSON
   Dimitrios Liakos       : Extrapolation schemes; Compound Job, initial MDCI parallelization
   Dimitrios Manganas     : Further ROCIS development; embedding schemes. LFT, Crystal Embedding
   Dimitrios Pantazis     : SARC Basis sets
   Anastasios Papadopoulos: AUTO-CI, single reference methods and gradients
   Taras Petrenko         : pre 6.0 DFT Hessian and TD-DFT gradient, (ASA, deprecated), ECA, 1-Electron XAS/XES, NRVS
   Peter Pinski           : DLPNO-MP2, DLPNO-MP2 Gradient
   Christoph Reimann      : Effective Core Potentials
   Marius Retegan         : Local ZFS, SOC
   Christoph Riplinger    : Optimizer, TS searches, QM/MM, DLPNO-CCSD(T), (RO)-DLPNO pert. Triples
   Michael Roemelt        : Original ROCIS implementation
   Masaaki Saitow         : Open-shell DLPNO-CCSD energy and density
   Barbara Sandhoefer     : DKH picture change effects
   Kantharuban Sivalingam : CASSCF convergence/infrastructure, NEVPT2 and variants, FIC-MRCI
   Bernardo de Souza      : ESD, SOC TD-DFT
   Georgi Stoychev        : AutoAux, RI-MP2 NMR, DLPNO-MP2 response, X2C
   Van Anh Tran           : RI-MP2 g-tensors
   Willem Van den Heuvel  : Paramagnetic NMR
   Zikuan Wang            : NOTCH, Electric field optimization 
   Frank Wennmohs         : Technical directorship and infrastructure
   Hang Xu                : AUTO-CI-Response properties 


 We gratefully acknowledge several colleagues who have allowed us to
 interface, adapt or use parts of their codes:
   Stefan Grimme, W. Hujo, H. Kruse, P. Pracht,  : VdW corrections, initial TS optimization,
                  C. Bannwarth, S. Ehlert,         DFT functionals, gCP, sTDA/sTD-DF
                  L. Wittmann, M. Mueller
   Ed Valeev, F. Pavosevic, A. Kumar             : LibInt (2-el integral package), F12 methods
   Garnet Chan, S. Sharma, J. Yang, R. Olivares  : DMRG
   Ulf Ekstrom                                   : XCFun DFT Library
   Mihaly Kallay                                 : mrcc  (arbitrary order and MRCC methods)
   Frank Weinhold                                : gennbo (NPA and NBO analysis)
   Simon Mueller                                 : openCOSMO-RS
   Christopher J. Cramer and Donald G. Truhlar   : smd solvation model
   Lars Goerigk                                  : TD-DFT with DH, B97 family of functionals
   V. Asgeirsson, H. Jonsson                     : NEB implementation
   FAccTs GmbH                                   : IRC, NEB, NEB-TS, DLPNO-Multilevel, CI-OPT
                                                   MM, QMMM, 2- and 3-layer-ONIOM, Crystal-QMMM,
                                                   LR-CPCM, SF, NACMEs, symmetry and pop. for TD-DFT,
                                                   nearIR, NL-DFT gradient (VV10), updates on ESD,
                                                   ML-optimized integration grids, MBIS, APM,
                                                   GOAT, DOCKER, SOLVATOR, interface openCOSMO-RS
   S Lehtola, MJT Oliveira, MAL Marques          : LibXC Library
   Liviu Ungur et al                             : ANISO software


 Your calculation uses the libint2 library for the computation of 2-el integrals
 For citations please refer to: http://libint.valeyev.net

 Your ORCA version has been built with support for libXC version: 6.2.2
 For citations please refer to: https://libxc.gitlab.io

 This ORCA versions uses:
   CBLAS   interface :  Fast vector & matrix operations
   LAPACKE interface :  Fast linear algebra routines
   SCALAPACK package :  Parallel linear algebra routines
   Shared memory     :  Shared parallel matrices
   BLAS/LAPACK       :  OpenBLAS 0.3.27  USE64BITINT DYNAMIC_ARCH NO_AFFINITY SkylakeX SINGLE_THREADED
        Core in use  :  SkylakeX
   Copyright (c) 2011-2014, The OpenBLAS Project


Warning: RI is on but no J-basis has been assigned. Assigning Def2/J (nothing to worry about!)
================================================================================

----- Orbital basis set information -----
Your calculation utilizes the basis: 6-31G*
   H-He, Li-Ne : W. J. Hehre, R. Ditchfield and J.A. Pople, J. Chem. Phys. 56, 2257 (1972).
                 Note: He and Ne are unpublished basis sets taken from the Gaussian program.
                 Note: Li and B from J. D. Dill and J. A. Pople, J. Chem. Phys. 62, 2921 (1975).
   Na - Ar     : M. M. Francl, W. J. Pietro, W. J. Hehre, J. S. Binkley, M. S. Gordon, 
                 D. J. DeFrees and J. A. Pople, J. Chem. Phys. 77, 3654 (1982).
   K - Zn      : V. A. Rassolov, J. A. Pople, M. A. Ratner, and T. L. Windus, J. Chem. Phys. 109, 1223 (1998).

----- AuxJ basis set information -----
Your calculation utilizes the auxiliary basis: def2/J
   F. Weigend, Phys. Chem. Chem. Phys. 8, 1057 (2006).

================================================================================
                                        WARNINGS
                       Please study these warnings very carefully!
================================================================================


================================================================================
                                       INPUT FILE
================================================================================
NAME = /home/nmrbox/aojoawo/Documents/ERDOS/inputs/CHEMBL3682591.inp
|  1> ! B3LYP 6-31G* SP
|  2> 
|  3> * xyz 0 1
|  4> C -0.8435 -0.5663 1.3794
|  5> C -1.3859 -1.5355 0.3515
|  6> C -1.3604 -1.2105 -1.0208
|  7> N -0.8651 0.0528 -1.4814
|  8> C 0.4154 0.1119 -2.1886
|  9> C 1.5474 -0.0667 -1.2148
| 10> C 1.9865 -1.3541 -0.8716
| 11> C 2.9818 -1.5251 0.0939
| 12> C 3.5485 -0.4186 0.7374
| 13> O 4.5401 -0.6503 1.7043
| 14> C 5.2058 0.3596 2.4596
| 15> F 6.1101 -0.2420 3.3129
| 16> F 5.8906 1.2144 1.6143
| 17> F 4.2900 1.0737 3.2116
| 18> C 3.1046 0.8738 0.3962
| 19> C 2.1097 1.0451 -0.5700
| 20> S -1.9290 1.4259 -1.4864
| 21> O -3.1075 1.1628 -0.5902
| 22> O -2.4352 1.6608 -2.8820
| 23> C -1.0741 2.8518 -0.9047
| 24> C -0.4274 3.7039 -1.8086
| 25> C 0.2876 4.8119 -1.3450
| 26> C 0.3656 5.0840 0.0327
| 27> C 1.1273 6.2506 0.5300
| 28> O 1.7117 7.0230 -0.2771
| 29> O 1.2067 6.5064 1.8964
| 30> C -0.2913 4.2288 0.9341
| 31> C -1.0072 3.1228 0.4675
| 32> N -1.7967 -2.1062 -1.9397
| 33> C -2.2893 -3.3290 -1.6175
| 34> C -2.7360 -4.2277 -2.7455
| 35> F -2.5346 -3.6079 -3.9671
| 36> F -2.0081 -5.4038 -2.7296
| 37> F -4.0838 -4.5115 -2.6183
| 38> C -2.3707 -3.7047 -0.2546
| 39> C -2.8884 -4.9567 0.1443
| 40> C -2.9628 -5.2994 1.4935
| 41> C -2.5275 -4.4068 2.4673
| 42> C -2.0100 -3.1652 2.1004
| 43> C -1.9174 -2.7924 0.7400
| 44> H -1.6704 -0.2032 2.0249
| 45> H -0.0735 -1.0684 2.0021
| 46> H -0.3520 0.3138 0.9243
| 47> H 0.4504 -0.6783 -2.9702
| 48> H 0.5239 1.0828 -2.7175
| 49> H 1.5481 -2.2259 -1.3416
| 50> H 3.3091 -2.5247 0.3507
| 51> H 3.5146 1.7528 0.8731
| 52> H 1.7739 2.0455 -0.8090
| 53> H -0.4650 3.5051 -2.8720
| 54> H 0.7834 5.4512 -2.0647
| 55> H 1.7258 7.3023 2.2477
| 56> H -0.2516 4.4119 2.0005
| 57> H -1.5049 2.4768 1.1789
| 58> H -3.2419 -5.6820 -0.5743
| 59> H -3.3630 -6.2619 1.7852
| 60> H -2.5922 -4.6773 3.5134
| 61> H -1.6923 -2.5041 2.8947
| 62> *
| 63> 
| 64>                          ****END OF INPUT****
================================================================================

                       ****************************
                       * Single Point Calculation *
                       ****************************

---------------------------------
CARTESIAN COORDINATES (ANGSTROEM)
---------------------------------
  C     -0.843500   -0.566300    1.379400
  C     -1.385900   -1.535500    0.351500
  C     -1.360400   -1.210500   -1.020800
  N     -0.865100    0.052800   -1.481400
  C      0.415400    0.111900   -2.188600
  C      1.547400   -0.066700   -1.214800
  C      1.986500   -1.354100   -0.871600
  C      2.981800   -1.525100    0.093900
  C      3.548500   -0.418600    0.737400
  O      4.540100   -0.650300    1.704300
  C      5.205800    0.359600    2.459600
  F      6.110100   -0.242000    3.312900
  F      5.890600    1.214400    1.614300
  F      4.290000    1.073700    3.211600
  C      3.104600    0.873800    0.396200
  C      2.109700    1.045100   -0.570000
  S     -1.929000    1.425900   -1.486400
  O     -3.107500    1.162800   -0.590200
  O     -2.435200    1.660800   -2.882000
  C     -1.074100    2.851800   -0.904700
  C     -0.427400    3.703900   -1.808600
  C      0.287600    4.811900   -1.345000
  C      0.365600    5.084000    0.032700
  C      1.127300    6.250600    0.530000
  O      1.711700    7.023000   -0.277100
  O      1.206700    6.506400    1.896400
  C     -0.291300    4.228800    0.934100
  C     -1.007200    3.122800    0.467500
  N     -1.796700   -2.106200   -1.939700
  C     -2.289300   -3.329000   -1.617500
  C     -2.736000   -4.227700   -2.745500
  F     -2.534600   -3.607900   -3.967100
  F     -2.008100   -5.403800   -2.729600
  F     -4.083800   -4.511500   -2.618300
  C     -2.370700   -3.704700   -0.254600
  C     -2.888400   -4.956700    0.144300
  C     -2.962800   -5.299400    1.493500
  C     -2.527500   -4.406800    2.467300
  C     -2.010000   -3.165200    2.100400
  C     -1.917400   -2.792400    0.740000
  H     -1.670400   -0.203200    2.024900
  H     -0.073500   -1.068400    2.002100
  H     -0.352000    0.313800    0.924300
  H      0.450400   -0.678300   -2.970200
  H      0.523900    1.082800   -2.717500
  H      1.548100   -2.225900   -1.341600
  H      3.309100   -2.524700    0.350700
  H      3.514600    1.752800    0.873100
  H      1.773900    2.045500   -0.809000
  H     -0.465000    3.505100   -2.872000
  H      0.783400    5.451200   -2.064700
  H      1.725800    7.302300    2.247700
  H     -0.251600    4.411900    2.000500
  H     -1.504900    2.476800    1.178900
  H     -3.241900   -5.682000   -0.574300
  H     -3.363000   -6.261900    1.785200
  H     -2.592200   -4.677300    3.513400
  H     -1.692300   -2.504100    2.894700

----------------------------
CARTESIAN COORDINATES (A.U.)
----------------------------
  NO LB      ZA    FRAG     MASS         X           Y           Z
   0 C     6.0000    0    12.011   -1.593984   -1.070152    2.606688
   1 C     6.0000    0    12.011   -2.618971   -2.901674    0.664239
   2 C     6.0000    0    12.011   -2.570783   -2.287513   -1.929032
   3 N     7.0000    0    14.007   -1.634802    0.099778   -2.799440
   4 C     6.0000    0    12.011    0.784992    0.211460   -4.135855
   5 C     6.0000    0    12.011    2.924162   -0.126045   -2.295639
   6 C     6.0000    0    12.011    3.753941   -2.558878   -1.647085
   7 C     6.0000    0    12.011    5.634785   -2.882021    0.177445
   8 C     6.0000    0    12.011    6.705693   -0.791039    1.393484
   9 O     8.0000    0    15.999    8.579546   -1.228889    3.220660
  10 C     6.0000    0    12.011    9.837536    0.679546    4.647970
  11 F     9.0000    0    18.998   11.546416   -0.457314    6.260474
  12 F     9.0000    0    18.998   11.131621    2.294883    3.050585
  13 F     9.0000    0    18.998    8.106925    2.028999    6.069044
  14 C     6.0000    0    12.011    5.866844    1.651243    0.748709
  15 C     6.0000    0    12.011    3.986755    1.974953   -1.077144
  16 S    16.0000    0    32.060   -3.645282    2.694560   -2.808889
  17 O     8.0000    0    15.999   -5.872324    2.197374   -1.115316
  18 O     8.0000    0    15.999   -4.601861    3.138457   -5.446191
  19 C     6.0000    0    12.011   -2.029755    5.389121   -1.709635
  20 C     6.0000    0    12.011   -0.807669    6.999357   -3.417759
  21 C     6.0000    0    12.011    0.543485    9.093173   -2.541682
  22 C     6.0000    0    12.011    0.690884    9.607368    0.061794
  23 C     6.0000    0    12.011    2.130288   11.811922    1.001555
  24 O     8.0000    0    15.999    3.234644   13.271547   -0.523643
  25 O     8.0000    0    15.999    2.280333   12.295314    3.583677
  26 C     6.0000    0    12.011   -0.550477    7.991274    1.765193
  27 C     6.0000    0    12.011   -1.903332    5.901237    0.883447
  28 N     7.0000    0    14.007   -3.395271   -3.980141   -3.665502
  29 C     6.0000    0    12.011   -4.326150   -6.290898   -3.056632
  30 C     6.0000    0    12.011   -5.170291   -7.989195   -5.188243
  31 F     9.0000    0    18.998   -4.789700   -6.817943   -7.496733
  32 F     9.0000    0    18.998   -3.794759  -10.211702   -5.158196
  33 F     9.0000    0    18.998   -7.717264   -8.525499   -4.947870
  34 C     6.0000    0    12.011   -4.479974   -7.000868   -0.481124
  35 C     6.0000    0    12.011   -5.458285   -9.366806    0.272687
  36 C     6.0000    0    12.011   -5.598881  -10.014415    2.822306
  37 C     6.0000    0    12.011   -4.776283   -8.327645    4.662521
  38 C     6.0000    0    12.011   -3.798350   -5.981361    3.969181
  39 C     6.0000    0    12.011   -3.623361   -5.276871    1.398397
  40 H     1.0000    0     1.008   -3.156599   -0.383992    3.826506
  41 H     1.0000    0     1.008   -0.138895   -2.018983    3.783421
  42 H     1.0000    0     1.008   -0.665184    0.592996    1.746674
  43 H     1.0000    0     1.008    0.851133   -1.281801   -5.612865
  44 H     1.0000    0     1.008    0.990028    2.046195   -5.135331
  45 H     1.0000    0     1.008    2.925485   -4.206341   -2.535257
  46 H     1.0000    0     1.008    6.253293   -4.770992    0.662727
  47 H     1.0000    0     1.008    6.641631    3.312312    1.649920
  48 H     1.0000    0     1.008    3.352185    3.865435   -1.528788
  49 H     1.0000    0     1.008   -0.878723    6.623679   -5.427293
  50 H     1.0000    0     1.008    1.480411   10.301275   -3.901718
  51 H     1.0000    0     1.008    3.261289   13.799347    4.247537
  52 H     1.0000    0     1.008   -0.475455    8.337283    3.780397
  53 H     1.0000    0     1.008   -2.843849    4.680474    2.227798
  54 H     1.0000    0     1.008   -6.126303  -10.737424   -1.085270
  55 H     1.0000    0     1.008   -6.355149  -11.833276    3.373539
  56 H     1.0000    0     1.008   -4.898548   -8.838816    6.639364
  57 H     1.0000    0     1.008   -3.197984   -4.732063    5.470190

--------------------------------
INTERNAL COORDINATES (ANGSTROEM)
--------------------------------
 C      0   0   0     0.000000000000     0.00000000     0.00000000
 C      1   0   0     1.513315832865     0.00000000     0.00000000
 C      2   1   0     1.410490177208   120.45068598     0.00000000
 N      3   2   1     1.432969413491   121.47392256   357.97686273
 C      4   3   2     1.464003039614   119.54983076   108.67746387
 C      5   4   3     1.503864488576   109.92487195   285.65754215
 C      6   5   4     1.402852027122   120.19931332    86.26917672
 C      7   6   5     1.397159024592   120.28860317   183.94271239
 C      8   7   6     1.399851202807   120.61816109     0.39210649
 O      9   8   7     1.404226142756   118.16253988   179.67821586
 C     10   9   8     1.426019842078   125.27477392   180.72071850
 F     11  10   9     1.381232036987   108.92846130   179.78036517
 F     11  10   9     1.383533942482   110.18217093   299.07389458
 F     11  10   9     1.383521756244   110.14610861    60.51591821
 C      9   8   7     1.408461007625   119.10146356   359.82387901
 C     15   9   8     1.397394768847   120.28963214     0.13779561
 S      4   3   2     1.737041110625   119.08525225   276.15675984
 O     17   4   3     1.503748083956   109.87589392    17.92076194
 O     17   4   3     1.503035531849   109.41972235   258.93343125
 C     17   4   3     1.761368703594   109.98071353   137.88023273
 C     20  17   4     1.400475101528   120.23356214    91.97150046
 C     21  20  17     1.397788954027   120.29395967   182.06567384
 C     22  21  20     1.406477763777   120.43774498     0.00000000
 C     23  22  21     1.479340981654   120.69065994   179.64301424
 O     24  23  22     1.260767833505   120.43712393     0.41960895
 O     24  23  22     1.392403303644   120.27294720   180.45855607
 C     23  22  21     1.405491590156   118.98517315   359.69958546
 C     27  23  22     1.397663897366   120.44997591     0.20236114
 N      3   2   1     1.355364670485   120.10089805   177.25307205
 C     29   3   2     1.357095221420   123.45905149     0.92233650
 C     30  29   3     1.509829983806   117.79730850   180.17862216
 F     31  30  29     1.384565115840   110.46756330     0.70622196
 F     31  30  29     1.383221757348   109.98796956   120.22072526
 F     31  30  29     1.383216223155   109.98101105   241.15845441
 C     30  29   3     1.416076572788   119.23707525     0.53956245
 C     35  30  29     1.412316713772   121.87734215   179.24460799
 C     36  35  30     1.394029874142   120.72065764   180.28288280
 C     37  36  35     1.390865662097   120.20892698     0.09100356
 C     38  37  36     1.394271286371   120.22578753   359.79743897
 C     39  38  37     1.413592147686   120.82432366   359.95119148
 H      1   2   3     1.110079037727   109.72278926   114.21288919
 H      1   2   3     1.110297122396   109.86990274   234.99651197
 H      1   2   3     1.106012780215   112.91822199   353.60693996
 H      5   4   3     1.111998021581   109.77791481    47.16667919
 H      5   4   3     1.110924961462   110.52919237   164.30690109
 H      7   6   5     1.083111166963   120.38511743     3.07101772
 H      8   7   6     1.082714962490   119.48834965   179.83911343
 H     15   9   8     1.080821266445   121.31943523   179.76120658
 H     16  15   9     1.081980961015   119.14601488   179.24772119
 H     21  20  17     1.082476216829   120.41561369     1.28567793
 H     22  21  20     1.082815875392   118.80134506   179.63014793
 H     26  24  23     1.013081097445   120.91959066   179.98497839
 H     27  23  22     1.082732958767   120.77258120   180.09235082
 H     28  27  23     1.082178936221   119.24086564   179.94970040
 H     36  35  30     1.080466704716   121.81409059     0.16599344
 H     37  36  35     1.082430219460   119.94368562   179.92179769
 H     38  37  36     1.082442400315   119.83815270   179.72217686
 H     39  38  37     1.081156320797   117.40368534   179.53811631

---------------------------
INTERNAL COORDINATES (A.U.)
---------------------------
 C      0   0   0     0.000000000000     0.00000000     0.00000000
 C      1   0   0     2.859752478242     0.00000000     0.00000000
 C      2   1   0     2.665440149509   120.45068598     0.00000000
 N      3   2   1     2.707919749783   121.47392256   357.97686273
 C      4   3   2     2.766564804099   119.54983076   108.67746387
 C      5   4   3     2.841892025938   109.92487195   285.65754215
 C      6   5   4     2.651006137677   120.19931332    86.26917672
 C      7   6   5     2.640247922016   120.28860317   183.94271239
 C      8   7   6     2.645335401545   120.61816109     0.39210649
 O      9   8   7     2.653602839902   118.16253988   179.67821586
 C     10   9   8     2.694786963065   125.27477392   180.72071850
 F     11  10   9     2.610150277304   108.92846130   179.78036517
 F     11  10   9     2.614500248275   110.18217093   299.07389458
 F     11  10   9     2.614477219623   110.14610861    60.51591821
 C      9   8   7     2.661605574718   119.10146356   359.82387901
 C     15   9   8     2.640693414094   120.28963214     0.13779561
 S      4   3   2     3.282531982443   119.08525225   276.15675984
 O     17   4   3     2.841672053085   109.87589392    17.92076194
 O     17   4   3     2.840325524747   109.41972235   258.93343125
 C     17   4   3     3.328504470652   109.98071353   137.88023273
 C     20  17   4     2.646514399264   120.23356214    91.97150046
 C     21  20  17     2.641438316131   120.29395967   182.06567384
 C     22  21  20     2.657857786989   120.43774498     0.00000000
 C     23  22  21     2.795549314012   120.69065994   179.64301424
 O     24  23  22     2.382505923781   120.43712393     0.41960895
 O     24  23  22     2.631260911855   120.27294720   180.45855607
 C     23  22  21     2.655994188925   118.98517315   359.69958546
 C     27  23  22     2.641201993291   120.44997591     0.20236114
 N      3   2   1     2.561268038810   120.10089805   177.25307205
 C     29   3   2     2.564538306136   123.45905149     0.92233650
 C     30  29   3     2.853165178176   117.79730850   180.17862216
 F     31  30  29     2.616448883518   110.46756330     0.70622196
 F     31  30  29     2.613910303868   109.98796956   120.22072526
 F     31  30  29     2.613899845760   109.98101105   241.15845441
 C     30  29   3     2.675996907232   119.23707525     0.53956245
 C     35  30  29     2.668891803389   121.87734215   179.24460799
 C     36  35  30     2.634334684633   120.72065764   180.28288280
 C     37  36  35     2.628355190438   120.20892698     0.09100356
 C     38  37  36     2.634790887632   120.22578753   359.79743897
 C     39  38  37     2.671302024188   120.82432366   359.95119148
 H      1   2   3     2.097745368310   109.72278926   114.21288919
 H      1   2   3     2.098157488609   109.86990274   234.99651197
 H      1   2   3     2.090061255224   112.91822199   353.60693996
 H      5   4   3     2.101371722250   109.77791481    47.16667919
 H      5   4   3     2.099343932501   110.52919237   164.30690109
 H      7   6   5     2.046783478152   120.38511743     3.07101772
 H      8   7   6     2.046034760205   119.48834965   179.83911343
 H     15   9   8     2.042456193299   121.31943523   179.76120658
 H     16  15   9     2.044647698436   119.14601488   179.24772119
 H     21  20  17     2.045583596290   120.41561369     1.28567793
 H     22  21  20     2.046225457952   118.80134506   179.63014793
 H     26  24  23     1.914445825623   120.91959066   179.98497839
 H     27  23  22     2.046068768240   120.77258120   180.09235082
 H     28  27  23     2.045021817356   119.24086564   179.94970040
 H     36  35  30     2.041786168734   121.81409059     0.16599344
 H     37  36  35     2.045496673859   119.94368562   179.92179769
 H     38  37  36     2.045519692340   119.83815270   179.72217686
 H     39  38  37     2.043089354265   117.40368534   179.53811631

---------------------
BASIS SET INFORMATION
---------------------
There are 6 groups of distinct atoms

 Group   1 Type C   : 10s4p1d contracted to 3s2p1d pattern {631/31/1}
 Group   2 Type N   : 10s4p1d contracted to 3s2p1d pattern {631/31/1}
 Group   3 Type O   : 10s4p1d contracted to 3s2p1d pattern {631/31/1}
 Group   4 Type F   : 10s4p1d contracted to 3s2p1d pattern {631/31/1}
 Group   5 Type S   : 16s10p1d contracted to 4s3p1d pattern {6631/631/1}
 Group   6 Type H   : 4s contracted to 2s pattern {31}

Atom   0C    basis set group =>   1
Atom   1C    basis set group =>   1
Atom   2C    basis set group =>   1
Atom   3N    basis set group =>   2
Atom   4C    basis set group =>   1
Atom   5C    basis set group =>   1
Atom   6C    basis set group =>   1
Atom   7C    basis set group =>   1
Atom   8C    basis set group =>   1
Atom   9O    basis set group =>   3
Atom  10C    basis set group =>   1
Atom  11F    basis set group =>   4
Atom  12F    basis set group =>   4
Atom  13F    basis set group =>   4
Atom  14C    basis set group =>   1
Atom  15C    basis set group =>   1
Atom  16S    basis set group =>   5
Atom  17O    basis set group =>   3
Atom  18O    basis set group =>   3
Atom  19C    basis set group =>   1
Atom  20C    basis set group =>   1
Atom  21C    basis set group =>   1
Atom  22C    basis set group =>   1
Atom  23C    basis set group =>   1
Atom  24O    basis set group =>   3
Atom  25O    basis set group =>   3
Atom  26C    basis set group =>   1
Atom  27C    basis set group =>   1
Atom  28N    basis set group =>   2
Atom  29C    basis set group =>   1
Atom  30C    basis set group =>   1
Atom  31F    basis set group =>   4
Atom  32F    basis set group =>   4
Atom  33F    basis set group =>   4
Atom  34C    basis set group =>   1
Atom  35C    basis set group =>   1
Atom  36C    basis set group =>   1
Atom  37C    basis set group =>   1
Atom  38C    basis set group =>   1
Atom  39C    basis set group =>   1
Atom  40H    basis set group =>   6
Atom  41H    basis set group =>   6
Atom  42H    basis set group =>   6
Atom  43H    basis set group =>   6
Atom  44H    basis set group =>   6
Atom  45H    basis set group =>   6
Atom  46H    basis set group =>   6
Atom  47H    basis set group =>   6
Atom  48H    basis set group =>   6
Atom  49H    basis set group =>   6
Atom  50H    basis set group =>   6
Atom  51H    basis set group =>   6
Atom  52H    basis set group =>   6
Atom  53H    basis set group =>   6
Atom  54H    basis set group =>   6
Atom  55H    basis set group =>   6
Atom  56H    basis set group =>   6
Atom  57H    basis set group =>   6
---------------------------------
AUXILIARY/J BASIS SET INFORMATION
---------------------------------
There are 6 groups of distinct atoms

 Group   1 Type C   : 12s5p4d2f1g contracted to 6s4p3d1f1g pattern {711111/2111/211/2/1}
 Group   2 Type N   : 12s5p4d2f1g contracted to 6s4p3d1f1g pattern {711111/2111/211/2/1}
 Group   3 Type O   : 12s5p4d2f1g contracted to 6s4p3d1f1g pattern {711111/2111/211/2/1}
 Group   4 Type F   : 12s5p4d2f1g contracted to 6s4p3d1f1g pattern {711111/2111/211/2/1}
 Group   5 Type S   : 14s5p5d2f1g contracted to 8s4p3d1f1g pattern {71111111/2111/311/2/1}
 Group   6 Type H   : 5s2p1d contracted to 3s1p1d pattern {311/2/1}

Atom   0C    basis set group =>   1
Atom   1C    basis set group =>   1
Atom   2C    basis set group =>   1
Atom   3N    basis set group =>   2
Atom   4C    basis set group =>   1
Atom   5C    basis set group =>   1
Atom   6C    basis set group =>   1
Atom   7C    basis set group =>   1
Atom   8C    basis set group =>   1
Atom   9O    basis set group =>   3
Atom  10C    basis set group =>   1
Atom  11F    basis set group =>   4
Atom  12F    basis set group =>   4
Atom  13F    basis set group =>   4
Atom  14C    basis set group =>   1
Atom  15C    basis set group =>   1
Atom  16S    basis set group =>   5
Atom  17O    basis set group =>   3
Atom  18O    basis set group =>   3
Atom  19C    basis set group =>   1
Atom  20C    basis set group =>   1
Atom  21C    basis set group =>   1
Atom  22C    basis set group =>   1
Atom  23C    basis set group =>   1
Atom  24O    basis set group =>   3
Atom  25O    basis set group =>   3
Atom  26C    basis set group =>   1
Atom  27C    basis set group =>   1
Atom  28N    basis set group =>   2
Atom  29C    basis set group =>   1
Atom  30C    basis set group =>   1
Atom  31F    basis set group =>   4
Atom  32F    basis set group =>   4
Atom  33F    basis set group =>   4
Atom  34C    basis set group =>   1
Atom  35C    basis set group =>   1
Atom  36C    basis set group =>   1
Atom  37C    basis set group =>   1
Atom  38C    basis set group =>   1
Atom  39C    basis set group =>   1
Atom  40H    basis set group =>   6
Atom  41H    basis set group =>   6
Atom  42H    basis set group =>   6
Atom  43H    basis set group =>   6
Atom  44H    basis set group =>   6
Atom  45H    basis set group =>   6
Atom  46H    basis set group =>   6
Atom  47H    basis set group =>   6
Atom  48H    basis set group =>   6
Atom  49H    basis set group =>   6
Atom  50H    basis set group =>   6
Atom  51H    basis set group =>   6
Atom  52H    basis set group =>   6
Atom  53H    basis set group =>   6
Atom  54H    basis set group =>   6
Atom  55H    basis set group =>   6
Atom  56H    basis set group =>   6
Atom  57H    basis set group =>   6
------------------------------------------------------------------------------
                             ORCA STARTUP CALCULATIONS
                           -- RI-GTO INTEGRALS CHOSEN --
------------------------------------------------------------------------------
------------------------------------------------------------------------------
                   ___                                                        
                  /   \      - P O W E R E D   B Y -                         
                 /     \                                                     
                 |  |  |   _    _      __       _____    __    __             
                 |  |  |  | |  | |    /  \     |  _  \  |  |  /  |          
                  \  \/   | |  | |   /    \    | | | |  |  | /  /          
                 / \  \   | |__| |  /  /\  \   | |_| |  |  |/  /          
                |  |  |   |  __  | /  /__\  \  |    /   |      \           
                |  |  |   | |  | | |   __   |  |    \   |  |\   \          
                \     /   | |  | | |  |  |  |  | |\  \  |  | \   \       
                 \___/    |_|  |_| |__|  |__|  |_| \__\ |__|  \__/        
                                                                              
                      - O R C A' S   B I G   F R I E N D -                    
                                      &                                       
                       - I N T E G R A L  F E E D E R -                       
                                                                              
 v1 FN, 2020, v2 2021, v3 2022-2024                                           
------------------------------------------------------------------------------


----------------------
SHARK INTEGRAL PACKAGE
----------------------

Number of atoms                             ...     58
Number of basis functions                   ...    600
Number of shells                            ...    278
Maximum angular momentum                    ...      2
Integral batch strategy                     ... SHARK/LIBINT Hybrid
RI-J (if used) integral strategy            ... SPLIT-RIJ (Revised 2003 algorithm where possible)
Printlevel                                  ...      1
Contraction scheme used                     ... SEGMENTED contraction
Prescreening option                         ... SCHWARTZ
   Thresh                                   ... 1.000e-10
   Tcut                                     ... 1.000e-11
   Tpresel                                  ... 1.000e-11 
Coulomb Range Separation                    ... NOT USED
Exchange Range Separation                   ... NOT USED
Multipole approximations                    ... NOT USED
Finite Nucleus Model                        ... NOT USED
CABS basis                                  ... NOT available
Auxiliary Coulomb fitting basis             ... AVAILABLE
   # of basis functions in Aux-J            ...   2160
   # of shells in Aux-J                     ...    692
   Maximum angular momentum in Aux-J        ...      4
Auxiliary J/K fitting basis                 ... NOT available
Auxiliary Correlation fitting basis         ... NOT available
Auxiliary 'external' fitting basis          ... NOT available

Checking pre-screening integrals            ... done (  0.0 sec) Dimension = 278
Check shell pair data                       ... done (  0.0 sec)
Shell pair information
Shell pair cut-off parameter TPreSel        ...   1.0e-11
Total number of shell pairs                 ...     38781
Shell pairs after pre-screening             ...     20275
Total number of primitive shell pairs       ...    235194
Primitive shell pairs kept                  ...     60994
          la=0 lb=0:   6154 shell pairs
          la=1 lb=0:   7259 shell pairs
          la=1 lb=1:   2140 shell pairs
          la=2 lb=0:   2725 shell pairs
          la=2 lb=1:   1692 shell pairs
          la=2 lb=2:    305 shell pairs

Calculating one electron integrals          ... done (  0.2 sec)
Calculating RI/J V-Matrix + Cholesky decomp.... done (  0.6 sec)
Calculating Nuclear repulsion               ... done (  0.0 sec) ENN=   4926.234738030887 Eh

Diagonalization of the overlap matrix:
Smallest eigenvalue                        ... 3.365e-04
Time for diagonalization                   ...    0.047 sec
Threshold for overlap eigenvalues          ... 1.000e-07
Number of eigenvalues below threshold      ... 0
Time for construction of square roots      ...    0.051 sec
Total time needed                          ...    0.113 sec

-------------------
DFT GRID GENERATION
-------------------

General Integration Accuracy     IntAcc      ... 4.388
Radial Grid Type                 RadialGrid  ... OptM3 with GC (2021)
Angular Grid (max. ang.)         AngularGrid ... 4 (Lebedev-302)
Angular grid pruning method      GridPruning ... 4 (adaptive)
Weight generation scheme         WeightScheme... mBecke (2022)
Basis function cutoff            BFCut       ... 1.0000e-10
Integration weight cutoff        WCut        ... 1.0000e-14
Partially contracted basis set               ... off
Rotationally invariant grid construction     ... off
Angular grids for H and He will be reduced by one unit

Total number of grid points                  ...   297239
Total number of batches                      ...     4674
Average number of points per batch           ...       63
Average number of grid points per atom       ...     5125

--------------------
COSX GRID GENERATION
--------------------

GRIDX 1
-------
General Integration Accuracy     IntAcc      ... 3.816
Radial Grid Type                 RadialGrid  ... OptM3 with GC (2021)
Angular Grid (max. ang.)         AngularGrid ... 1 (Lebedev-50)
Angular grid pruning method      GridPruning ... 4 (adaptive)
Weight generation scheme         WeightScheme... mBecke (2022)
Basis function cutoff            BFCut       ... 1.0000e-10
Integration weight cutoff        WCut        ... 1.0000e-14
Partially contracted basis set               ... on
Rotationally invariant grid construction     ... off
Angular grids for H and He will be reduced by one unit

Total number of grid points                  ...    38530
Total number of batches                      ...      332
Average number of points per batch           ...      116
Average number of grid points per atom       ...      664
UseSFitting                                  ... on

GRIDX 2
-------
General Integration Accuracy     IntAcc      ... 4.020
Radial Grid Type                 RadialGrid  ... OptM3 with GC (2021)
Angular Grid (max. ang.)         AngularGrid ... 2 (Lebedev-110)
Angular grid pruning method      GridPruning ... 4 (adaptive)
Weight generation scheme         WeightScheme... mBecke (2022)
Basis function cutoff            BFCut       ... 1.0000e-10
Integration weight cutoff        WCut        ... 1.0000e-14
Partially contracted basis set               ... on
Rotationally invariant grid construction     ... off
Angular grids for H and He will be reduced by one unit

Total number of grid points                  ...    83191
Total number of batches                      ...      680
Average number of points per batch           ...      122
Average number of grid points per atom       ...     1434
UseSFitting                                  ... on

GRIDX 3
-------
General Integration Accuracy     IntAcc      ... 4.338
Radial Grid Type                 RadialGrid  ... OptM3 with GC (2021)
Angular Grid (max. ang.)         AngularGrid ... 3 (Lebedev-194)
Angular grid pruning method      GridPruning ... 4 (adaptive)
Weight generation scheme         WeightScheme... mBecke (2022)
Basis function cutoff            BFCut       ... 1.0000e-10
Integration weight cutoff        WCut        ... 1.0000e-14
Partially contracted basis set               ... on
Rotationally invariant grid construction     ... off
Angular grids for H and He will be reduced by one unit

Total number of grid points                  ...   182680
Total number of batches                      ...     1456
Average number of points per batch           ...      125
Average number of grid points per atom       ...     3150
UseSFitting                                  ... on
Initializing property integral containers    ... done (  0.0 sec)

SHARK setup successfully completed in  12.4 seconds

Maximum memory used throughout the entire STARTUP-calculation: 131.6 MB
-------------------------------------------------------------------------------
                                 ORCA GUESS
                   Start orbitals & Density for SCF / CASSCF
-------------------------------------------------------------------------------

------------
SCF SETTINGS
------------
Hamiltonian:
 Density Functional     Method          .... DFT(GTOs)
 Exchange Functional    Exchange        .... B88
   X-Alpha parameter    XAlpha          ....  0.666667
   Becke's b parameter  XBeta           ....  0.004200
 Correlation Functional Correlation     .... LYP
 LDA part of GGA corr.  LDAOpt          .... VWN-5
 Gradients option       PostSCFGGA      .... off
 Hybrid DFT is turned on
   Fraction HF Exchange ScalHFX         ....  0.200000
   Scaling of DF-GGA-X  ScalDFX         ....  0.720000
   Scaling of DF-GGA-C  ScalDFC         ....  0.810000
   Scaling of DF-LDA-C  ScalLDAC        ....  1.000000
   Perturbative correction              ....  0.000000
   NL short-range parameter             ....  4.800000
 RI-approximation to the Coulomb term is turned on
   Number of AuxJ basis functions       .... 2160
   RIJ-COSX (HFX calculated with COS-X)).... on


General Settings:
 Integral files         IntName         .... /home/nmrbox/aojoawo/Documents/ERDOS/inputs/CHEMBL3682591
 Hartree-Fock type      HFTyp           .... RHF
 Total Charge           Charge          ....    0
 Multiplicity           Mult            ....    1
 Number of Electrons    NEL             ....  298
 Basis Dimension        Dim             ....  600
 Nuclear Repulsion      ENuc            ....   4926.2347380309 Eh

Convergence Acceleration:
 AO-DIIS                CNVDIIS         .... on
   Start iteration      DIISMaxIt       ....    12
   Startup error        DIISStart       ....  0.200000
   # of expansion vecs  DIISMaxEq       ....     5
   Bias factor          DIISBfac        ....   1.050
   Max. coefficient     DIISMaxC        ....  10.000
 MO-DIIS                CNVKDIIS        .... off
 Trust-Rad. Augm. Hess. CNVTRAH         .... auto
   Auto Start mean grad. ratio tolernc. ....  1.125000
   Auto Start start iteration           ....    50
   Auto Start num. interpolation iter.  ....    10
   Max. Number of Micro iterations      ....    24
   Max. Number of Macro iterations      .... Maxiter - #DIIS iter
   Number of Davidson start vectors     ....     2
   Converg. threshold    (grad. norm)   ....   5.000e-05
   Grad. Scal. Fac. for Micro threshold ....   0.100
   Minimum threshold for Micro iter.    ....   1.000e-02
   NR start threshold (gradient norm)   ....   1.000e-04
   Initial trust radius                 ....   0.400
   Minimum AH scaling param. (alpha)    ....   1.000
   Maximum AH scaling param. (alpha)    .... 1000.000
   Quad. conv. algorithm                .... NR
   White noise on init. David. guess    .... on
   Maximum white noise                  ....   0.010
   Pseudo random numbers                .... off
   Inactive MOs                         .... canonical
   Orbital update algorithm             .... Taylor
   Preconditioner                       .... Diag
   Full preconditioner red. dimension   ....   250
 SOSCF                  CNVSOSCF        .... on
   Start iteration      SOSCFMaxIt      ....   150
   Startup grad/error   SOSCFStart      ....  0.003300
   Hessian update       SOSCFHessUp     .... L-BFGS
 Level Shifting         CNVShift        .... on
   Level shift para.    LevelShift      ....    0.2500
   Turn off err/grad.   ShiftErr        ....    0.0010
 Zerner damping         CNVZerner       .... off
 Static damping         CNVDamp         .... on
   Fraction old density DampFac         ....    0.7000
   Max. Damping (<1)    DampMax         ....    0.9800
   Min. Damping (>=0)   DampMin         ....    0.0000
   Turn off err/grad.   DampErr         ....    0.1000

SCF Procedure:
 Maximum # iterations   MaxIter         ....   125
 SCF integral mode      SCFMode         .... Direct
   Integral package                     .... SHARK and LIBINT hybrid scheme
 Reset frequency        DirectResetFreq ....    20
 Integral Threshold     Thresh          ....  1.000e-10 Eh
 Primitive CutOff       TCut            ....  1.000e-11 Eh

Convergence Tolerance:
 Convergence Check Mode ConvCheckMode   .... Total+1el-Energy
 Convergence forced     ConvForced      .... 0
 Energy Change          TolE            ....  1.000e-06 Eh
 1-El. energy change                    ....  1.000e-03 Eh
 Orbital Gradient       TolG            ....  5.000e-05
 Orbital Rotation angle TolX            ....  5.000e-05
 DIIS Error             TolErr          ....  1.000e-06

------------------------------
INITIAL GUESS: MODEL POTENTIAL
------------------------------
Loading Hartree-Fock densities                     ... done
Calculating cut-offs                               ... done
Initializing the effective Hamiltonian             ... done
Setting up the integral package (SHARK)            ... done
Starting the Coulomb interaction                   ... done (   3.1 sec)
Making the grid                                    ... done (   1.5 sec)
Mapping shells                                     ... done
Starting the XC term evaluation                    ... done (   1.1 sec)
  promolecular density results
     # of electrons  =    297.997506523
     EX              =   -278.491285667
     EC              =    -10.629760088
     EX+EC           =   -289.121045755
Transforming the Hamiltonian                       ... done (   0.0 sec)
Diagonalizing the Hamiltonian                      ... done (   0.0 sec)
Back transforming the eigenvectors                 ... done (   0.1 sec)
Now organizing SCF variables                       ... done
                      ------------------
                      INITIAL GUESS DONE (   6.0 sec)
                      ------------------
             **** ENERGY FILE WAS UPDATED (/home/nmrbox/aojoawo/Documents/ERDOS/inputs/CHEMBL3682591.en.tmp) ****
Finished Guess after   6.3 sec
Maximum memory used throughout the entire GUESS-calculation: 74.3 MB

-------------------------------------------------------------------------------------------
                                      ORCA LEAN-SCF
                              memory conserving SCF solver
-------------------------------------------------------------------------------------------

----------------------------------------D-I-I-S--------------------------------------------
Iteration    Energy (Eh)           Delta-E    RMSDP     MaxDP     DIISErr   Damp  Time(sec)
-------------------------------------------------------------------------------------------
               ***  Starting incremental Fock matrix formation  ***
    1    -2482.1024923651320933     0.00e+00  2.29e-03  1.89e-01  2.99e-01  0.700  61.7
    2    -2482.6433963051777027    -5.41e-01  1.35e-03  7.84e-02  9.80e-02  0.700  27.7
                               ***Turning on AO-DIIS***
    3    -2482.8230632442318893    -1.80e-01  5.16e-04  1.65e-02  3.43e-02  0.700  27.1
    4    -2482.9434061948068120    -1.20e-01  9.08e-04  3.36e-02  1.54e-02  0.000  24.1
    5    -2483.2167221712879837    -2.73e-01  2.08e-04  7.56e-03  6.75e-03  0.000  25.6
                              *** Initializing SOSCF ***
---------------------------------------S-O-S-C-F--------------------------------------
Iteration    Energy (Eh)           Delta-E    RMSDP     MaxDP     MaxGrad    Time(sec)
--------------------------------------------------------------------------------------
    6    -2483.2183613031538698    -1.64e-03  6.97e-05  3.48e-03  3.04e-03    22.4
               *** Restarting incremental Fock matrix formation ***
    7    -2483.2183923407292241    -3.10e-05  7.21e-05  4.45e-03  6.54e-04    63.1
    8    -2483.2182805059374004     1.12e-04  4.83e-05  2.72e-03  1.18e-03    35.1
    9    -2483.2184270046727761    -1.46e-04  1.02e-05  7.04e-04  9.69e-05    32.5
   10    -2483.2184249394340441     2.07e-06  6.51e-06  4.58e-04  1.75e-04    24.1
   11    -2483.2184279367957060    -3.00e-06  1.62e-06  7.81e-05  1.49e-05    22.6
   12    -2483.2184279953526129    -5.86e-08  1.02e-06  5.40e-05  2.70e-05    17.3
                 **** Energy Check signals convergence ****

               *****************************************************
               *                     SUCCESS                       *
               *           SCF CONVERGED AFTER  12 CYCLES          *
               *****************************************************

Recomputing exchange energy using gridx3       ... done (  104.318 sec)
Old exchange energy                            :    -56.168496944 Eh
New exchange energy                            :    -56.168495464 Eh
Exchange energy change after final integration :      0.000001480 Eh
Total energy after final integration           :  -2483.218426516 Eh
             **** ENERGY FILE WAS UPDATED (/home/nmrbox/aojoawo/Documents/ERDOS/inputs/CHEMBL3682591.en.tmp) ****

----------------
TOTAL SCF ENERGY
----------------

Total Energy       :      -2483.21842651562247 Eh          -67571.80867 eV

Components:
Nuclear Repulsion  :       4926.23473803088746 Eh          134049.66217 eV
Electronic Energy  :      -7409.45316602624007 Eh         -201621.47089 eV
One Electron Energy:     -13219.41327469847784 Eh         -359718.52294 eV
Two Electron Energy:       5809.96010867223777 Eh          158097.05206 eV

Virial components:
Potential Energy   :      -4952.39780182335380 Eh         -134761.59533 eV
Kinetic Energy     :       2469.17937530773133 Eh           67189.78666 eV
Virial Ratio       :          2.00568571540338

DFT components:
N(Alpha)           :      148.999967725943 electrons
N(Beta)            :      148.999967725943 electrons
N(Total)           :      297.999935451887 electrons
E(X)               :     -223.393586154736 Eh       
E(C)               :      -12.467370514894 Eh       
E(XC)              :     -235.860956669630 Eh       

---------------
SCF CONVERGENCE
---------------

  Last Energy change         ...    5.8557e-08  Tolerance :   1.0000e-06
  Last MAX-Density change    ...    5.3961e-05  Tolerance :   1.0000e-05
  Last RMS-Density change    ...    1.0173e-06  Tolerance :   1.0000e-06
  Last DIIS Error            ...    3.0438e-03  Tolerance :   1.0000e-06
  Last Orbital Gradient      ...    2.6962e-05  Tolerance :   5.0000e-05
  Last Orbital Rotation      ...    4.0414e-05  Tolerance :   5.0000e-05


----------------
ORBITAL ENERGIES
----------------

  NO   OCC          E(Eh)            E(eV) 
   0   2.0000     -89.102348     -2424.5982 
   1   2.0000     -24.748214      -673.4331 
   2   2.0000     -24.746915      -673.3978 
   3   2.0000     -24.745961      -673.3718 
   4   2.0000     -24.722321      -672.7286 
   5   2.0000     -24.720441      -672.6774 
   6   2.0000     -24.710437      -672.4052 
   7   2.0000     -19.220914      -523.0277 
   8   2.0000     -19.204156      -522.5716 
   9   2.0000     -19.146547      -521.0040 
  10   2.0000     -19.130669      -520.5720 
  11   2.0000     -19.125759      -520.4384 
  12   2.0000     -14.375874      -391.1874 
  13   2.0000     -14.347123      -390.4051 
  14   2.0000     -10.511455      -286.0312 
  15   2.0000     -10.436497      -283.9915 
  16   2.0000     -10.344036      -281.4755 
  17   2.0000     -10.278035      -279.6795 
  18   2.0000     -10.269682      -279.4522 
  19   2.0000     -10.252886      -278.9952 
  20   2.0000     -10.251558      -278.9591 
  21   2.0000     -10.242882      -278.7230 
  22   2.0000     -10.239920      -278.6424 
  23   2.0000     -10.230936      -278.3979 
  24   2.0000     -10.230522      -278.3867 
  25   2.0000     -10.228007      -278.3182 
  26   2.0000     -10.227806      -278.3128 
  27   2.0000     -10.223018      -278.1825 
  28   2.0000     -10.218590      -278.0620 
  29   2.0000     -10.217958      -278.0448 
  30   2.0000     -10.206369      -277.7294 
  31   2.0000     -10.206211      -277.7251 
  32   2.0000     -10.206070      -277.7213 
  33   2.0000     -10.205281      -277.6998 
  34   2.0000     -10.205015      -277.6926 
  35   2.0000     -10.204696      -277.6839 
  36   2.0000     -10.204150      -277.6690 
  37   2.0000     -10.203343      -277.6471 
  38   2.0000     -10.202575      -277.6262 
  39   2.0000     -10.191231      -277.3175 
  40   2.0000      -8.138207      -221.4519 
  41   2.0000      -6.103219      -166.0770 
  42   2.0000      -6.101285      -166.0244 
  43   2.0000      -6.100776      -166.0105 
  44   2.0000      -1.311429       -35.6858 
  45   2.0000      -1.278804       -34.7980 
  46   2.0000      -1.232352       -33.5340 
  47   2.0000      -1.231418       -33.5086 
  48   2.0000      -1.207637       -32.8615 
  49   2.0000      -1.198012       -32.5996 
  50   2.0000      -1.090872       -29.6841 
  51   2.0000      -1.089023       -29.6338 
  52   2.0000      -1.087014       -29.5791 
  53   2.0000      -1.003359       -27.3028 
  54   2.0000      -0.973711       -26.4960 
  55   2.0000      -0.964834       -26.2545 
  56   2.0000      -0.926587       -25.2137 
  57   2.0000      -0.901046       -24.5187 
  58   2.0000      -0.875911       -23.8347 
  59   2.0000      -0.872018       -23.7288 
  60   2.0000      -0.824004       -22.4223 
  61   2.0000      -0.816191       -22.2097 
  62   2.0000      -0.796173       -21.6650 
  63   2.0000      -0.787789       -21.4368 
  64   2.0000      -0.786695       -21.4071 
  65   2.0000      -0.768514       -20.9123 
  66   2.0000      -0.754998       -20.5445 
  67   2.0000      -0.738498       -20.0956 
  68   2.0000      -0.734861       -19.9966 
  69   2.0000      -0.718283       -19.5455 
  70   2.0000      -0.691309       -18.8115 
  71   2.0000      -0.679746       -18.4968 
  72   2.0000      -0.661614       -18.0034 
  73   2.0000      -0.650836       -17.7101 
  74   2.0000      -0.648318       -17.6416 
  75   2.0000      -0.642349       -17.4792 
  76   2.0000      -0.633401       -17.2357 
  77   2.0000      -0.623872       -16.9764 
  78   2.0000      -0.611359       -16.6359 
  79   2.0000      -0.603681       -16.4270 
  80   2.0000      -0.603499       -16.4220 
  81   2.0000      -0.599349       -16.3091 
  82   2.0000      -0.582799       -15.8588 
  83   2.0000      -0.573307       -15.6005 
  84   2.0000      -0.572080       -15.5671 
  85   2.0000      -0.567985       -15.4557 
  86   2.0000      -0.554615       -15.0918 
  87   2.0000      -0.542338       -14.7578 
  88   2.0000      -0.538022       -14.6403 
  89   2.0000      -0.525360       -14.2958 
  90   2.0000      -0.506640       -13.7864 
  91   2.0000      -0.503591       -13.7034 
  92   2.0000      -0.500309       -13.6141 
  93   2.0000      -0.488549       -13.2941 
  94   2.0000      -0.484346       -13.1797 
  95   2.0000      -0.481430       -13.1004 
  96   2.0000      -0.479665       -13.0524 
  97   2.0000      -0.477206       -12.9854 
  98   2.0000      -0.476700       -12.9717 
  99   2.0000      -0.469280       -12.7698 
 100   2.0000      -0.468638       -12.7523 
 101   2.0000      -0.460601       -12.5336 
 102   2.0000      -0.458821       -12.4852 
 103   2.0000      -0.454785       -12.3753 
 104   2.0000      -0.453035       -12.3277 
 105   2.0000      -0.452808       -12.3215 
 106   2.0000      -0.451253       -12.2792 
 107   2.0000      -0.449960       -12.2440 
 108   2.0000      -0.444415       -12.0931 
 109   2.0000      -0.442598       -12.0437 
 110   2.0000      -0.440232       -11.9793 
 111   2.0000      -0.437165       -11.8959 
 112   2.0000      -0.431713       -11.7475 
 113   2.0000      -0.424107       -11.5405 
 114   2.0000      -0.423586       -11.5264 
 115   2.0000      -0.422409       -11.4943 
 116   2.0000      -0.418051       -11.3757 
 117   2.0000      -0.415045       -11.2940 
 118   2.0000      -0.414287       -11.2733 
 119   2.0000      -0.409069       -11.1313 
 120   2.0000      -0.402977       -10.9655 
 121   2.0000      -0.401474       -10.9247 
 122   2.0000      -0.395547       -10.7634 
 123   2.0000      -0.394787       -10.7427 
 124   2.0000      -0.393649       -10.7117 
 125   2.0000      -0.391243       -10.6463 
 126   2.0000      -0.387648       -10.5484 
 127   2.0000      -0.385530       -10.4908 
 128   2.0000      -0.378018       -10.2864 
 129   2.0000      -0.375483       -10.2174 
 130   2.0000      -0.363862        -9.9012 
 131   2.0000      -0.356948        -9.7131 
 132   2.0000      -0.356851        -9.7104 
 133   2.0000      -0.354440        -9.6448 
 134   2.0000      -0.330048        -8.9811 
 135   2.0000      -0.328023        -8.9259 
 136   2.0000      -0.313367        -8.5272 
 137   2.0000      -0.302893        -8.2421 
 138   2.0000      -0.300190        -8.1686 
 139   2.0000      -0.293456        -7.9854 
 140   2.0000      -0.288386        -7.8474 
 141   2.0000      -0.283103        -7.7036 
 142   2.0000      -0.281171        -7.6510 
 143   2.0000      -0.276504        -7.5241 
 144   2.0000      -0.271674        -7.3926 
 145   2.0000      -0.267018        -7.2659 
 146   2.0000      -0.257486        -7.0066 
 147   2.0000      -0.246535        -6.7086 
 148   2.0000      -0.232196        -6.3184 
 149   0.0000      -0.094107        -2.5608 
 150   0.0000      -0.076047        -2.0693 
 151   0.0000      -0.045128        -1.2280 
 152   0.0000      -0.041800        -1.1374 
 153   0.0000      -0.022944        -0.6243 
 154   0.0000      -0.021033        -0.5723 
 155   0.0000       0.001674         0.0455 
 156   0.0000       0.004520         0.1230 
 157   0.0000       0.029243         0.7958 
 158   0.0000       0.036746         0.9999 
 159   0.0000       0.050374         1.3708 
*Only the first 10 virtual orbitals were printed.

                    ********************************
                    * MULLIKEN POPULATION ANALYSIS *
                    ********************************

-----------------------
MULLIKEN ATOMIC CHARGES
-----------------------
   0 C :   -0.547106
   1 C :    0.136476
   2 C :    0.317937
   3 N :   -0.609331
   4 C :   -0.253064
   5 C :    0.170879
   6 C :   -0.168460
   7 C :   -0.173643
   8 C :    0.352663
   9 O :   -0.544833
  10 C :    1.086670
  11 F :   -0.277650
  12 F :   -0.290148
  13 F :   -0.292693
  14 C :   -0.190530
  15 C :   -0.179123
  16 S :    1.203605
  17 O :   -0.549594
  18 O :   -0.521787
  19 C :   -0.134635
  20 C :   -0.154699
  21 C :   -0.141258
  22 C :    0.082248
  23 C :    0.530083
  24 O :   -0.440183
  25 O :   -0.622979
  26 C :   -0.149110
  27 C :   -0.137934
  28 N :   -0.405392
  29 C :    0.019441
  30 C :    0.948200
  31 F :   -0.293502
  32 F :   -0.306172
  33 F :   -0.301551
  34 C :    0.117660
  35 C :   -0.202802
  36 C :   -0.122221
  37 C :   -0.116077
  38 C :   -0.197573
  39 C :    0.121102
  40 H :    0.175340
  41 H :    0.164617
  42 H :    0.172372
  43 H :    0.190835
  44 H :    0.170137
  45 H :    0.151349
  46 H :    0.152944
  47 H :    0.154411
  48 H :    0.142692
  49 H :    0.191546
  50 H :    0.185928
  51 H :    0.436870
  52 H :    0.176951
  53 H :    0.186225
  54 H :    0.157310
  55 H :    0.143154
  56 H :    0.141384
  57 H :    0.143024
Sum of atomic charges:   -0.0000000

--------------------------------
MULLIKEN REDUCED ORBITAL CHARGES
--------------------------------
  0 C s       :     3.319922  s :     3.319922
      pz      :     1.069072  p :     3.193198
      px      :     1.061519
      py      :     1.062607
      dz2     :     0.002304  d :     0.033986
      dxz     :     0.010536
      dyz     :     0.008983
      dx2y2   :     0.004115
      dxy     :     0.008047

  1 C s       :     3.179712  s :     3.179712
      pz      :     0.860749  p :     2.643525
      px      :     0.900396
      py      :     0.882380
      dz2     :     0.010741  d :     0.040287
      dxz     :     0.007428
      dyz     :     0.010455
      dx2y2   :     0.005696
      dxy     :     0.005967

  2 C s       :     3.039951  s :     3.039951
      pz      :     0.884473  p :     2.567875
      px      :     0.972180
      py      :     0.711222
      dz2     :     0.020070  d :     0.074237
      dxz     :     0.009648
      dyz     :     0.024155
      dx2y2   :     0.009547
      dxy     :     0.010818

  3 N s       :     3.589797  s :     3.589797
      pz      :     1.622291  p :     3.986361
      px      :     1.224950
      py      :     1.139120
      dz2     :     0.004145  d :     0.033173
      dxz     :     0.005439
      dyz     :     0.004625
      dx2y2   :     0.007883
      dxy     :     0.011083

  4 C s       :     3.272900  s :     3.272900
      pz      :     0.974315  p :     2.924875
      px      :     0.817582
      py      :     1.132978
      dz2     :     0.007536  d :     0.055290
      dxz     :     0.015392
      dyz     :     0.011993
      dx2y2   :     0.016254
      dxy     :     0.004116

  5 C s       :     3.113893  s :     3.113893
      pz      :     0.908836  p :     2.675252
      px      :     0.910267
      py      :     0.856149
      dz2     :     0.005292  d :     0.039975
      dxz     :     0.005896
      dyz     :     0.009800
      dx2y2   :     0.009431
      dxy     :     0.009556

  6 C s       :     3.201979  s :     3.201979
      pz      :     0.979924  p :     2.930068
      px      :     0.973332
      py      :     0.976812
      dz2     :     0.005746  d :     0.036414
      dxz     :     0.005010
      dyz     :     0.008786
      dx2y2   :     0.008195
      dxy     :     0.008677

  7 C s       :     3.196837  s :     3.196837
      pz      :     0.991298  p :     2.942229
      px      :     0.992398
      py      :     0.958533
      dz2     :     0.006486  d :     0.034578
      dxz     :     0.004533
      dyz     :     0.007690
      dx2y2   :     0.007735
      dxy     :     0.008134

  8 C s       :     3.073534  s :     3.073534
      pz      :     0.809543  p :     2.508488
      px      :     0.800743
      py      :     0.898202
      dz2     :     0.013298  d :     0.065314
      dxz     :     0.012677
      dyz     :     0.012416
      dx2y2   :     0.014453
      dxy     :     0.012470

  9 O s       :     3.884970  s :     3.884970
      pz      :     1.520206  p :     4.633899
      px      :     1.538377
      py      :     1.575317
      dz2     :     0.004263  d :     0.025964
      dxz     :     0.004596
      dyz     :     0.006406
      dx2y2   :     0.004762
      dxy     :     0.005936

 10 C s       :     2.715780  s :     2.715780
      pz      :     0.677683  p :     2.032754
      px      :     0.670601
      py      :     0.684471
      dz2     :     0.023048  d :     0.164796
      dxz     :     0.039445
      dyz     :     0.039969
      dx2y2   :     0.023344
      dxy     :     0.038990

 11 F s       :     3.979189  s :     3.979189
      pz      :     1.737963  p :     5.282228
      px      :     1.717093
      py      :     1.827172
      dz2     :     0.002614  d :     0.016233
      dxz     :     0.004843
      dyz     :     0.003054
      dx2y2   :     0.002411
      dxy     :     0.003310

 12 F s       :     3.982324  s :     3.982324
      pz      :     1.742909  p :     5.291530
      px      :     1.803176
      py      :     1.745446
      dz2     :     0.002473  d :     0.016294
      dxz     :     0.003575
      dyz     :     0.004439
      dx2y2   :     0.002402
      dxy     :     0.003405

 13 F s       :     3.981954  s :     3.981954
      pz      :     1.782898  p :     5.294519
      px      :     1.715432
      py      :     1.796190
      dz2     :     0.002407  d :     0.016220
      dxz     :     0.004381
      dyz     :     0.002999
      dx2y2   :     0.002509
      dxy     :     0.003924

 14 C s       :     3.181452  s :     3.181452
      pz      :     1.014773  p :     2.974515
      px      :     1.014258
      py      :     0.945484
      dz2     :     0.005224  d :     0.034563
      dxz     :     0.004590
      dyz     :     0.008852
      dx2y2   :     0.007396
      dxy     :     0.008501

 15 C s       :     3.201805  s :     3.201805
      pz      :     0.970852  p :     2.940897
      px      :     0.984159
      py      :     0.985885
      dz2     :     0.007425  d :     0.036422
      dxz     :     0.005170
      dyz     :     0.006960
      dx2y2   :     0.009150
      dxy     :     0.007717

 16 S s       :     5.214673  s :     5.214673
      pz      :     2.986104  p :     9.046385
      px      :     3.015734
      py      :     3.044547
      dz2     :     0.133290  d :     0.535337
      dxz     :     0.125492
      dyz     :     0.098534
      dx2y2   :     0.053531
      dxy     :     0.124490

 17 O s       :     3.926573  s :     3.926573
      pz      :     1.581468  p :     4.596054
      px      :     1.327163
      py      :     1.687423
      dz2     :     0.004740  d :     0.026967
      dxz     :     0.007896
      dyz     :     0.002884
      dx2y2   :     0.005918
      dxy     :     0.005528

 18 O s       :     3.922396  s :     3.922396
      pz      :     1.303349  p :     4.572611
      px      :     1.580843
      py      :     1.688419
      dz2     :     0.009107  d :     0.026780
      dxz     :     0.007812
      dyz     :     0.006852
      dx2y2   :     0.001657
      dxy     :     0.001352

 19 C s       :     3.226080  s :     3.226080
      pz      :     0.969439  p :     2.869904
      px      :     1.003959
      py      :     0.896506
      dz2     :     0.010376  d :     0.038651
      dxz     :     0.008180
      dyz     :     0.010442
      dx2y2   :     0.004193
      dxy     :     0.005460

 20 C s       :     3.213514  s :     3.213514
      pz      :     1.027996  p :     2.905131
      px      :     0.939390
      py      :     0.937745
      dz2     :     0.011165  d :     0.036054
      dxz     :     0.004973
      dyz     :     0.008696
      dx2y2   :     0.005890
      dxy     :     0.005331

 21 C s       :     3.216733  s :     3.216733
      pz      :     0.989771  p :     2.888881
      px      :     0.948449
      py      :     0.950662
      dz2     :     0.008892  d :     0.035644
      dxz     :     0.007414
      dyz     :     0.010399
      dx2y2   :     0.003846
      dxy     :     0.005091

 22 C s       :     3.167385  s :     3.167385
      pz      :     0.863027  p :     2.711869
      px      :     0.949974
      py      :     0.898868
      dz2     :     0.009805  d :     0.038498
      dxz     :     0.008090
      dyz     :     0.010623
      dx2y2   :     0.004388
      dxy     :     0.005592

 23 C s       :     2.995325  s :     2.995325
      pz      :     0.668688  p :     2.364380
      px      :     0.831105
      py      :     0.864587
      dz2     :     0.040222  d :     0.110212
      dxz     :     0.021646
      dyz     :     0.024955
      dx2y2   :     0.011113
      dxy     :     0.012276

 24 O s       :     3.879144  s :     3.879144
      pz      :     1.607614  p :     4.535316
      px      :     1.429582
      py      :     1.498120
      dz2     :     0.004355  d :     0.025722
      dxz     :     0.005213
      dyz     :     0.006392
      dx2y2   :     0.005505
      dxy     :     0.004258

 25 O s       :     3.872588  s :     3.872588
      pz      :     1.427751  p :     4.729497
      px      :     1.721395
      py      :     1.580351
      dz2     :     0.007824  d :     0.020894
      dxz     :     0.003434
      dyz     :     0.003104
      dx2y2   :     0.001294
      dxy     :     0.005238

 26 C s       :     3.212394  s :     3.212394
      pz      :     1.005518  p :     2.901007
      px      :     0.949581
      py      :     0.945908
      dz2     :     0.011595  d :     0.035708
      dxz     :     0.004894
      dyz     :     0.008237
      dx2y2   :     0.005645
      dxy     :     0.005337

 27 C s       :     3.205662  s :     3.205662
      pz      :     0.950096  p :     2.896338
      px      :     0.960226
      py      :     0.986015
      dz2     :     0.008723  d :     0.035935
      dxz     :     0.007596
      dyz     :     0.010604
      dx2y2   :     0.003849
      dxy     :     0.005163

 28 N s       :     3.721243  s :     3.721243
      pz      :     1.534397  p :     3.648434
      px      :     1.086842
      py      :     1.027195
      dz2     :     0.006123  d :     0.035715
      dxz     :     0.006311
      dyz     :     0.010312
      dx2y2   :     0.006673
      dxy     :     0.006296

 29 C s       :     3.124422  s :     3.124422
      pz      :     0.977107  p :     2.800723
      px      :     0.976919
      py      :     0.846697
      dz2     :     0.011542  d :     0.055414
      dxz     :     0.007685
      dyz     :     0.020359
      dx2y2   :     0.007794
      dxy     :     0.008035

 30 C s       :     2.789316  s :     2.789316
      pz      :     0.772503  p :     2.124408
      px      :     0.643291
      py      :     0.708614
      dz2     :     0.028252  d :     0.138077
      dxz     :     0.021868
      dyz     :     0.028499
      dx2y2   :     0.029852
      dxy     :     0.029606

 31 F s       :     3.984848  s :     3.984848
      pz      :     1.574250  p :     5.291867
      px      :     1.895844
      py      :     1.821773
      dz2     :     0.005881  d :     0.016787
      dxz     :     0.003062
      dyz     :     0.005668
      dx2y2   :     0.001117
      dxy     :     0.001058

 32 F s       :     3.983753  s :     3.983753
      pz      :     1.914948  p :     5.305969
      px      :     1.787173
      py      :     1.603848
      dz2     :     0.002307  d :     0.016450
      dxz     :     0.001052
      dyz     :     0.002997
      dx2y2   :     0.004158
      dxy     :     0.005936

 33 F s       :     3.984361  s :     3.984361
      pz      :     1.911081  p :     5.300650
      px      :     1.502396
      py      :     1.887173
      dz2     :     0.002269  d :     0.016541
      dxz     :     0.003742
      dyz     :     0.000457
      dx2y2   :     0.005984
      dxy     :     0.004088

 34 C s       :     3.141910  s :     3.141910
      pz      :     0.850302  p :     2.699504
      px      :     0.959397
      py      :     0.889806
      dz2     :     0.010464  d :     0.040926
      dxz     :     0.006777
      dyz     :     0.011738
      dx2y2   :     0.005960
      dxy     :     0.005988

 35 C s       :     3.208204  s :     3.208204
      pz      :     0.977228  p :     2.958829
      px      :     0.979068
      py      :     1.002533
      dz2     :     0.008025  d :     0.035769
      dxz     :     0.005997
      dyz     :     0.012624
      dx2y2   :     0.004376
      dxy     :     0.004747

 36 C s       :     3.194911  s :     3.194911
      pz      :     0.943579  p :     2.890716
      px      :     0.971133
      py      :     0.976004
      dz2     :     0.010222  d :     0.036594
      dxz     :     0.006604
      dyz     :     0.010724
      dx2y2   :     0.004530
      dxy     :     0.004515

 37 C s       :     3.194659  s :     3.194659
      pz      :     0.976403  p :     2.884640
      px      :     0.960698
      py      :     0.947539
      dz2     :     0.011737  d :     0.036777
      dxz     :     0.003687
      dyz     :     0.010172
      dx2y2   :     0.005632
      dxy     :     0.005550

 38 C s       :     3.210132  s :     3.210132
      pz      :     0.994862  p :     2.951892
      px      :     0.991512
      py      :     0.965518
      dz2     :     0.008725  d :     0.035549
      dxz     :     0.005394
      dyz     :     0.012537
      dx2y2   :     0.004319
      dxy     :     0.004574

 39 C s       :     3.136073  s :     3.136073
      pz      :     0.848841  p :     2.701691
      px      :     0.953786
      py      :     0.899064
      dz2     :     0.010074  d :     0.041134
      dxz     :     0.007606
      dyz     :     0.012517
      dx2y2   :     0.005451
      dxy     :     0.005486

 40 H s       :     0.824660  s :     0.824660

 41 H s       :     0.835383  s :     0.835383

 42 H s       :     0.827628  s :     0.827628

 43 H s       :     0.809165  s :     0.809165

 44 H s       :     0.829863  s :     0.829863

 45 H s       :     0.848651  s :     0.848651

 46 H s       :     0.847056  s :     0.847056

 47 H s       :     0.845589  s :     0.845589

 48 H s       :     0.857308  s :     0.857308

 49 H s       :     0.808454  s :     0.808454

 50 H s       :     0.814072  s :     0.814072

 51 H s       :     0.563130  s :     0.563130

 52 H s       :     0.823049  s :     0.823049

 53 H s       :     0.813775  s :     0.813775

 54 H s       :     0.842690  s :     0.842690

 55 H s       :     0.856846  s :     0.856846

 56 H s       :     0.858616  s :     0.858616

 57 H s       :     0.856976  s :     0.856976



                     *******************************
                     * LOEWDIN POPULATION ANALYSIS *
                     *******************************

----------------------
LOEWDIN ATOMIC CHARGES
----------------------
   0 C :   -0.362147
   1 C :    0.014981
   2 C :    0.030720
   3 N :   -0.280347
   4 C :   -0.145566
   5 C :   -0.039357
   6 C :   -0.121344
   7 C :   -0.140050
   8 C :    0.086781
   9 O :   -0.159467
  10 C :    0.359695
  11 F :   -0.086228
  12 F :   -0.103930
  13 F :   -0.105984
  14 C :   -0.158310
  15 C :   -0.125666
  16 S :    1.261421
  17 O :   -0.573244
  18 O :   -0.563052
  19 C :   -0.176209
  20 C :   -0.109335
  21 C :   -0.087509
  22 C :   -0.037900
  23 C :    0.179623
  24 O :   -0.256541
  25 O :   -0.333426
  26 C :   -0.098603
  27 C :   -0.101082
  28 N :   -0.100856
  29 C :   -0.014983
  30 C :    0.311283
  31 F :   -0.097234
  32 F :   -0.112383
  33 F :   -0.108420
  34 C :   -0.013673
  35 C :   -0.114650
  36 C :   -0.118816
  37 C :   -0.113730
  38 C :   -0.120191
  39 C :   -0.004145
  40 H :    0.144001
  41 H :    0.138691
  42 H :    0.140435
  43 H :    0.145651
  44 H :    0.140934
  45 H :    0.143013
  46 H :    0.147085
  47 H :    0.142828
  48 H :    0.139384
  49 H :    0.162139
  50 H :    0.162839
  51 H :    0.351700
  52 H :    0.156743
  53 H :    0.160105
  54 H :    0.145473
  55 H :    0.139155
  56 H :    0.138343
  57 H :    0.141357

-------------------------------
LOEWDIN REDUCED ORBITAL CHARGES
-------------------------------
  0 C s       :     2.972695  s :     2.972695
      pz      :     1.099941  p :     3.323378
      px      :     1.116515
      py      :     1.106921
      dz2     :     0.004795  d :     0.066075
      dxz     :     0.020087
      dyz     :     0.018229
      dx2y2   :     0.007730
      dxy     :     0.015233

  1 C s       :     2.889980  s :     2.889980
      pz      :     1.044069  p :     2.996840
      px      :     0.933867
      py      :     1.018905
      dz2     :     0.028773  d :     0.098198
      dxz     :     0.016187
      dyz     :     0.028397
      dx2y2   :     0.012027
      dxy     :     0.012815

  2 C s       :     2.842777  s :     2.842777
      pz      :     1.033184  p :     2.948062
      px      :     0.991515
      py      :     0.923364
      dz2     :     0.051544  d :     0.178441
      dxz     :     0.021223
      dyz     :     0.058685
      dx2y2   :     0.022230
      dxy     :     0.024760

  3 N s       :     3.173837  s :     3.173837
      pz      :     1.592243  p :     4.021628
      px      :     1.248935
      py      :     1.180450
      dz2     :     0.009372  d :     0.084882
      dxz     :     0.011825
      dyz     :     0.011612
      dx2y2   :     0.021657
      dxy     :     0.030416

  4 C s       :     2.921282  s :     2.921282
      pz      :     1.049128  p :     3.105811
      px      :     0.926024
      py      :     1.130658
      dz2     :     0.014970  d :     0.118473
      dxz     :     0.036628
      dyz     :     0.023414
      dx2y2   :     0.035141
      dxy     :     0.008319

  5 C s       :     2.877752  s :     2.877752
      pz      :     1.000397  p :     3.061128
      px      :     0.994253
      py      :     1.066478
      dz2     :     0.012306  d :     0.100477
      dxz     :     0.013765
      dyz     :     0.024407
      dx2y2   :     0.025868
      dxy     :     0.024130

  6 C s       :     2.917223  s :     2.917223
      pz      :     1.023040  p :     3.118957
      px      :     1.025042
      py      :     1.070875
      dz2     :     0.012782  d :     0.085163
      dxz     :     0.012250
      dyz     :     0.020062
      dx2y2   :     0.019443
      dxy     :     0.020625

  7 C s       :     2.916609  s :     2.916609
      pz      :     1.037016  p :     3.141929
      px      :     1.039557
      py      :     1.065356
      dz2     :     0.014183  d :     0.081512
      dxz     :     0.011970
      dyz     :     0.018545
      dx2y2   :     0.017791
      dxy     :     0.019023

  8 C s       :     2.858518  s :     2.858518
      pz      :     0.907411  p :     2.899667
      px      :     0.902671
      py      :     1.089585
      dz2     :     0.028607  d :     0.155034
      dxz     :     0.029715
      dyz     :     0.031041
      dx2y2   :     0.034196
      dxy     :     0.031474

  9 O s       :     3.471009  s :     3.471009
      pz      :     1.516032  p :     4.631187
      px      :     1.532768
      py      :     1.582387
      dz2     :     0.009347  d :     0.057271
      dxz     :     0.011545
      dyz     :     0.014244
      dx2y2   :     0.009344
      dxy     :     0.012791

 10 C s       :     2.819330  s :     2.819330
      pz      :     0.813402  p :     2.442389
      px      :     0.809840
      py      :     0.819147
      dz2     :     0.045104  d :     0.378585
      dxz     :     0.096463
      dyz     :     0.096372
      dx2y2   :     0.047653
      dxy     :     0.092993

 11 F s       :     3.760364  s :     3.760364
      pz      :     1.743473  p :     5.295150
      px      :     1.724307
      py      :     1.827370
      dz2     :     0.004007  d :     0.030715
      dxz     :     0.010071
      dyz     :     0.006092
      dx2y2   :     0.003912
      dxy     :     0.006633

 12 F s       :     3.765244  s :     3.765244
[...]
      dyz     :     0.070444
      dx2y2   :     0.071886
      dxy     :     0.071278

 31 F s       :     3.758626  s :     3.758626
      pz      :     1.590387  p :     5.306951
      px      :     1.892551
      py      :     1.824013
      dz2     :     0.011977  d :     0.031657
      dxz     :     0.004884
      dyz     :     0.011018
      dx2y2   :     0.001949
      dxy     :     0.001829

 32 F s       :     3.760869  s :     3.760869
      pz      :     1.905629  p :     5.320249
      px      :     1.790703
      py      :     1.623916
      dz2     :     0.004856  d :     0.031265
      dxz     :     0.001796
      dyz     :     0.004960
      dx2y2   :     0.007778
      dxy     :     0.011875

 33 F s       :     3.761145  s :     3.761145
      pz      :     1.902185  p :     5.315928
      px      :     1.528631
      py      :     1.885112
      dz2     :     0.004843  d :     0.031347
      dxz     :     0.006229
      dyz     :     0.000780
      dx2y2   :     0.012078
      dxy     :     0.007417

 34 C s       :     2.859135  s :     2.859135
      pz      :     1.034430  p :     3.048524
      px      :     0.976492
      py      :     1.037603
      dz2     :     0.029909  d :     0.106013
      dxz     :     0.015678
      dyz     :     0.032810
      dx2y2   :     0.013701
      dxy     :     0.013915

 35 C s       :     2.917693  s :     2.917693
      pz      :     1.081738  p :     3.113519
      px      :     0.982935
      py      :     1.048847
      dz2     :     0.021621  d :     0.083438
      dxz     :     0.012595
      dyz     :     0.030402
      dx2y2   :     0.009119
      dxy     :     0.009701

 36 C s       :     2.916768  s :     2.916768
      pz      :     1.074370  p :     3.115612
      px      :     0.981357
      py      :     1.059885
      dz2     :     0.027828  d :     0.086436
      dxz     :     0.015254
      dyz     :     0.027354
      dx2y2   :     0.007976
      dxy     :     0.008023

 37 C s       :     2.917102  s :     2.917102
      pz      :     1.077651  p :     3.109928
      px      :     0.975542
      py      :     1.056736
      dz2     :     0.025540  d :     0.086700
      dxz     :     0.007943
      dyz     :     0.025787
      dx2y2   :     0.013680
      dxy     :     0.013749

 38 C s       :     2.916220  s :     2.916220
      pz      :     1.060686  p :     3.121382
      px      :     1.000526
      py      :     1.060170
      dz2     :     0.021520  d :     0.082590
      dxz     :     0.011638
      dyz     :     0.030169
      dx2y2   :     0.009426
      dxy     :     0.009837

 39 C s       :     2.856671  s :     2.856671
      pz      :     1.045912  p :     3.042449
      px      :     0.974189
      py      :     1.022347
      dz2     :     0.028866  d :     0.105025
      dxz     :     0.017191
      dyz     :     0.033682
      dx2y2   :     0.012428
      dxy     :     0.012858

 40 H s       :     0.855999  s :     0.855999

 41 H s       :     0.861309  s :     0.861309

 42 H s       :     0.859565  s :     0.859565

 43 H s       :     0.854349  s :     0.854349

 44 H s       :     0.859066  s :     0.859066

 45 H s       :     0.856987  s :     0.856987

 46 H s       :     0.852915  s :     0.852915

 47 H s       :     0.857172  s :     0.857172

 48 H s       :     0.860616  s :     0.860616

 49 H s       :     0.837861  s :     0.837861

 50 H s       :     0.837161  s :     0.837161

 51 H s       :     0.648300  s :     0.648300

 52 H s       :     0.843257  s :     0.843257

 53 H s       :     0.839895  s :     0.839895

 54 H s       :     0.854527  s :     0.854527

 55 H s       :     0.860845  s :     0.860845

 56 H s       :     0.861657  s :     0.861657

 57 H s       :     0.858643  s :     0.858643



                      *****************************
                      * MAYER POPULATION ANALYSIS *
                      *****************************

  NA   - Mulliken gross atomic population
  ZA   - Total nuclear charge
  QA   - Mulliken gross atomic charge
  VA   - Mayer's total valence
  BVA  - Mayer's bonded valence
  FA   - Mayer's free valence

  ATOM       NA         ZA         QA         VA         BVA        FA
  0 C      6.5471     6.0000    -0.5471     3.8271     3.8271    -0.0000
  1 C      5.8635     6.0000     0.1365     3.8734     3.8734     0.0000
  2 C      5.6821     6.0000     0.3179     3.8771     3.8771     0.0000
  3 N      7.6093     7.0000    -0.6093     2.7824     2.7824    -0.0000
  4 C      6.2531     6.0000    -0.2531     3.8105     3.8105    -0.0000
  5 C      5.8291     6.0000     0.1709     3.8814     3.8814     0.0000
  6 C      6.1685     6.0000    -0.1685     3.9459     3.9459     0.0000
  7 C      6.1736     6.0000    -0.1736     3.9128     3.9128    -0.0000
  8 C      5.6473     6.0000     0.3527     3.8106     3.8106    -0.0000
  9 O      8.5448     8.0000    -0.5448     1.9612     1.9612     0.0000
 10 C      4.9133     6.0000     1.0867     3.9943     3.9943    -0.0000
 11 F      9.2777     9.0000    -0.2777     1.0897     1.0897    -0.0000
 12 F      9.2901     9.0000    -0.2901     1.0667     1.0667     0.0000
 13 F      9.2927     9.0000    -0.2927     1.0634     1.0634    -0.0000
 14 C      6.1905     6.0000    -0.1905     3.9057     3.9057    -0.0000
 15 C      6.1791     6.0000    -0.1791     3.9437     3.9437    -0.0000
 16 S     14.7964    16.0000     1.2036     5.0821     5.0821    -0.0000
 17 O      8.5496     8.0000    -0.5496     1.8770     1.8770    -0.0000
 18 O      8.5218     8.0000    -0.5218     1.9238     1.9238     0.0000
 19 C      6.1346     6.0000    -0.1346     3.8349     3.8349     0.0000
 20 C      6.1547     6.0000    -0.1547     3.9051     3.9051     0.0000
 21 C      6.1413     6.0000    -0.1413     3.8906     3.8906     0.0000
 22 C      5.9178     6.0000     0.0822     3.9247     3.9247     0.0000
 23 C      5.4699     6.0000     0.5301     3.9544     3.9544     0.0000
 24 O      8.4402     8.0000    -0.4402     2.0703     2.0703    -0.0000
 25 O      8.6230     8.0000    -0.6230     1.8708     1.8708     0.0000
 26 C      6.1491     6.0000    -0.1491     3.8671     3.8671    -0.0000
 27 C      6.1379     6.0000    -0.1379     3.9198     3.9198    -0.0000
 28 N      7.4054     7.0000    -0.4054     2.9398     2.9398     0.0000
 29 C      5.9806     6.0000     0.0194     3.8859     3.8859    -0.0000
 30 C      5.0518     6.0000     0.9482     3.8324     3.8324     0.0000
 31 F      9.2935     9.0000    -0.2935     1.0778     1.0778    -0.0000
 32 F      9.3062     9.0000    -0.3062     1.0458     1.0458     0.0000
 33 F      9.3016     9.0000    -0.3016     1.0518     1.0518     0.0000
 34 C      5.8823     6.0000     0.1177     3.9815     3.9815     0.0000
 35 C      6.2028     6.0000    -0.2028     3.8909     3.8909     0.0000
 36 C      6.1222     6.0000    -0.1222     3.9249     3.9249    -0.0000
 37 C      6.1161     6.0000    -0.1161     3.9257     3.9257     0.0000
 38 C      6.1976     6.0000    -0.1976     3.8782     3.8782    -0.0000
 39 C      5.8789     6.0000     0.1211     3.9905     3.9905     0.0000
 40 H      0.8247     1.0000     0.1753     0.9275     0.9275     0.0000
 41 H      0.8354     1.0000     0.1646     0.9315     0.9315    -0.0000
 42 H      0.8276     1.0000     0.1724     0.9455     0.9455    -0.0000
 43 H      0.8092     1.0000     0.1908     0.9271     0.9271    -0.0000
 44 H      0.8299     1.0000     0.1701     0.9379     0.9379    -0.0000
 45 H      0.8487     1.0000     0.1513     0.9384     0.9384    -0.0000
 46 H      0.8471     1.0000     0.1529     0.9353     0.9353    -0.0000
 47 H      0.8456     1.0000     0.1544     0.9486     0.9486     0.0000
 48 H      0.8573     1.0000     0.1427     0.9441     0.9441    -0.0000
 49 H      0.8085     1.0000     0.1915     0.9346     0.9346     0.0000
 50 H      0.8141     1.0000     0.1859     0.9372     0.9372     0.0000
 51 H      0.5631     1.0000     0.4369     0.7931     0.7931     0.0000
 52 H      0.8230     1.0000     0.1770     0.9354     0.9354    -0.0000
 53 H      0.8138     1.0000     0.1862     0.9373     0.9373    -0.0000
 54 H      0.8427     1.0000     0.1573     0.9541     0.9541    -0.0000
 55 H      0.8568     1.0000     0.1432     0.9356     0.9356    -0.0000
 56 H      0.8586     1.0000     0.1414     0.9356     0.9356     0.0000
 57 H      0.8570     1.0000     0.1430     0.9420     0.9420    -0.0000

  Mayer bond orders larger than 0.100000
B(  0-C ,  1-C ) :   1.0073 B(  0-C , 40-H ) :   0.9200 B(  0-C , 41-H ) :   0.9245 
B(  0-C , 42-H ) :   0.9191 B(  1-C ,  2-C ) :   1.4223 B(  1-C , 39-C ) :   1.2638 
B(  2-C ,  3-N ) :   0.8879 B(  2-C , 28-N ) :   1.2888 B(  3-N ,  4-C ) :   0.9156 
B(  3-N , 16-S ) :   0.8072 B(  4-C ,  5-C ) :   0.9407 B(  4-C , 43-H ) :   0.9159 
B(  4-C , 44-H ) :   0.9225 B(  5-C ,  6-C ) :   1.4315 B(  5-C , 15-C ) :   1.4235 
B(  6-C ,  7-C ) :   1.4327 B(  6-C , 45-H ) :   0.9192 B(  7-C ,  8-C ) :   1.4187 
B(  7-C , 46-H ) :   0.9174 B(  8-C ,  9-O ) :   0.8261 B(  8-C , 14-C ) :   1.3895 
B(  9-O , 10-C ) :   0.9890 B( 10-C , 11-F ) :   1.0097 B( 10-C , 12-F ) :   0.9697 
B( 10-C , 13-F ) :   0.9670 B( 14-C , 15-C ) :   1.4364 B( 14-C , 47-H ) :   0.9091 
B( 15-C , 48-H ) :   0.9148 B( 16-S , 17-O ) :   1.6147 B( 16-S , 18-O ) :   1.6748 
B( 16-S , 19-C ) :   0.8088 B( 19-C , 20-C ) :   1.3791 B( 19-C , 27-C ) :   1.3942 
B( 20-C , 21-C ) :   1.4128 B( 20-C , 49-H ) :   0.9069 B( 21-C , 22-C ) :   1.4012 
B( 21-C , 50-H ) :   0.9082 B( 22-C , 23-C ) :   1.0061 B( 22-C , 26-C ) :   1.3830 
B( 23-C , 24-O ) :   1.8653 B( 23-C , 25-O ) :   1.0277 B( 25-O , 51-H ) :   0.7401 
B( 26-C , 27-C ) :   1.4170 B( 26-C , 52-H ) :   0.9137 B( 27-C , 53-H ) :   0.9069 
B( 28-N , 29-C ) :   1.4419 B( 29-C , 30-C ) :   0.9521 B( 29-C , 34-C ) :   1.2169 
B( 30-C , 31-F ) :   0.9609 B( 30-C , 32-F ) :   0.9385 B( 30-C , 33-F ) :   0.9448 
B( 34-C , 35-C ) :   1.3034 B( 34-C , 39-C ) :   1.2864 B( 35-C , 36-C ) :   1.5074 
B( 35-C , 38-C ) :   0.1049 B( 35-C , 54-H ) :   0.9034 B( 36-C , 37-C ) :   1.3552 
B( 36-C , 55-H ) :   0.9278 B( 37-C , 38-C ) :   1.5099 B( 37-C , 56-H ) :   0.9281 
B( 38-C , 39-C ) :   1.2920 B( 38-C , 57-H ) :   0.9153 

-------
TIMINGS
-------

Total SCF time: 0 days 0 hours 8 min 8 sec 

Total time                  ....     488.835 sec
Sum of individual times     ....     488.123 sec  ( 99.9%)

SCF preparation             ....       0.789 sec  (  0.2%)
Fock matrix formation       ....     482.395 sec  ( 98.7%)
  Startup                   ....       0.276 sec  (  0.1% of F)
  Split-RI-J                ....      68.833 sec  ( 14.3% of F)
  Chain of spheres X        ....     371.308 sec  ( 77.0% of F)
  XC integration            ....      38.896 sec  (  8.1% of F)
    XC Preparation          ....       0.000 sec  (  0.0% of XC)
    Basis function eval.    ....      15.011 sec  ( 38.6% of XC)
    Density eval.           ....       9.404 sec  ( 24.2% of XC)
    XC-Functional eval.     ....       1.528 sec  (  3.9% of XC)
    XC-Potential eval.      ....      10.340 sec  ( 26.6% of XC)
Diagonalization             ....       0.000 sec  (  0.0%)
Density matrix formation    ....       1.025 sec  (  0.2%)
Total Energy calculation    ....       0.128 sec  (  0.0%)
Population analysis         ....       0.093 sec  (  0.0%)
Orbital Transformation      ....       0.546 sec  (  0.1%)
Orbital Orthonormalization  ....       0.000 sec  (  0.0%)
DIIS solution               ....       1.764 sec  (  0.4%)
SOSCF solution              ....       1.382 sec  (  0.3%)
Finished LeanSCF after 488.9 sec

Maximum memory used throughout the entire LEANSCF-calculation: 107.4 MB

-------------------------   --------------------
FINAL SINGLE POINT ENERGY     -2483.218426515622
-------------------------   --------------------


------------------------------------------------------------------------------
                              ORCA PROPERTY CALCULATIONS
------------------------------------------------------------------------------

GBWName                                 ... /home/nmrbox/aojoawo/Documents/ERDOS/inputs/CHEMBL3682591.gbw
Number of atoms                         ...     58
Number of basis functions               ...    600
Max core memory                         ...   1024 MB

Electric properties:
Dipole moment                           ... YES
Quadrupole moment                       ...  NO
Static polarizability (Dipole/Dipole)   ...  NO
Static polarizability (Dipole/Quad.)    ...  NO
Static polarizability (Quad./Quad.)     ...  NO
Static polarizability (Velocity)        ...  NO

Atomic electric properties:
Dipole moment                           ...  NO
Quadrupole moment                       ...  NO
Static polarizability                   ...  NO

Choice of electric origin               ... Center of mass
Position of electric origin             ...     0.111736    -0.067142    -0.376232

General magnetic properties:
Magnetizability                         ...  NO

EPR properties:
g-Tensor (aka g-matrix)                 ...  NO
Zero-Field splitting spin-orbit         ...  NO
Zero-field splitting spin-spin          ...  NO
Hyperfine couplings                     ...  NO (   0 nuclei)
Quadrupole couplings                    ...  NO (   0 nuclei)
Contact density                         ...  NO (   0 nuclei)

NMR properties:
Chemical shifts                         ...  NO (   0 nuclei)
Spin-rotation constants                 ...  NO (   0 nuclei)
Spin-spin couplings                     ...  NO (   0 nuclei,    0 pairs)

Choice of magnetic origin               ... GIAO
Position of magnetic origin             ...     0.000000     0.000000     0.000000

Properties with geometric perturbations:
SCF Hessian                             ...  NO
IR spectrum                             ...  NO
VCD spectrum                            ...  NO
X-ray spectroscopy properties:
SCF XES/XAS/RIXS spectra                ...  NO


-------------
DIPOLE MOMENT
-------------

Method             : SCF
Type of density    : Electron Density
Multiplicity       :   1
Irrep              :   0
Energy             : -2483.2184265156224683 Eh
Relativity type    : 
Basis              : AO
                                X                 Y                 Z
Electronic contribution:     10.610320155     -13.664070531      -6.991552475
Nuclear contribution   :     -9.184802286      13.578866155       9.425933622
                        -----------------------------------------
Total Dipole Moment    :      1.425517869      -0.085204375       2.434381147
                        -----------------------------------------
Magnitude (a.u.)       :      2.822334591
Magnitude (Debye)      :      7.173804420



--------------------
Rotational spectrum 
--------------------
 
Rotational constants in cm-1:             0.003438             0.001797             0.001386 
Rotational constants in MHz :           103.058565            53.861344            41.547945 

Dipole components along the rotational axes: 
x,y,z [a.u.] :    -1.378423     2.029313    -1.395497 
x,y,z [Debye]:    -3.503673     5.158104    -3.547071 

 

Dipole moment calculation done in   0.0 sec 

Maximum memory used throughout the entire PROP-calculation: 53.7 MB

--------------------------------
SUGGESTED CITATIONS FOR THIS RUN
--------------------------------

Below you find a list of papers that are relevant to this ORCA run
We neither can nor want to force you to cite these papers, but we appreciate if you do
You receive ORCA, which is the product of decades of hard work by many enthusiastic individuals, for free
The only thing we kindly ask in return is that you cite our papers,
We deeply appreciate it, if you show your appreciation for ORCA by not just citing the generic ORCA reference.

Please note that relegating all ORCA citations to the supporting information does *not* help us.
SI sections are not indexed - citations you put there will not count into any citation statistics
But we need these citations in order to attract the funding resources that allow us to do what we are doing

Therefore, if you are a happy ORCA user, please consider citing a few of the papers listed below in the main body of your paper

In addition to the list printed below, the program has created the file /home/nmrbox/aojoawo/Documents/ERDOS/inputs/CHEMBL3682591.bibtex that contains the list in bibtex format
You can import this file easily into all common literature databanks and citation aid programs


List of essential papers. We consider these as the minimum necessary citations

  1. Neese,F.
     Software update: the ORCA program system, version 5.0
     WIRES Comput. Molec. Sci., 2022 12(1)e1606
     doi.org/10.1002/wcms.1606

List of papers to cite with high priority. The work reported in these papers was absolutely
necessary for this run to complete.
Our perspective: the developers of density functionals and basis sets usually get cited in chemistry papers
Good! But without the algorithms to do something with them, the functionals or basis sets would not do anything.
Hence, in our opinion, the algorithm design and method developments papers are equally worthy of getting cited

  1. Neese,F.
     An improvement of the resolution of the identity approximation for the formation of the Coulomb matrix
     J. Comp. Chem., 2003 24(14)1740-1747
     doi.org/10.1002/jcc.10318
  2. Neese,F.; Wennmohs,F.; Hansen,A.; Becker,U.
     Efficient, approximate and parallel Hartree-Fock and hybrid DFT calculations. A 'chain-of-spheres' algorithm for the Hartree-Fock exchange
     Chem. Phys., 2009 356(1-3)98-109
     doi.org/10.1016/j.chemphys.2008.10.036
  3. Helmich-Paris,B.; de Souza,B.; Neese,F.; Izsák,R.
     An improved chain of spheres for exchange algorithm
     J. Chem. Phys., 2021 155 104109
     doi.org/doi: 10.1063/5.0058766.
  4. Neese,F.
     The SHARK Integral Generation and Digestion System
     J. Comp. Chem., 2022  1-16
     doi.org/10.1002/jcc.26942

List of suggested additional citations. These are papers that are important in the 'surrounding' of 
of this run, or papers that preceded the highly important papers. If you like your results we are grateful for a citation.

  1. Izsak,R.; Neese,F.
     An overlap fitted chain of spheres exchange method
     J. Chem. Phys., 2011 135 144105
     doi.org/10.1063/1.3646921
  2. Izsak,R.; Hansen,A.; Neese,F.
     The resolution of identity and chain of spheres approximations for the LPNO-CCSD singles Fock term
     Molec. Phys., 2012 110 2413-2417
     doi.org/10.1080/00268976.2012.687466
  3. Neese,F.
     The ORCA program system
     WIRES Comput. Molec. Sci., 2012 2(1)73-78
     doi.org/10.1002/wcms.81
  4. Izsak,R.; Neese,F.; Klopper,W.
     Robust fitting techniques in the chain of spheres approximation to the Fock exchange: The role of the complementary space
     J. Chem. Phys., 2013 139 
     doi.org/10.1063/1.4819264
  5. Neese,F.
     Software update: the ORCA program system, version 4.0
     WIRES Comput. Molec. Sci., 2018 8(1)1-6
     doi.org/10.1002/wcms.1327
  6. Neese,F.; Wennmohs,F.; Becker,U.; Riplinger,C.
     The ORCA quantum chemistry program package
     J. Chem. Phys., 2020 152 Art. No. L224108
     doi.org/10.1063/5.0004608

List of optional additional citations

  1. Neese,F.
     Approximate second-order SCF convergence for spin unrestricted wavefunctions
     Chem. Phys. Lett., 2000 325(1-3)93-98
     doi.org/10.1016/s0009-2614(00)00662-x

Timings for individual modules:

Sum of individual times          ...      507.988 sec (=   8.466 min)
Startup calculation              ...       12.459 sec (=   0.208 min)   2.5 %
SCF iterations                   ...      495.321 sec (=   8.255 min)  97.5 %
Property calculations            ...        0.208 sec (=   0.003 min)   0.0 %
                             ****ORCA TERMINATED NORMALLY****
TOTAL RUN TIME: 0 days 0 hours 8 minutes 28 seconds 845 msec
