
                                 *****************
                                 * O   R   C   A *
                                 *****************

                                            #,                                       
                                            ###                                      
                                            ####                                     
                                            #####                                    
                                            ######                                   
                                           ########,                                 
                                     ,,################,,,,,                         
                               ,,#################################,,                 
                          ,,##########################################,,             
                       ,#########################################, ''#####,          
                    ,#############################################,,   '####,        
                  ,##################################################,,,,####,       
                ,###########''''           ''''###############################       
              ,#####''   ,,,,##########,,,,          '''####'''          '####       
            ,##' ,,,,###########################,,,                        '##       
           ' ,,###''''                  '''############,,,                           
         ,,##''                                '''############,,,,        ,,,,,,###''
      ,#''                                            '''#######################'''  
     '                                                          ''''####''''         
             ,#######,   #######,   ,#######,      ##                                
            ,#'     '#,  ##    ##  ,#'     '#,    #''#        ,####,   ,####,        
            ##       ##  ##   ,#'  ##            #'  '#       #'       #'  '#        
            ##       ##  #######   ##           ,######,      #####,   #    #        
            '#,     ,#'  ##    ##  '#,     ,#' ,#      #,     #,   #   #,  ,#        
             '#######'   ##     ##  '#######'  #'      '#     '####' # '####'        



                #########################################################
                #                        -***-                          #
                #          Department of theory and spectroscopy        #
                #                                                       #
                #                      Frank Neese                      #
                #                                                       #
                #     Directorship, Architecture, Infrastructure        #
                #                    SHARK, DRIVERS                     #
                #        Core code/Algorithms in most modules           #
                #                                                       #
                #        Max Planck Institute fuer Kohlenforschung      #
                #                Kaiser Wilhelm Platz 1                 #
                #                 D-45470 Muelheim/Ruhr                 #
                #                      Germany                          #
                #                                                       #
                #                  All rights reserved                  #
                #                        -***-                          #
                #########################################################


                         Program Version 6.0.0  -   RELEASE  -


 With contributions from (in alphabetic order):
   Daniel Aravena         : Magnetic Suceptibility
   Michael Atanasov       : Ab Initio Ligand Field Theory (pilot matlab implementation)
   Alexander A. Auer      : GIAO ZORA, VPT2 properties, NMR spectrum
   Ute Becker             : All parallelization in ORCA, NUMFREQ, NUMCALC
   Giovanni Bistoni       : ED, misc. LED, open-shell LED, HFLD
   Martin Brehm           : Molecular dynamics
   Dmytro Bykov           : pre 5.0 version of the SCF Hessian
   Marcos Casanova-Páez   : Triplet and SCS-CIS(D). UHF-(DLPNO)-IP/EA/STEOM-CCSD. UHF-CVS-IP/STEOM-CCSD
   Vijay G. Chilkuri      : MRCI spin determinant printing, contributions to CSF-ICE
   Pauline Colinet        : FMM embedding
   Dipayan Datta          : RHF DLPNO-CCSD density
   Achintya Kumar Dutta   : EOM-CC, STEOM-CC
   Nicolas Foglia         : Exact transition moments, OPA infrastructure, MCD improvements
   Dmitry Ganyushin       : Spin-Orbit,Spin-Spin,Magnetic field MRCI
   Miquel Garcia          : C-PCM and meta-GGA Hessian, CCSD/C-PCM, Gaussian charge scheme
   Tiago L. C. Gouveia    : GS-ROHF, GS-ROCIS
   Yang Guo               : DLPNO-NEVPT2, F12-NEVPT2, CIM, IAO-localization
   Andreas Hansen         : Spin unrestricted coupled pair/coupled cluster methods
   Ingolf Harden          : AUTO-CI MPn and infrastructure 
   Benjamin Helmich-Paris : MC-RPA, TRAH-(SCF,CASSCF), AVAS, COSX integrals, SCF dyn. polar.
   Lee Huntington         : MR-EOM, pCC
   Robert Izsak           : Overlap fitted RIJCOSX, COSX-SCS-MP3, EOM
   Riya Kayal             : Wick's Theorem for AUTO-CI, AUTO-CI UHF-CCSDT
   Emily Kempfer          : AUTO-CI, RHF CISDT and CCSDT
   Christian Kollmar      : KDIIS, OOCD, Brueckner-CCSD(T), CCSD density, CASPT2, CASPT2-K, improved NEVPT2
   Axel Koslowski         : Symmetry handling
   Simone Kossmann        : Meta GGA functionals, TD-DFT gradient, OOMP2, (MP2 Hessian; deprecated post 5.0)
   Lucas Lang             : DCDCAS
   Marvin Lechner         : AUTO-CI (C++ implementation), FIC-MRCC
   Spencer Leger          : CASSCF response
   Dagmar Lenk            : GEPOL surface, SMD, ORCA-2-JSON
   Dimitrios Liakos       : Extrapolation schemes; Compound Job, initial MDCI parallelization
   Dimitrios Manganas     : Further ROCIS development; embedding schemes. LFT, Crystal Embedding
   Dimitrios Pantazis     : SARC Basis sets
   Anastasios Papadopoulos: AUTO-CI, single reference methods and gradients
   Taras Petrenko         : pre 6.0 DFT Hessian and TD-DFT gradient, (ASA, deprecated), ECA, 1-Electron XAS/XES, NRVS
   Peter Pinski           : DLPNO-MP2, DLPNO-MP2 Gradient
   Christoph Reimann      : Effective Core Potentials
   Marius Retegan         : Local ZFS, SOC
   Christoph Riplinger    : Optimizer, TS searches, QM/MM, DLPNO-CCSD(T), (RO)-DLPNO pert. Triples
   Michael Roemelt        : Original ROCIS implementation
   Masaaki Saitow         : Open-shell DLPNO-CCSD energy and density
   Barbara Sandhoefer     : DKH picture change effects
   Kantharuban Sivalingam : CASSCF convergence/infrastructure, NEVPT2 and variants, FIC-MRCI
   Bernardo de Souza      : ESD, SOC TD-DFT
   Georgi Stoychev        : AutoAux, RI-MP2 NMR, DLPNO-MP2 response, X2C
   Van Anh Tran           : RI-MP2 g-tensors
   Willem Van den Heuvel  : Paramagnetic NMR
   Zikuan Wang            : NOTCH, Electric field optimization 
   Frank Wennmohs         : Technical directorship and infrastructure
   Hang Xu                : AUTO-CI-Response properties 


 We gratefully acknowledge several colleagues who have allowed us to
 interface, adapt or use parts of their codes:
   Stefan Grimme, W. Hujo, H. Kruse, P. Pracht,  : VdW corrections, initial TS optimization,
                  C. Bannwarth, S. Ehlert,         DFT functionals, gCP, sTDA/sTD-DF
                  L. Wittmann, M. Mueller
   Ed Valeev, F. Pavosevic, A. Kumar             : LibInt (2-el integral package), F12 methods
   Garnet Chan, S. Sharma, J. Yang, R. Olivares  : DMRG
   Ulf Ekstrom                                   : XCFun DFT Library
   Mihaly Kallay                                 : mrcc  (arbitrary order and MRCC methods)
   Frank Weinhold                                : gennbo (NPA and NBO analysis)
   Simon Mueller                                 : openCOSMO-RS
   Christopher J. Cramer and Donald G. Truhlar   : smd solvation model
   Lars Goerigk                                  : TD-DFT with DH, B97 family of functionals
   V. Asgeirsson, H. Jonsson                     : NEB implementation
   FAccTs GmbH                                   : IRC, NEB, NEB-TS, DLPNO-Multilevel, CI-OPT
                                                   MM, QMMM, 2- and 3-layer-ONIOM, Crystal-QMMM,
                                                   LR-CPCM, SF, NACMEs, symmetry and pop. for TD-DFT,
                                                   nearIR, NL-DFT gradient (VV10), updates on ESD,
                                                   ML-optimized integration grids, MBIS, APM,
                                                   GOAT, DOCKER, SOLVATOR, interface openCOSMO-RS
   S Lehtola, MJT Oliveira, MAL Marques          : LibXC Library
   Liviu Ungur et al                             : ANISO software


 Your calculation uses the libint2 library for the computation of 2-el integrals
 For citations please refer to: http://libint.valeyev.net

 Your ORCA version has been built with support for libXC version: 6.2.2
 For citations please refer to: https://libxc.gitlab.io

 This ORCA versions uses:
   CBLAS   interface :  Fast vector & matrix operations
   LAPACKE interface :  Fast linear algebra routines
   SCALAPACK package :  Parallel linear algebra routines
   Shared memory     :  Shared parallel matrices
   BLAS/LAPACK       :  OpenBLAS 0.3.27  USE64BITINT DYNAMIC_ARCH NO_AFFINITY SkylakeX SINGLE_THREADED
        Core in use  :  SkylakeX
   Copyright (c) 2011-2014, The OpenBLAS Project


Warning: RI is on but no J-basis has been assigned. Assigning Def2/J (nothing to worry about!)
================================================================================

----- Orbital basis set information -----
Your calculation utilizes the basis: 6-31G*
   H-He, Li-Ne : W. J. Hehre, R. Ditchfield and J.A. Pople, J. Chem. Phys. 56, 2257 (1972).
                 Note: He and Ne are unpublished basis sets taken from the Gaussian program.
                 Note: Li and B from J. D. Dill and J. A. Pople, J. Chem. Phys. 62, 2921 (1975).
   Na - Ar     : M. M. Francl, W. J. Pietro, W. J. Hehre, J. S. Binkley, M. S. Gordon, 
                 D. J. DeFrees and J. A. Pople, J. Chem. Phys. 77, 3654 (1982).
   K - Zn      : V. A. Rassolov, J. A. Pople, M. A. Ratner, and T. L. Windus, J. Chem. Phys. 109, 1223 (1998).

----- AuxJ basis set information -----
Your calculation utilizes the auxiliary basis: def2/J
   F. Weigend, Phys. Chem. Chem. Phys. 8, 1057 (2006).

================================================================================
                                        WARNINGS
                       Please study these warnings very carefully!
================================================================================


================================================================================
                                       INPUT FILE
================================================================================
NAME = /home/nmrbox/aojoawo/Documents/ERDOS/inputs/CHEMBL4242496.inp
|  1> ! B3LYP 6-31G* SP
|  2> 
|  3> * xyz 0 1
|  4> C -2.4268 -0.9114 1.6590
|  5> C -2.6157 -1.6827 0.3763
|  6> C -3.2645 -2.9253 0.4866
|  7> C -3.5241 -3.7021 -0.6411
|  8> C -3.1440 -3.2499 -1.9005
|  9> C -2.4997 -2.0202 -2.0381
| 10> C -2.2231 -1.2104 -0.9148
| 11> C -1.4947 0.1148 -1.1574
| 12> N -0.1835 0.0943 -0.4944
| 13> C 0.9456 -0.5956 -1.0678
| 14> O 0.7981 -1.2235 -2.1533
| 15> C 2.2760 -0.6174 -0.3973
| 16> C 3.2250 -1.5905 -0.7792
| 17> C 4.4733 -1.6588 -0.1559
| 18> C 4.7997 -0.7498 0.8596
| 19> C 6.0363 -0.8058 1.5142
| 20> C 6.3284 0.1142 2.5245
| 21> C 5.3799 1.0811 2.8716
| 22> N 4.1831 1.1237 2.2288
| 23> C 3.8687 0.2409 1.2402
| 24> C 2.6219 0.3095 0.6088
| 25> C -2.3124 1.3448 -0.7715
| 26> N -3.5918 1.1545 -0.3278
| 27> C -4.4087 2.1742 0.0319
| 28> C -3.9525 3.4846 -0.0387
| 29> C -2.6687 3.7354 -0.5072
| 30> C -1.8312 2.6813 -0.9234
| 31> C -0.4520 3.0273 -1.4617
| 32> F -0.4227 4.3237 -1.9522
| 33> F 0.4808 2.9280 -0.4460
| 34> F -0.0892 2.1930 -2.5022
| 35> H -3.4217 -0.6449 2.0746
| 36> H -1.8866 -1.5464 2.3988
| 37> H -1.8555 0.0248 1.5400
| 38> H -3.5764 -3.2940 1.4568
| 39> H -4.0262 -4.6563 -0.5373
| 40> H -3.3473 -3.8564 -2.7736
| 41> H -2.2133 -1.7027 -3.0335
| 42> H -1.3292 0.2180 -2.2513
| 43> H -0.0824 0.5765 0.4226
| 44> H 2.9959 -2.3144 -1.5524
| 45> H 5.1777 -2.4253 -0.4607
| 46> H 6.7703 -1.5565 1.2479
| 47> H 7.2806 0.0758 3.0364
| 48> H 5.5955 1.7961 3.6558
| 49> H 1.9451 1.0958 0.9089
| 50> H -5.4098 1.9635 0.3803
| 51> H -4.5927 4.3013 0.2690
| 52> H -2.3354 4.7633 -0.5529
| 53> *
| 54> 
| 55>                          ****END OF INPUT****
================================================================================

                       ****************************
                       * Single Point Calculation *
                       ****************************

---------------------------------
CARTESIAN COORDINATES (ANGSTROEM)
---------------------------------
  C     -2.426800   -0.911400    1.659000
  C     -2.615700   -1.682700    0.376300
  C     -3.264500   -2.925300    0.486600
  C     -3.524100   -3.702100   -0.641100
  C     -3.144000   -3.249900   -1.900500
  C     -2.499700   -2.020200   -2.038100
  C     -2.223100   -1.210400   -0.914800
  C     -1.494700    0.114800   -1.157400
  N     -0.183500    0.094300   -0.494400
  C      0.945600   -0.595600   -1.067800
  O      0.798100   -1.223500   -2.153300
  C      2.276000   -0.617400   -0.397300
  C      3.225000   -1.590500   -0.779200
  C      4.473300   -1.658800   -0.155900
  C      4.799700   -0.749800    0.859600
  C      6.036300   -0.805800    1.514200
  C      6.328400    0.114200    2.524500
  C      5.379900    1.081100    2.871600
  N      4.183100    1.123700    2.228800
  C      3.868700    0.240900    1.240200
  C      2.621900    0.309500    0.608800
  C     -2.312400    1.344800   -0.771500
  N     -3.591800    1.154500   -0.327800
  C     -4.408700    2.174200    0.031900
  C     -3.952500    3.484600   -0.038700
  C     -2.668700    3.735400   -0.507200
  C     -1.831200    2.681300   -0.923400
  C     -0.452000    3.027300   -1.461700
  F     -0.422700    4.323700   -1.952200
  F      0.480800    2.928000   -0.446000
  F     -0.089200    2.193000   -2.502200
  H     -3.421700   -0.644900    2.074600
  H     -1.886600   -1.546400    2.398800
  H     -1.855500    0.024800    1.540000
  H     -3.576400   -3.294000    1.456800
  H     -4.026200   -4.656300   -0.537300
  H     -3.347300   -3.856400   -2.773600
  H     -2.213300   -1.702700   -3.033500
  H     -1.329200    0.218000   -2.251300
  H     -0.082400    0.576500    0.422600
  H      2.995900   -2.314400   -1.552400
  H      5.177700   -2.425300   -0.460700
  H      6.770300   -1.556500    1.247900
  H      7.280600    0.075800    3.036400
  H      5.595500    1.796100    3.655800
  H      1.945100    1.095800    0.908900
  H     -5.409800    1.963500    0.380300
  H     -4.592700    4.301300    0.269000
  H     -2.335400    4.763300   -0.552900

----------------------------
CARTESIAN COORDINATES (A.U.)
----------------------------
  NO LB      ZA    FRAG     MASS         X           Y           Z
   0 C     6.0000    0    12.011   -4.585987   -1.722296    3.135056
   1 C     6.0000    0    12.011   -4.942957   -3.179842    0.711104
   2 C     6.0000    0    12.011   -6.169011   -5.528016    0.919541
   3 C     6.0000    0    12.011   -6.659584   -6.995955   -1.211503
   4 C     6.0000    0    12.011   -5.941299   -6.141421   -3.591425
   5 C     6.0000    0    12.011   -4.723748   -3.817625   -3.851451
   6 C     6.0000    0    12.011   -4.201050   -2.287325   -1.728721
   7 C     6.0000    0    12.011   -2.824574    0.216941   -2.187169
   8 N     7.0000    0    14.007   -0.346765    0.178201   -0.934281
   9 C     6.0000    0    12.011    1.786925   -1.125521   -2.017850
  10 O     8.0000    0    15.999    1.508190   -2.312080   -4.069147
  11 C     6.0000    0    12.011    4.301017   -1.166717   -0.750788
  12 C     6.0000    0    12.011    6.094367   -3.005609   -1.472475
  13 C     6.0000    0    12.011    8.453312   -3.134678   -0.294608
  14 C     6.0000    0    12.011    9.070119   -1.416917    1.624409
  15 C     6.0000    0    12.011   11.406954   -1.522741    2.861423
  16 C     6.0000    0    12.011   11.958943    0.215807    4.770614
  17 C     6.0000    0    12.011   10.166538    2.042983    5.426538
  18 N     7.0000    0    14.007    7.904913    2.123485    4.211822
  19 C     6.0000    0    12.011    7.310783    0.455235    2.343638
  20 C     6.0000    0    12.011    4.954673    0.584870    1.150465
  21 C     6.0000    0    12.011   -4.369803    2.541304   -1.457924
  22 N     7.0000    0    14.007   -6.787518    2.181689   -0.619452
  23 C     6.0000    0    12.011   -8.331236    4.108643    0.060282
  24 C     6.0000    0    12.011   -7.469143    6.584940   -0.073132
  25 C     6.0000    0    12.011   -5.043112    7.058883   -0.958469
  26 C     6.0000    0    12.011   -3.460466    5.066923   -1.744973
  27 C     6.0000    0    12.011   -0.854156    5.720768   -2.762213
  28 F     9.0000    0    18.998   -0.798787    8.170609   -3.689123
  29 F     9.0000    0    18.998    0.908580    5.533118   -0.842818
  30 F     9.0000    0    18.998   -0.168564    4.144169   -4.728473
  31 H     1.0000    0     1.008   -6.466076   -1.218684    3.920426
  32 H     1.0000    0     1.008   -3.565157   -2.922272    4.533075
  33 H     1.0000    0     1.008   -3.506387    0.046865    2.910178
  34 H     1.0000    0     1.008   -6.758417   -6.224758    2.752953
  35 H     1.0000    0     1.008   -7.608415   -8.799132   -1.015350
  36 H     1.0000    0     1.008   -6.325480   -7.287540   -5.241344
  37 H     1.0000    0     1.008   -4.182531   -3.217637   -5.732484
  38 H     1.0000    0     1.008   -2.511824    0.411960   -4.254340
  39 H     1.0000    0     1.008   -0.155713    1.089427    0.798598
  40 H     1.0000    0     1.008    5.661431   -4.373582   -2.933611
  41 H     1.0000    0     1.008    9.784435   -4.583153   -0.870597
  42 H     1.0000    0     1.008   12.794013   -2.941359    2.358189
  43 H     1.0000    0     1.008   13.758340    0.143241    5.737964
  44 H     1.0000    0     1.008   10.573963    3.394137    6.908461
  45 H     1.0000    0     1.008    3.675706    2.070762    1.717572
  46 H     1.0000    0     1.008  -10.223040    3.710477    0.718663
  47 H     1.0000    0     1.008   -8.678945    8.128279    0.508336
  48 H     1.0000    0     1.008   -4.413266    9.001332   -1.044830

--------------------------------
INTERNAL COORDINATES (ANGSTROEM)
--------------------------------
 C      0   0   0     0.000000000000     0.00000000     0.00000000
 C      1   0   0     1.508610682052     0.00000000     0.00000000
 C      2   1   0     1.406116030063   116.28840396     0.00000000
 C      3   2   1     1.393742332714   120.99802391   178.16323320
 C      4   3   2     1.391060462381   120.03046173   359.79967129
 C      5   4   3     1.395069295770   120.13473179     0.14903040
 C      6   5   4     1.412121273121   121.16401612   359.83546759
 C      7   6   5     1.531527459760   117.60413521   179.15554465
 N      8   7   6     1.469433458854   109.92846218   243.80470773
 C      9   8   7     1.442087507747   121.73029433    78.61458428
 O     10   9   8     1.262665795054   119.22669303   358.42721605
 C     10   9   8     1.489969680900   121.81498012   179.98879167
 C     12  10   9     1.411868343720   119.24424194   162.21450523
 C     13  12  10     1.396932593220   120.90716075   181.23287723
 C     14  13  12     1.401448611259   119.98164983   359.72703524
 C     15  14  13     1.400291655335   121.22981231   179.13748930
 C     16  15  14     1.397293276302   119.75428496   180.13951611
 C     17  16  15     1.398222539512   119.53724284     0.06486864
 N     18  17  16     1.359167701205   120.10551904     0.00000000
 C     19  18  17     1.362172221123   121.74619633     0.02918379
 C     20  19  18     1.399243424140   120.09135340   179.48392064
 C      8   7   6     1.526581835343   113.72701447   117.27493529
 N     22   8   7     1.367460471092   118.10198879   356.84754806
 C     23  22   8     1.355174450025   123.05145646   180.47339701
 C     24  23  22     1.389334718489   119.88603297   359.80187470
 C     25  24  23     1.389437055069   119.39171291     1.40925876
 C     26  25  24     1.409168371771   120.91075822     0.66121492
 C     27  26  25     1.520419524342   118.25915771   178.33003758
 F     28  27  26     1.386398824293   110.92997985   335.99637739
 F     28  27  26     1.382614487122   109.60687936    95.45252766
 F     28  27  26     1.382143473016   111.54770122   216.80164787
 H      1   2   3     1.110662694071   109.18804958   296.37671068
 H      1   2   3     1.114605347197   109.49680674    55.41728527
 H      1   2   3     1.103184087086   114.01683050   176.14214454
 H      3   2   1     1.083747821220   120.24267661   358.43510523
 H      4   3   2     1.083225041254   119.98440774   180.08391284
 H      5   4   3     1.082347795304   119.79118296   179.98549678
 H      6   5   4     1.083352375730   118.10256711   179.66233308
 H      8   7   6     1.111151519821   107.88740720     1.60504399
 H      9   8   7     1.040974087093   118.53265637   259.91293365
 H     13  12  10     1.083677193633   120.75056553     0.17400621
 H     14  13  12     1.084714086753   119.30541472   179.18750345
 H     16  15  14     1.083153811792   120.74513956     0.00000000
 H     17  16  15     1.081758295554   120.18467893   179.85347164
 H     18  17  16     1.082902581029   120.08582341   179.77072625
 H     21  20  19     1.079993490721   117.95012080     1.93632705
 H     24  23  22     1.080730428923   119.81848636   180.30741971
 H     25  24  23     1.082374343746   120.19953080   181.41682550
 H     26  25  24     1.081552490636   118.06912774   180.01924275

---------------------------
INTERNAL COORDINATES (A.U.)
---------------------------
 C      0   0   0     0.000000000000     0.00000000     0.00000000
 C      1   0   0     2.850861031786     0.00000000     0.00000000
 C      2   1   0     2.657174209336   116.28840396     0.00000000
 C      3   2   1     2.633791310083   120.99802391   178.16323320
 C      4   3   2     2.628723309626   120.03046173   359.79967129
 C      5   4   3     2.636298906848   120.13473179     0.14903040
 C      6   5   4     2.668522474082   121.16401612   359.83546759
 C      7   6   5     2.894167465527   117.60413521   179.15554465
 N      8   7   6     2.776826809255   109.92846218   243.80470773
 C      9   8   7     2.725150450791   121.73029433    78.61458428
 O     10   9   8     2.386092551322   119.22669303   358.42721605
 C     10   9   8     2.815634644746   121.81498012   179.98879167
 C     12  10   9     2.668044506785   119.24424194   162.21450523
 C     13  12  10     2.639820028734   120.90716075   181.23287723
 C     14  13  12     2.648354066044   119.98164983   359.72703524
 C     15  14  13     2.646167736198   121.22981231   179.13748930
 C     16  15  14     2.640501620981   119.75428496   180.13951611
 C     17  16  15     2.642257673954   119.53724284     0.06486864
 N     18  17  16     2.568454725350   120.10551904     0.00000000
 C     19  18  17     2.574132445158   121.74619633     0.02918379
 C     20  19  18     2.644186866315   120.09135340   179.48392064
 C      8   7   6     2.884821589818   113.72701447   117.27493529
 N     22   8   7     2.584125789327   118.10198879   356.84754806
 C     23  22   8     2.560908574234   123.05145646   180.47339701
 C     24  23  22     2.625462126294   119.88603297   359.80187470
 C     25  24  23     2.625655514403   119.39171291     1.40925876
 C     26  25  24     2.662942299231   120.91075822     0.66121492
 C     27  26  25     2.873176509673   118.25915771   178.33003758
 F     28  27  26     2.619914090303   110.92997985   335.99637739
 F     28  27  26     2.612762729453   109.60687936    95.45252766
 F     28  27  26     2.611872641787   111.54770122   216.80164787
 H      1   2   3     2.098848318956   109.18804958   296.37671068
 H      1   2   3     2.106298853606   109.49680674    55.41728527
 H      1   2   3     2.084715799893   114.01683050   176.14214454
 H      3   2   1     2.047986580340   120.24267661   358.43510523
 H      4   3   2     2.046998669376   119.98440774   180.08391284
 H      5   4   3     2.045340914779   119.79118296   179.98549678
 H      6   5   4     2.047239296663   118.10256711   179.66233308
 H      8   7   6     2.099772065752   107.88740720     1.60504399
 H      9   8   7     1.967155937115   118.53265637   259.91293365
 H     13  12  10     2.047853113542   120.75056553     0.17400621
 H     14  13  12     2.049812557569   119.30541472   179.18750345
 H     16  15  14     2.046864065200   120.74513956     0.00000000
 H     17  16  15     2.044226921695   120.18467893   179.85347164
 H     18  17  16     2.046389307862   120.08582341   179.77072625
 H     21  20  19     2.040891923881   117.95012080     1.93632705
 H     24  23  22     2.042284535260   119.81848636   180.30741971
 H     25  24  23     2.045391084063   120.19953080   181.41682550
 H     26  25  24     2.043838006762   118.06912774   180.01924275

---------------------
BASIS SET INFORMATION
---------------------
There are 5 groups of distinct atoms

 Group   1 Type C   : 10s4p1d contracted to 3s2p1d pattern {631/31/1}
 Group   2 Type N   : 10s4p1d contracted to 3s2p1d pattern {631/31/1}
 Group   3 Type O   : 10s4p1d contracted to 3s2p1d pattern {631/31/1}
 Group   4 Type F   : 10s4p1d contracted to 3s2p1d pattern {631/31/1}
 Group   5 Type H   : 4s contracted to 2s pattern {31}

Atom   0C    basis set group =>   1
Atom   1C    basis set group =>   1
Atom   2C    basis set group =>   1
Atom   3C    basis set group =>   1
Atom   4C    basis set group =>   1
Atom   5C    basis set group =>   1
Atom   6C    basis set group =>   1
Atom   7C    basis set group =>   1
Atom   8N    basis set group =>   2
Atom   9C    basis set group =>   1
Atom  10O    basis set group =>   3
Atom  11C    basis set group =>   1
Atom  12C    basis set group =>   1
Atom  13C    basis set group =>   1
Atom  14C    basis set group =>   1
Atom  15C    basis set group =>   1
Atom  16C    basis set group =>   1
Atom  17C    basis set group =>   1
Atom  18N    basis set group =>   2
Atom  19C    basis set group =>   1
Atom  20C    basis set group =>   1
Atom  21C    basis set group =>   1
Atom  22N    basis set group =>   2
Atom  23C    basis set group =>   1
Atom  24C    basis set group =>   1
Atom  25C    basis set group =>   1
Atom  26C    basis set group =>   1
Atom  27C    basis set group =>   1
Atom  28F    basis set group =>   4
Atom  29F    basis set group =>   4
Atom  30F    basis set group =>   4
Atom  31H    basis set group =>   5
Atom  32H    basis set group =>   5
Atom  33H    basis set group =>   5
Atom  34H    basis set group =>   5
Atom  35H    basis set group =>   5
Atom  36H    basis set group =>   5
Atom  37H    basis set group =>   5
Atom  38H    basis set group =>   5
Atom  39H    basis set group =>   5
Atom  40H    basis set group =>   5
Atom  41H    basis set group =>   5
Atom  42H    basis set group =>   5
Atom  43H    basis set group =>   5
Atom  44H    basis set group =>   5
Atom  45H    basis set group =>   5
Atom  46H    basis set group =>   5
Atom  47H    basis set group =>   5
Atom  48H    basis set group =>   5
---------------------------------
AUXILIARY/J BASIS SET INFORMATION
---------------------------------
There are 5 groups of distinct atoms

 Group   1 Type C   : 12s5p4d2f1g contracted to 6s4p3d1f1g pattern {711111/2111/211/2/1}
 Group   2 Type N   : 12s5p4d2f1g contracted to 6s4p3d1f1g pattern {711111/2111/211/2/1}
 Group   3 Type O   : 12s5p4d2f1g contracted to 6s4p3d1f1g pattern {711111/2111/211/2/1}
 Group   4 Type F   : 12s5p4d2f1g contracted to 6s4p3d1f1g pattern {711111/2111/211/2/1}
 Group   5 Type H   : 5s2p1d contracted to 3s1p1d pattern {311/2/1}

Atom   0C    basis set group =>   1
Atom   1C    basis set group =>   1
Atom   2C    basis set group =>   1
Atom   3C    basis set group =>   1
Atom   4C    basis set group =>   1
Atom   5C    basis set group =>   1
Atom   6C    basis set group =>   1
Atom   7C    basis set group =>   1
Atom   8N    basis set group =>   2
Atom   9C    basis set group =>   1
Atom  10O    basis set group =>   3
Atom  11C    basis set group =>   1
Atom  12C    basis set group =>   1
Atom  13C    basis set group =>   1
Atom  14C    basis set group =>   1
Atom  15C    basis set group =>   1
Atom  16C    basis set group =>   1
Atom  17C    basis set group =>   1
Atom  18N    basis set group =>   2
Atom  19C    basis set group =>   1
Atom  20C    basis set group =>   1
Atom  21C    basis set group =>   1
Atom  22N    basis set group =>   2
Atom  23C    basis set group =>   1
Atom  24C    basis set group =>   1
Atom  25C    basis set group =>   1
Atom  26C    basis set group =>   1
Atom  27C    basis set group =>   1
Atom  28F    basis set group =>   4
Atom  29F    basis set group =>   4
Atom  30F    basis set group =>   4
Atom  31H    basis set group =>   5
Atom  32H    basis set group =>   5
Atom  33H    basis set group =>   5
Atom  34H    basis set group =>   5
Atom  35H    basis set group =>   5
Atom  36H    basis set group =>   5
Atom  37H    basis set group =>   5
Atom  38H    basis set group =>   5
Atom  39H    basis set group =>   5
Atom  40H    basis set group =>   5
Atom  41H    basis set group =>   5
Atom  42H    basis set group =>   5
Atom  43H    basis set group =>   5
Atom  44H    basis set group =>   5
Atom  45H    basis set group =>   5
Atom  46H    basis set group =>   5
Atom  47H    basis set group =>   5
Atom  48H    basis set group =>   5
------------------------------------------------------------------------------
                             ORCA STARTUP CALCULATIONS
                           -- RI-GTO INTEGRALS CHOSEN --
------------------------------------------------------------------------------
------------------------------------------------------------------------------
                   ___                                                        
                  /   \      - P O W E R E D   B Y -                         
                 /     \                                                     
                 |  |  |   _    _      __       _____    __    __             
                 |  |  |  | |  | |    /  \     |  _  \  |  |  /  |          
                  \  \/   | |  | |   /    \    | | | |  |  | /  /          
                 / \  \   | |__| |  /  /\  \   | |_| |  |  |/  /          
                |  |  |   |  __  | /  /__\  \  |    /   |      \           
                |  |  |   | |  | | |   __   |  |    \   |  |\   \          
                \     /   | |  | | |  |  |  |  | |\  \  |  | \   \       
                 \___/    |_|  |_| |__|  |__|  |_| \__\ |__|  \__/        
                                                                              
                      - O R C A' S   B I G   F R I E N D -                    
                                      &                                       
                       - I N T E G R A L  F E E D E R -                       
                                                                              
 v1 FN, 2020, v2 2021, v3 2022-2024                                           
------------------------------------------------------------------------------


----------------------
SHARK INTEGRAL PACKAGE
----------------------

Number of atoms                             ...     49
Number of basis functions                   ...    470
Number of shells                            ...    222
Maximum angular momentum                    ...      2
Integral batch strategy                     ... SHARK/LIBINT Hybrid
RI-J (if used) integral strategy            ... SPLIT-RIJ (Revised 2003 algorithm where possible)
Printlevel                                  ...      1
Contraction scheme used                     ... SEGMENTED contraction
Prescreening option                         ... SCHWARTZ
   Thresh                                   ... 1.000e-10
   Tcut                                     ... 1.000e-11
   Tpresel                                  ... 1.000e-11 
Coulomb Range Separation                    ... NOT USED
Exchange Range Separation                   ... NOT USED
Multipole approximations                    ... NOT USED
Finite Nucleus Model                        ... NOT USED
CABS basis                                  ... NOT available
Auxiliary Coulomb fitting basis             ... AVAILABLE
   # of basis functions in Aux-J            ...   1717
   # of shells in Aux-J                     ...    555
   Maximum angular momentum in Aux-J        ...      4
Auxiliary J/K fitting basis                 ... NOT available
Auxiliary Correlation fitting basis         ... NOT available
Auxiliary 'external' fitting basis          ... NOT available

Checking pre-screening integrals            ... done (  0.0 sec) Dimension = 222
Check shell pair data                       ... done (  0.0 sec)
Shell pair information
Shell pair cut-off parameter TPreSel        ...   1.0e-11
Total number of shell pairs                 ...     24753
Shell pairs after pre-screening             ...     14740
Total number of primitive shell pairs       ...    145158
Primitive shell pairs kept                  ...     44674
          la=0 lb=0:   4598 shell pairs
          la=1 lb=0:   5215 shell pairs
          la=1 lb=1:   1479 shell pairs
          la=2 lb=0:   2009 shell pairs
          la=2 lb=1:   1209 shell pairs
          la=2 lb=2:    230 shell pairs

Calculating one electron integrals          ... done (  0.2 sec)
Calculating RI/J V-Matrix + Cholesky decomp.... done (  0.5 sec)
Calculating Nuclear repulsion               ... done (  0.0 sec) ENN=   2979.184304867963 Eh

Diagonalization of the overlap matrix:
Smallest eigenvalue                        ... 3.748e-04
Time for diagonalization                   ...    0.045 sec
Threshold for overlap eigenvalues          ... 1.000e-07
Number of eigenvalues below threshold      ... 0
Time for construction of square roots      ...    0.046 sec
Total time needed                          ...    0.102 sec

-------------------
DFT GRID GENERATION
-------------------

General Integration Accuracy     IntAcc      ... 4.388
Radial Grid Type                 RadialGrid  ... OptM3 with GC (2021)
Angular Grid (max. ang.)         AngularGrid ... 4 (Lebedev-302)
Angular grid pruning method      GridPruning ... 4 (adaptive)
Weight generation scheme         WeightScheme... mBecke (2022)
Basis function cutoff            BFCut       ... 1.0000e-10
Integration weight cutoff        WCut        ... 1.0000e-14
Partially contracted basis set               ... off
Rotationally invariant grid construction     ... off
Angular grids for H and He will be reduced by one unit

Total number of grid points                  ...   242553
Total number of batches                      ...     3815
Average number of points per batch           ...       63
Average number of grid points per atom       ...     4950

--------------------
COSX GRID GENERATION
--------------------

GRIDX 1
-------
General Integration Accuracy     IntAcc      ... 3.816
Radial Grid Type                 RadialGrid  ... OptM3 with GC (2021)
Angular Grid (max. ang.)         AngularGrid ... 1 (Lebedev-50)
Angular grid pruning method      GridPruning ... 4 (adaptive)
Weight generation scheme         WeightScheme... mBecke (2022)
Basis function cutoff            BFCut       ... 1.0000e-10
Integration weight cutoff        WCut        ... 1.0000e-14
Partially contracted basis set               ... on
Rotationally invariant grid construction     ... off
Angular grids for H and He will be reduced by one unit

Total number of grid points                  ...    30738
Total number of batches                      ...      267
Average number of points per batch           ...      115
Average number of grid points per atom       ...      627
UseSFitting                                  ... on

GRIDX 2
-------
General Integration Accuracy     IntAcc      ... 4.020
Radial Grid Type                 RadialGrid  ... OptM3 with GC (2021)
Angular Grid (max. ang.)         AngularGrid ... 2 (Lebedev-110)
Angular grid pruning method      GridPruning ... 4 (adaptive)
Weight generation scheme         WeightScheme... mBecke (2022)
Basis function cutoff            BFCut       ... 1.0000e-10
Integration weight cutoff        WCut        ... 1.0000e-14
Partially contracted basis set               ... on
Rotationally invariant grid construction     ... off
Angular grids for H and He will be reduced by one unit

Total number of grid points                  ...    67445
Total number of batches                      ...      550
Average number of points per batch           ...      122
Average number of grid points per atom       ...     1376
UseSFitting                                  ... on

GRIDX 3
-------
General Integration Accuracy     IntAcc      ... 4.338
Radial Grid Type                 RadialGrid  ... OptM3 with GC (2021)
Angular Grid (max. ang.)         AngularGrid ... 3 (Lebedev-194)
Angular grid pruning method      GridPruning ... 4 (adaptive)
Weight generation scheme         WeightScheme... mBecke (2022)
Basis function cutoff            BFCut       ... 1.0000e-10
Integration weight cutoff        WCut        ... 1.0000e-14
Partially contracted basis set               ... on
Rotationally invariant grid construction     ... off
Angular grids for H and He will be reduced by one unit

Total number of grid points                  ...   147715
Total number of batches                      ...     1181
Average number of points per batch           ...      125
Average number of grid points per atom       ...     3015
UseSFitting                                  ... on
Initializing property integral containers    ... done (  0.0 sec)

SHARK setup successfully completed in  12.6 seconds

Maximum memory used throughout the entire STARTUP-calculation: 104.8 MB
-------------------------------------------------------------------------------
                                 ORCA GUESS
                   Start orbitals & Density for SCF / CASSCF
-------------------------------------------------------------------------------

------------
SCF SETTINGS
------------
Hamiltonian:
 Density Functional     Method          .... DFT(GTOs)
 Exchange Functional    Exchange        .... B88
   X-Alpha parameter    XAlpha          ....  0.666667
   Becke's b parameter  XBeta           ....  0.004200
 Correlation Functional Correlation     .... LYP
 LDA part of GGA corr.  LDAOpt          .... VWN-5
 Gradients option       PostSCFGGA      .... off
 Hybrid DFT is turned on
   Fraction HF Exchange ScalHFX         ....  0.200000
   Scaling of DF-GGA-X  ScalDFX         ....  0.720000
   Scaling of DF-GGA-C  ScalDFC         ....  0.810000
   Scaling of DF-LDA-C  ScalLDAC        ....  1.000000
   Perturbative correction              ....  0.000000
   NL short-range parameter             ....  4.800000
 RI-approximation to the Coulomb term is turned on
   Number of AuxJ basis functions       .... 1717
   RIJ-COSX (HFX calculated with COS-X)).... on


General Settings:
 Integral files         IntName         .... /home/nmrbox/aojoawo/Documents/ERDOS/inputs/CHEMBL4242496
 Hartree-Fock type      HFTyp           .... RHF
 Total Charge           Charge          ....    0
 Multiplicity           Mult            ....    1
 Number of Electrons    NEL             ....  218
 Basis Dimension        Dim             ....  470
 Nuclear Repulsion      ENuc            ....   2979.1843048680 Eh

Convergence Acceleration:
 AO-DIIS                CNVDIIS         .... on
   Start iteration      DIISMaxIt       ....    12
   Startup error        DIISStart       ....  0.200000
   # of expansion vecs  DIISMaxEq       ....     5
   Bias factor          DIISBfac        ....   1.050
   Max. coefficient     DIISMaxC        ....  10.000
 MO-DIIS                CNVKDIIS        .... off
 Trust-Rad. Augm. Hess. CNVTRAH         .... auto
   Auto Start mean grad. ratio tolernc. ....  1.125000
   Auto Start start iteration           ....    50
   Auto Start num. interpolation iter.  ....    10
   Max. Number of Micro iterations      ....    24
   Max. Number of Macro iterations      .... Maxiter - #DIIS iter
   Number of Davidson start vectors     ....     2
   Converg. threshold    (grad. norm)   ....   5.000e-05
   Grad. Scal. Fac. for Micro threshold ....   0.100
   Minimum threshold for Micro iter.    ....   1.000e-02
   NR start threshold (gradient norm)   ....   1.000e-04
   Initial trust radius                 ....   0.400
   Minimum AH scaling param. (alpha)    ....   1.000
   Maximum AH scaling param. (alpha)    .... 1000.000
   Quad. conv. algorithm                .... NR
   White noise on init. David. guess    .... on
   Maximum white noise                  ....   0.010
   Pseudo random numbers                .... off
   Inactive MOs                         .... canonical
   Orbital update algorithm             .... Taylor
   Preconditioner                       .... Diag
   Full preconditioner red. dimension   ....   250
 SOSCF                  CNVSOSCF        .... on
   Start iteration      SOSCFMaxIt      ....   150
   Startup grad/error   SOSCFStart      ....  0.003300
   Hessian update       SOSCFHessUp     .... L-BFGS
 Level Shifting         CNVShift        .... on
   Level shift para.    LevelShift      ....    0.2500
   Turn off err/grad.   ShiftErr        ....    0.0010
 Zerner damping         CNVZerner       .... off
 Static damping         CNVDamp         .... on
   Fraction old density DampFac         ....    0.7000
   Max. Damping (<1)    DampMax         ....    0.9800
   Min. Damping (>=0)   DampMin         ....    0.0000
   Turn off err/grad.   DampErr         ....    0.1000

SCF Procedure:
 Maximum # iterations   MaxIter         ....   125
 SCF integral mode      SCFMode         .... Direct
   Integral package                     .... SHARK and LIBINT hybrid scheme
 Reset frequency        DirectResetFreq ....    20
 Integral Threshold     Thresh          ....  1.000e-10 Eh
 Primitive CutOff       TCut            ....  1.000e-11 Eh

Convergence Tolerance:
 Convergence Check Mode ConvCheckMode   .... Total+1el-Energy
 Convergence forced     ConvForced      .... 0
 Energy Change          TolE            ....  1.000e-06 Eh
 1-El. energy change                    ....  1.000e-03 Eh
 Orbital Gradient       TolG            ....  5.000e-05
 Orbital Rotation angle TolX            ....  5.000e-05
 DIIS Error             TolErr          ....  1.000e-06

------------------------------
INITIAL GUESS: MODEL POTENTIAL
------------------------------
Loading Hartree-Fock densities                     ... done
Calculating cut-offs                               ... done
Initializing the effective Hamiltonian             ... done
Setting up the integral package (SHARK)            ... done
Starting the Coulomb interaction                   ... done (   3.4 sec)
Making the grid                                    ... done (   1.5 sec)
Mapping shells                                     ... done
Starting the XC term evaluation                    ... done (   1.2 sec)
  promolecular density results
     # of electrons  =    217.991493530
     EX              =   -186.726624550
     EC              =     -7.539149234
     EX+EC           =   -194.265773784
Transforming the Hamiltonian                       ... done (   0.0 sec)
Diagonalizing the Hamiltonian                      ... done (   0.0 sec)
Back transforming the eigenvectors                 ... done (   0.0 sec)
Now organizing SCF variables                       ... done
                      ------------------
                      INITIAL GUESS DONE (   6.3 sec)
                      ------------------
             **** ENERGY FILE WAS UPDATED (/home/nmrbox/aojoawo/Documents/ERDOS/inputs/CHEMBL4242496.en.tmp) ****
Finished Guess after   6.5 sec
Maximum memory used throughout the entire GUESS-calculation: 57.3 MB

-------------------------------------------------------------------------------------------
                                      ORCA LEAN-SCF
                              memory conserving SCF solver
-------------------------------------------------------------------------------------------

----------------------------------------D-I-I-S--------------------------------------------
Iteration    Energy (Eh)           Delta-E    RMSDP     MaxDP     DIISErr   Damp  Time(sec)
-------------------------------------------------------------------------------------------
               ***  Starting incremental Fock matrix formation  ***
    1    -1462.8877909611323958     0.00e+00  2.13e-03  1.03e-01  2.71e-01  0.700  64.4
    2    -1463.2006421272385523    -3.13e-01  1.43e-03  5.52e-02  9.42e-02  0.700  28.6
                               ***Turning on AO-DIIS***
    3    -1463.3215526689905346    -1.21e-01  5.96e-04  1.67e-02  3.67e-02  0.700  27.4
    4    -1463.3966143415123042    -7.51e-02  1.01e-03  2.94e-02  1.60e-02  0.000  24.5
    5    -1463.5612084775834774    -1.65e-01  2.27e-04  8.00e-03  6.04e-03  0.000  27.0
                              *** Initializing SOSCF ***
---------------------------------------S-O-S-C-F--------------------------------------
Iteration    Energy (Eh)           Delta-E    RMSDP     MaxDP     MaxGrad    Time(sec)
--------------------------------------------------------------------------------------
    6    -1463.5623268894692046    -1.12e-03  7.82e-05  2.79e-03  2.74e-03    22.4
               *** Restarting incremental Fock matrix formation ***
    7    -1463.5622813813829453     4.55e-05  6.32e-05  4.62e-03  3.65e-04    64.6
    8    -1463.5622229502237133     5.84e-05  4.19e-05  3.46e-03  9.24e-04    36.7
    9    -1463.5622998053909214    -7.69e-05  1.04e-05  6.01e-04  1.11e-04    32.9
   10    -1463.5622981858373350     1.62e-06  6.94e-06  4.09e-04  2.46e-04    26.9
   11    -1463.5623004043750370    -2.22e-06  1.76e-06  8.06e-05  2.50e-05    24.6
   12    -1463.5623004489948471    -4.46e-08  1.07e-06  5.33e-05  3.84e-05    18.8
                 **** Energy Check signals convergence ****

               *****************************************************
               *                     SUCCESS                       *
               *           SCF CONVERGED AFTER  12 CYCLES          *
               *****************************************************

Recomputing exchange energy using gridx3       ... done (  105.561 sec)
Old exchange energy                            :    -37.802188038 Eh
New exchange energy                            :    -37.802229470 Eh
Exchange energy change after final integration :     -0.000041433 Eh
Total energy after final integration           :  -1463.562341882 Eh
             **** ENERGY FILE WAS UPDATED (/home/nmrbox/aojoawo/Documents/ERDOS/inputs/CHEMBL4242496.en.tmp) ****

----------------
TOTAL SCF ENERGY
----------------

Total Energy       :      -1463.56234188186409 Eh          -39825.55601 eV

Components:
Nuclear Repulsion  :       2979.18430486796342 Eh           81067.72634 eV
Electronic Energy  :      -4442.74660531695736 Eh         -120893.28123 eV
One Electron Energy:      -7924.95609731252534 Eh         -215649.01879 eV
Two Electron Energy:       3482.20949199556753 Eh           94755.73757 eV

Virial components:
Potential Energy   :      -2918.01277591213920 Eh          -79403.16441 eV
Kinetic Energy     :       1454.45043403027512 Eh           39577.60840 eV
Virial Ratio       :          2.00626484590908

DFT components:
N(Alpha)           :      109.000055504728 electrons
N(Beta)            :      109.000055504728 electrons
N(Total)           :      218.000111009456 electrons
E(X)               :     -150.241274123692 Eh       
E(C)               :       -8.864715899044 Eh       
E(XC)              :     -159.105990022736 Eh       

---------------
SCF CONVERGENCE
---------------

  Last Energy change         ...    4.4620e-08  Tolerance :   1.0000e-06
  Last MAX-Density change    ...    5.3313e-05  Tolerance :   1.0000e-05
  Last RMS-Density change    ...    1.0737e-06  Tolerance :   1.0000e-06
  Last DIIS Error            ...    2.7412e-03  Tolerance :   1.0000e-06
  Last Orbital Gradient      ...    3.8420e-05  Tolerance :   5.0000e-05
  Last Orbital Rotation      ...    5.7744e-05  Tolerance :   5.0000e-05


----------------
ORBITAL ENERGIES
----------------

  NO   OCC          E(Eh)            E(eV) 
   0   2.0000     -24.726621      -672.8456 
   1   2.0000     -24.726460      -672.8412 
   2   2.0000     -24.725131      -672.8050 
   3   2.0000     -19.107270      -519.9352 
   4   2.0000     -14.354842      -390.6151 
   5   2.0000     -14.342674      -390.2840 
   6   2.0000     -14.325828      -389.8256 
   7   2.0000     -10.445417      -284.2343 
   8   2.0000     -10.288839      -279.9735 
   9   2.0000     -10.256156      -279.0842 
  10   2.0000     -10.237215      -278.5688 
  11   2.0000     -10.234313      -278.4898 
  12   2.0000     -10.230660      -278.3904 
  13   2.0000     -10.223329      -278.1909 
  14   2.0000     -10.222419      -278.1662 
  15   2.0000     -10.221205      -278.1331 
  16   2.0000     -10.207465      -277.7592 
  17   2.0000     -10.207187      -277.7517 
  18   2.0000     -10.202976      -277.6371 
  19   2.0000     -10.197670      -277.4927 
  20   2.0000     -10.194987      -277.4197 
  21   2.0000     -10.194765      -277.4136 
  22   2.0000     -10.191354      -277.3209 
  23   2.0000     -10.190620      -277.3009 
  24   2.0000     -10.181305      -277.0474 
  25   2.0000     -10.179329      -276.9936 
  26   2.0000     -10.170015      -276.7402 
  27   2.0000     -10.165643      -276.6212 
  28   2.0000     -10.165314      -276.6123 
  29   2.0000     -10.164025      -276.5772 
  30   2.0000     -10.162207      -276.5277 
  31   2.0000      -1.287719       -35.0406 
  32   2.0000      -1.213036       -33.0084 
  33   2.0000      -1.210345       -32.9352 
  34   2.0000      -1.006828       -27.3972 
  35   2.0000      -0.950292       -25.8588 
  36   2.0000      -0.935502       -25.4563 
  37   2.0000      -0.904106       -24.6020 
  38   2.0000      -0.851548       -23.1718 
  39   2.0000      -0.836013       -22.7491 
  40   2.0000      -0.827476       -22.5168 
  41   2.0000      -0.809402       -22.0249 
  42   2.0000      -0.799150       -21.7460 
  43   2.0000      -0.765066       -20.8185 
  44   2.0000      -0.754673       -20.5357 
  45   2.0000      -0.748469       -20.3669 
  46   2.0000      -0.739082       -20.1114 
  47   2.0000      -0.713542       -19.4165 
  48   2.0000      -0.691982       -18.8298 
  49   2.0000      -0.667559       -18.1652 
  50   2.0000      -0.659815       -17.9545 
  51   2.0000      -0.641902       -17.4670 
  52   2.0000      -0.636512       -17.3204 
  53   2.0000      -0.622066       -16.9273 
  54   2.0000      -0.608936       -16.5700 
  55   2.0000      -0.583830       -15.8868 
  56   2.0000      -0.583044       -15.8654 
  57   2.0000      -0.578864       -15.7517 
  58   2.0000      -0.573964       -15.6184 
  59   2.0000      -0.566869       -15.4253 
  60   2.0000      -0.557234       -15.1631 
  61   2.0000      -0.541825       -14.7438 
  62   2.0000      -0.518720       -14.1151 
  63   2.0000      -0.514999       -14.0138 
  64   2.0000      -0.514389       -13.9972 
  65   2.0000      -0.504199       -13.7199 
  66   2.0000      -0.484506       -13.1841 
  67   2.0000      -0.479385       -13.0447 
  68   2.0000      -0.467785       -12.7291 
  69   2.0000      -0.457662       -12.4536 
  70   2.0000      -0.455945       -12.4069 
  71   2.0000      -0.451073       -12.2743 
  72   2.0000      -0.447461       -12.1760 
  73   2.0000      -0.443736       -12.0747 
  74   2.0000      -0.440610       -11.9896 
  75   2.0000      -0.431844       -11.7511 
  76   2.0000      -0.430406       -11.7119 
  77   2.0000      -0.425452       -11.5771 
  78   2.0000      -0.420997       -11.4559 
  79   2.0000      -0.415414       -11.3040 
  80   2.0000      -0.414740       -11.2856 
  81   2.0000      -0.412394       -11.2218 
  82   2.0000      -0.407103       -11.0778 
  83   2.0000      -0.405524       -11.0349 
  84   2.0000      -0.404008       -10.9936 
  85   2.0000      -0.402146       -10.9429 
  86   2.0000      -0.396434       -10.7875 
  87   2.0000      -0.394246       -10.7280 
  88   2.0000      -0.387263       -10.5380 
  89   2.0000      -0.378319       -10.2946 
  90   2.0000      -0.374645       -10.1946 
  91   2.0000      -0.368705       -10.0330 
  92   2.0000      -0.361392        -9.8340 
  93   2.0000      -0.352904        -9.6030 
  94   2.0000      -0.335975        -9.1423 
  95   2.0000      -0.331202        -9.0125 
  96   2.0000      -0.325554        -8.8588 
  97   2.0000      -0.322794        -8.7837 
  98   2.0000      -0.304620        -8.2891 
  99   2.0000      -0.299000        -8.1362 
 100   2.0000      -0.280431        -7.6309 
 101   2.0000      -0.261253        -7.1091 
 102   2.0000      -0.256152        -6.9703 
 103   2.0000      -0.251881        -6.8540 
 104   2.0000      -0.247029        -6.7220 
 105   2.0000      -0.240746        -6.5510 
 106   2.0000      -0.229599        -6.2477 
 107   2.0000      -0.226116        -6.1529 
 108   2.0000      -0.216724        -5.8973 
 109   0.0000      -0.067262        -1.8303 
 110   0.0000      -0.048298        -1.3143 
 111   0.0000      -0.040349        -1.0980 
 112   0.0000      -0.030124        -0.8197 
 113   0.0000       0.011456         0.3117 
 114   0.0000       0.015245         0.4148 
 115   0.0000       0.016340         0.4446 
 116   0.0000       0.038658         1.0519 
 117   0.0000       0.073957         2.0125 
 118   0.0000       0.092508         2.5173 
 119   0.0000       0.095889         2.6093 
*Only the first 10 virtual orbitals were printed.

                    ********************************
                    * MULLIKEN POPULATION ANALYSIS *
                    ********************************

-----------------------
MULLIKEN ATOMIC CHARGES
-----------------------
   0 C :   -0.510782
   1 C :    0.144435
   2 C :   -0.173333
   3 C :   -0.121002
   4 C :   -0.127410
   5 C :   -0.176179
   6 C :    0.162205
   7 C :   -0.116194
   8 N :   -0.639341
   9 C :    0.528437
  10 O :   -0.482195
  11 C :    0.073082
  12 C :   -0.156255
  13 C :   -0.206845
  14 C :    0.169716
  15 C :   -0.152829
  16 C :   -0.145691
  17 C :    0.014894
  18 N :   -0.434180
  19 C :    0.209513
  20 C :   -0.195967
  21 C :    0.187994
  22 N :   -0.387533
  23 C :    0.025778
  24 C :   -0.133727
  25 C :   -0.130035
  26 C :   -0.067325
  27 C :    0.928311
  28 F :   -0.304241
  29 F :   -0.297354
  30 F :   -0.291753
  31 H :    0.163431
  32 H :    0.151834
  33 H :    0.122720
  34 H :    0.115210
  35 H :    0.119167
  36 H :    0.120672
  37 H :    0.133122
  38 H :    0.196680
  39 H :    0.333195
  40 H :    0.165098
  41 H :    0.138736
  42 H :    0.143817
  43 H :    0.135439
  44 H :    0.150751
  45 H :    0.141554
  46 H :    0.161019
  47 H :    0.145848
  48 H :    0.167514
Sum of atomic charges:    0.0000000

--------------------------------
MULLIKEN REDUCED ORBITAL CHARGES
--------------------------------
  0 C s       :     3.310883  s :     3.310883
      pz      :     1.048354  p :     3.164782
      px      :     1.073529
      py      :     1.042900
      dz2     :     0.006385  d :     0.035117
      dxz     :     0.007503
      dyz     :     0.008128
      dx2y2   :     0.005031
      dxy     :     0.008071

  1 C s       :     3.139307  s :     3.139307
      pz      :     0.858203  p :     2.676018
      px      :     0.934025
      py      :     0.883789
      dz2     :     0.010683  d :     0.040241
      dxz     :     0.007009
      dyz     :     0.011216
      dx2y2   :     0.005670
      dxy     :     0.005663

  2 C s       :     3.202394  s :     3.202394
      pz      :     0.968822  p :     2.935116
      px      :     1.002544
      py      :     0.963750
      dz2     :     0.009958  d :     0.035823
      dxz     :     0.005308
      dyz     :     0.010090
      dx2y2   :     0.005183
      dxy     :     0.005284

  3 C s       :     3.182235  s :     3.182235
      pz      :     0.942192  p :     2.902015
      px      :     0.985228
      py      :     0.974595
      dz2     :     0.010963  d :     0.036752
      dxz     :     0.007202
      dyz     :     0.009399
      dx2y2   :     0.003659
      dxy     :     0.005528

  4 C s       :     3.181199  s :     3.181199
      pz      :     0.953784  p :     2.909953
      px      :     0.992271
      py      :     0.963898
      dz2     :     0.008884  d :     0.036258
      dxz     :     0.005283
      dyz     :     0.012362
      dx2y2   :     0.005046
      dxy     :     0.004684

  5 C s       :     3.200545  s :     3.200545
      pz      :     0.985506  p :     2.939478
      px      :     0.982945
      py      :     0.971027
      dz2     :     0.010239  d :     0.036157
      dxz     :     0.005116
      dyz     :     0.009882
      dx2y2   :     0.005444
      dxy     :     0.005476

  6 C s       :     3.132458  s :     3.132458
      pz      :     0.862417  p :     2.667383
      px      :     0.939479
      py      :     0.865487
      dz2     :     0.010053  d :     0.037954
      dxz     :     0.007198
      dyz     :     0.010784
      dx2y2   :     0.004547
      dxy     :     0.005372

  7 C s       :     3.238809  s :     3.238809
      pz      :     1.039455  p :     2.819111
      px      :     0.820958
      py      :     0.958697
      dz2     :     0.013830  d :     0.058274
      dxz     :     0.009896
      dyz     :     0.005931
      dx2y2   :     0.012931
      dxy     :     0.015686

  8 N s       :     3.604934  s :     3.604934
      pz      :     1.287137  p :     4.006003
      px      :     1.149247
      py      :     1.569619
      dz2     :     0.007069  d :     0.028404
      dxz     :     0.005691
      dyz     :     0.005031
      dx2y2   :     0.005031
      dxy     :     0.005581

  9 C s       :     3.020436  s :     3.020436
      pz      :     0.773132  p :     2.352817
      px      :     0.803336
      py      :     0.776349
      dz2     :     0.021103  d :     0.098309
      dxz     :     0.031718
      dyz     :     0.015782
      dx2y2   :     0.014273
      dxy     :     0.015432

 10 O s       :     3.890079  s :     3.890079
      pz      :     1.368159  p :     4.566724
      px      :     1.771078
      py      :     1.427487
      dz2     :     0.009155  d :     0.025392
      dxz     :     0.004572
      dyz     :     0.007603
      dx2y2   :     0.002263
      dxy     :     0.001799

 11 C s       :     3.172258  s :     3.172258
      pz      :     0.919890  p :     2.716070
      px      :     0.889182
      py      :     0.906998
      dz2     :     0.006679  d :     0.038591
      dxz     :     0.008334
      dyz     :     0.006270
      dx2y2   :     0.009581
      dxy     :     0.007727

 12 C s       :     3.225963  s :     3.225963
      pz      :     0.969222  p :     2.894652
      px      :     0.941559
      py      :     0.983871
      dz2     :     0.004580  d :     0.035640
      dxz     :     0.007324
      dyz     :     0.007461
      dx2y2   :     0.008053
      dxy     :     0.008222

 13 C s       :     3.211153  s :     3.211153
      pz      :     0.985339  p :     2.959432
      px      :     0.984783
      py      :     0.989310
      dz2     :     0.006948  d :     0.036260
      dxz     :     0.007170
      dyz     :     0.005858
      dx2y2   :     0.005977
      dxy     :     0.010306

 14 C s       :     3.113101  s :     3.113101
      pz      :     0.921061  p :     2.675176
      px      :     0.855422
      py      :     0.898693
      dz2     :     0.008097  d :     0.042007
      dxz     :     0.008912
      dyz     :     0.006574
      dx2y2   :     0.008820
      dxy     :     0.009605

 15 C s       :     3.195322  s :     3.195322
      pz      :     0.967684  p :     2.920981
      px      :     0.987712
      py      :     0.965585
      dz2     :     0.007427  d :     0.036526
      dxz     :     0.007354
      dyz     :     0.005280
      dx2y2   :     0.006122
      dxy     :     0.010343

 16 C s       :     3.202760  s :     3.202760
      pz      :     0.978017  p :     2.907935
      px      :     0.982425
      py      :     0.947492
      dz2     :     0.005314  d :     0.034996
      dxz     :     0.008566
      dyz     :     0.005593
      dx2y2   :     0.008960
      dxy     :     0.006563

 17 C s       :     3.147952  s :     3.147952
      pz      :     0.938954  p :     2.783748
      px      :     0.887008
      py      :     0.957785
      dz2     :     0.007455  d :     0.053406
      dxz     :     0.011564
      dyz     :     0.009429
      dx2y2   :     0.012167
      dxy     :     0.012791

 18 N s       :     3.693650  s :     3.693650
      pz      :     1.095132  p :     3.704903
      px      :     1.268216
      py      :     1.341554
      dz2     :     0.006599  d :     0.035627
      dxz     :     0.006167
      dyz     :     0.007920
      dx2y2   :     0.009078
      dxy     :     0.005864

 19 C s       :     3.074361  s :     3.074361
      pz      :     0.868034  p :     2.656508
      px      :     0.893126
      py      :     0.895349
      dz2     :     0.010567  d :     0.059618
      dxz     :     0.013001
      dyz     :     0.010883
      dx2y2   :     0.012634
      dxy     :     0.012533

 20 C s       :     3.224876  s :     3.224876
      pz      :     0.973905  p :     2.936501
      px      :     1.006570
      py      :     0.956026
      dz2     :     0.006695  d :     0.034591
      dxz     :     0.006931
      dyz     :     0.005411
      dx2y2   :     0.006194
      dxy     :     0.009360

 21 C s       :     3.115019  s :     3.115019
      pz      :     0.901675  p :     2.640706
      px      :     0.823031
      py      :     0.916000
      dz2     :     0.005198  d :     0.056281
      dxz     :     0.008415
      dyz     :     0.007359
      dx2y2   :     0.015793
      dxy     :     0.019515

 22 N s       :     3.701335  s :     3.701335
      pz      :     1.105039  p :     3.651061
      px      :     1.056084
      py      :     1.489938
      dz2     :     0.004794  d :     0.035136
      dxz     :     0.005716
      dyz     :     0.006127
      dx2y2   :     0.009080
      dxy     :     0.009420

 23 C s       :     3.141483  s :     3.141483
      pz      :     0.922438  p :     2.778593
      px      :     0.945097
      py      :     0.911058
      dz2     :     0.003991  d :     0.054146
      dxz     :     0.005778
      dyz     :     0.008698
      dx2y2   :     0.020855
      dxy     :     0.014823

 24 C s       :     3.194955  s :     3.194955
      pz      :     0.986509  p :     2.903576
      px      :     0.954910
      py      :     0.962156
      dz2     :     0.003447  d :     0.035196
      dxz     :     0.004589
      dyz     :     0.004939
      dx2y2   :     0.009562
      dxy     :     0.012659

 25 C s       :     3.200889  s :     3.200889
      pz      :     0.937460  p :     2.892787
      px      :     0.957173
      py      :     0.998153
      dz2     :     0.004834  d :     0.036359
      dxz     :     0.005591
      dyz     :     0.003639
      dx2y2   :     0.011467
      dxy     :     0.010828

 26 C s       :     3.177301  s :     3.177301
      pz      :     1.021818  p :     2.854055
      px      :     0.928307
      py      :     0.903930
      dz2     :     0.003276  d :     0.035968
      dxz     :     0.004916
      dyz     :     0.006244
      dx2y2   :     0.011879
      dxy     :     0.009654

 27 C s       :     2.803032  s :     2.803032
      pz      :     0.658271  p :     2.130415
      px      :     0.861983
      py      :     0.610162
      dz2     :     0.025178  d :     0.138242
      dxz     :     0.030729
      dyz     :     0.032401
      dx2y2   :     0.030592
      dxy     :     0.019342

 28 F s       :     3.982460  s :     3.982460
      pz      :     1.851278  p :     5.305527
      px      :     1.912567
      py      :     1.541681
      dz2     :     0.002038  d :     0.016254
      dxz     :     0.000790
      dyz     :     0.004849
      dx2y2   :     0.005316
      dxy     :     0.003261

 29 F s       :     3.980625  s :     3.980625
      pz      :     1.679778  p :     5.300455
      px      :     1.722664
      py      :     1.898013
      dz2     :     0.003679  d :     0.016273
      dxz     :     0.006127
      dyz     :     0.001986
      dx2y2   :     0.002703
      dxy     :     0.001779

 30 F s       :     3.985026  s :     3.985026
      pz      :     1.662943  p :     5.290046
      px      :     1.880562
      py      :     1.746541
      dz2     :     0.003755  d :     0.016681
      dxz     :     0.003051
      dyz     :     0.005836
      dx2y2   :     0.002177
      dxy     :     0.001862

 31 H s       :     0.836569  s :     0.836569

 32 H s       :     0.848166  s :     0.848166

 33 H s       :     0.877280  s :     0.877280

 34 H s       :     0.884790  s :     0.884790

 35 H s       :     0.880833  s :     0.880833

 36 H s       :     0.879328  s :     0.879328

 37 H s       :     0.866878  s :     0.866878

 38 H s       :     0.803320  s :     0.803320

 39 H s       :     0.666805  s :     0.666805

 40 H s       :     0.834902  s :     0.834902

 41 H s       :     0.861264  s :     0.861264

 42 H s       :     0.856183  s :     0.856183

 43 H s       :     0.864561  s :     0.864561

 44 H s       :     0.849249  s :     0.849249

 45 H s       :     0.858446  s :     0.858446

 46 H s       :     0.838981  s :     0.838981

 47 H s       :     0.854152  s :     0.854152

 48 H s       :     0.832486  s :     0.832486



                     *******************************
                     * LOEWDIN POPULATION ANALYSIS *
                     *******************************

----------------------
LOEWDIN ATOMIC CHARGES
----------------------
   0 C :   -0.350598
   1 C :   -0.005384
   2 C :   -0.137146
   3 C :   -0.129299
   4 C :   -0.138968
   5 C :   -0.119488
   6 C :   -0.013406
   7 C :   -0.056110
   8 N :   -0.233972
   9 C :    0.150963
  10 O :   -0.284244
  11 C :   -0.041025
  12 C :   -0.098646
  13 C :   -0.120317
  14 C :   -0.022267
  15 C :   -0.093437
  16 C :   -0.146689
  17 C :   -0.064105
  18 N :   -0.131180
  19 C :    0.013432
  20 C :   -0.107442
  21 C :    0.042192
  22 N :   -0.116049
  23 C :   -0.054142
  24 C :   -0.143286
  25 C :   -0.088694
  26 C :   -0.084336
  27 C :    0.313413
  28 F :   -0.111236
  29 F :   -0.112294
  30 F :   -0.099569
  31 H :    0.138076
  32 H :    0.131267
  33 H :    0.115322
  34 H :    0.126316
  35 H :    0.127289
  36 H :    0.128574
  37 H :    0.133625
  38 H :    0.160333
  39 H :    0.246442
  40 H :    0.153406
  41 H :    0.136418
  42 H :    0.139016
  43 H :    0.136421
  44 H :    0.136048
  45 H :    0.142310
  46 H :    0.140833
  47 H :    0.141550
  48 H :    0.150080

-------------------------------
LOEWDIN REDUCED ORBITAL CHARGES
-------------------------------
  0 C s       :     2.973372  s :     2.973372
      pz      :     1.085241  p :     3.309462
      px      :     1.123822
      py      :     1.100400
      dz2     :     0.012838  d :     0.067763
      dxz     :     0.014376
      dyz     :     0.016421
      dx2y2   :     0.009073
      dxy     :     0.015054

  1 C s       :     2.878894  s :     2.878894
      pz      :     1.028494  p :     3.028451
      px      :     0.971398
      py      :     1.028560
      dz2     :     0.027136  d :     0.098038
      dxz     :     0.015480
      dyz     :     0.029710
      dx2y2   :     0.012358
      dxy     :     0.013356

  2 C s       :     2.915984  s :     2.915984
      pz      :     1.068493  p :     3.136847
      px      :     1.019674
      py      :     1.048680
      dz2     :     0.022945  d :     0.084315
      dxz     :     0.011256
      dyz     :     0.025410
      dx2y2   :     0.012073
      dxy     :     0.012632

  3 C s       :     2.915215  s :     2.915215
      pz      :     1.075333  p :     3.127228
      px      :     1.000057
      py      :     1.051838
      dz2     :     0.029260  d :     0.086856
      dxz     :     0.016970
      dyz     :     0.024682
      dx2y2   :     0.006362
      dxy     :     0.009582

  4 C s       :     2.914055  s :     2.914055
      pz      :     1.070052  p :     3.138980
      px      :     1.011838
      py      :     1.057089
      dz2     :     0.021835  d :     0.085934
      dxz     :     0.012313
      dyz     :     0.029297
      dx2y2   :     0.011150
      dxy     :     0.011338

  5 C s       :     2.919482  s :     2.919482
      pz      :     1.065271  p :     3.115728
      px      :     0.999205
      py      :     1.051252
      dz2     :     0.022754  d :     0.084278
      dxz     :     0.010736
      dyz     :     0.024843
      dx2y2   :     0.012677
      dxy     :     0.013267

  6 C s       :     2.885565  s :     2.885565
      pz      :     1.055809  p :     3.034342
      px      :     0.980972
      py      :     0.997560
      dz2     :     0.027392  d :     0.093500
      dxz     :     0.016439
      dyz     :     0.028352
      dx2y2   :     0.009406
      dxy     :     0.011911

  7 C s       :     2.885142  s :     2.885142
      pz      :     1.083070  p :     3.042698
      px      :     0.932002
      py      :     1.027626
      dz2     :     0.029212  d :     0.128270
      dxz     :     0.022317
      dyz     :     0.011438
      dx2y2   :     0.029217
      dxy     :     0.036086

  8 N s       :     3.164049  s :     3.164049
      pz      :     1.294939  p :     4.002198
      px      :     1.183057
      py      :     1.524202
      dz2     :     0.015662  d :     0.067724
      dxz     :     0.016188
      dyz     :     0.009554
      dx2y2   :     0.012776
      dxy     :     0.013544

  9 C s       :     2.865117  s :     2.865117
      pz      :     0.942855  p :     2.756591
      px      :     0.955051
      py      :     0.858686
      dz2     :     0.046671  d :     0.227329
      dxz     :     0.075632
      dyz     :     0.038133
      dx2y2   :     0.031234
      dxy     :     0.035659

 10 O s       :     3.589427  s :     3.589427
      pz      :     1.431419  p :     4.645066
      px      :     1.765843
      py      :     1.447803
      dz2     :     0.017084  d :     0.049750
      dxz     :     0.008441
      dyz     :     0.017254
      dx2y2   :     0.003773
      dxy     :     0.003199

 11 C s       :     2.883108  s :     2.883108
      pz      :     1.007630  p :     3.059626
      px      :     1.018529
      py      :     1.033467
      dz2     :     0.015455  d :     0.098290
      dxz     :     0.021224
      dyz     :     0.016813
      dx2y2   :     0.024368
      dxy     :     0.020430

 12 C s       :     2.920527  s :     2.920527
      pz      :     1.024421  p :     3.095158
      px      :     1.041381
      py      :     1.029356
      dz2     :     0.010129  d :     0.082961
      dxz     :     0.017983
      dyz     :     0.013961
      dx2y2   :     0.020321
      dxy     :     0.020567

 13 C s       :     2.916450  s :     2.916450
      pz      :     1.023227  p :     3.119103
      px      :     1.061958
      py      :     1.033919
      dz2     :     0.015286  d :     0.084763
      dxz     :     0.018784
      dyz     :     0.013380
      dx2y2   :     0.015242
      dxy     :     0.022071

 14 C s       :     2.857132  s :     2.857132
      pz      :     1.004506  p :     3.055545
      px      :     1.036253
      py      :     1.014786
      dz2     :     0.018983  d :     0.109589
      dxz     :     0.023177
      dyz     :     0.018208
      dx2y2   :     0.024059
      dxy     :     0.025163

 15 C s       :     2.919475  s :     2.919475
      pz      :     1.012850  p :     3.089239
      px      :     1.048974
      py      :     1.027415
      dz2     :     0.016146  d :     0.084723
      dxz     :     0.018553
      dyz     :     0.013216
      dx2y2   :     0.014892
      dxy     :     0.021916

 16 C s       :     2.926838  s :     2.926838
      pz      :     1.033366  p :     3.136009
      px      :     1.062780
      py      :     1.039863
      dz2     :     0.012462  d :     0.083842
      dxz     :     0.018270
      dyz     :     0.015175
      dx2y2   :     0.020510
      dxy     :     0.017424

 17 C s       :     2.917763  s :     2.917763
      pz      :     0.999775  p :     3.023921
      px      :     1.004092
      py      :     1.020054
      dz2     :     0.016722  d :     0.122421
      dxz     :     0.027121
      dyz     :     0.017367
      dx2y2   :     0.028753
      dxy     :     0.032458

 18 N s       :     3.241092  s :     3.241092
      pz      :     1.142401  p :     3.811462
      px      :     1.326514
      py      :     1.342547
      dz2     :     0.015039  d :     0.078626
      dxz     :     0.015975
      dyz     :     0.016670
      dx2y2   :     0.018714
      dxy     :     0.012228

 19 C s       :     2.845640  s :     2.845640
      pz      :     0.971482  p :     2.992832
      px      :     1.033284
      py      :     0.988066
      dz2     :     0.023459  d :     0.148097
      dxz     :     0.032936
      dyz     :     0.027992
      dx2y2   :     0.032090
      dxy     :     0.031619

 20 C s       :     2.922532  s :     2.922532
      pz      :     1.010624  p :     3.103760
      px      :     1.055093
      py      :     1.038043
      dz2     :     0.014623  d :     0.081150
      dxz     :     0.017937
      dyz     :     0.012504
      dx2y2   :     0.015419
      dxy     :     0.020666

 21 C s       :     2.884597  s :     2.884597
      pz      :     0.921195  p :     2.938773
      px      :     0.988137
      py      :     1.029441
      dz2     :     0.010424  d :     0.134438
      dxz     :     0.017803
      dyz     :     0.016345
      dx2y2   :     0.039266
      dxy     :     0.050600

 22 N s       :     3.242430  s :     3.242430
      pz      :     1.108977  p :     3.795488
      px      :     1.161370
      py      :     1.525142
      dz2     :     0.009229  d :     0.078131
      dxz     :     0.014035
      dyz     :     0.009547
      dx2y2   :     0.022526
      dxy     :     0.022794

 23 C s       :     2.915020  s :     2.915020
      pz      :     0.933183  p :     3.014549
      px      :     1.043534
      py      :     1.037832
      dz2     :     0.008401  d :     0.124573
      dxz     :     0.010156
      dyz     :     0.018904
      dx2y2   :     0.051226
      dxy     :     0.035885

 24 C s       :     2.923168  s :     2.923168
      pz      :     0.992183  p :     3.134979
      px      :     1.062905
      py      :     1.079892
      dz2     :     0.006972  d :     0.085138
      dxz     :     0.010084
      dyz     :     0.010505
      dx2y2   :     0.026197
      dxy     :     0.031380

 25 C s       :     2.920565  s :     2.920565
      pz      :     0.948642  p :     3.082796
      px      :     1.054004
      py      :     1.080149
      dz2     :     0.009017  d :     0.085333
      dxz     :     0.013389
      dyz     :     0.007763
      dx2y2   :     0.028015
      dxy     :     0.027148

 26 C s       :     2.899044  s :     2.899044
      pz      :     1.018714  p :     3.093082
      px      :     1.007675
      py      :     1.066693
      dz2     :     0.006869  d :     0.092210
      dxz     :     0.010531
      dyz     :     0.014384
      dx2y2   :     0.032431
      dxy     :     0.027996

 27 C s       :     2.854648  s :     2.854648
      pz      :     0.797169  p :     2.504272
      px      :     0.936764
      py      :     0.770338
      dz2     :     0.056308  d :     0.327667
      dxz     :     0.075225
      dyz     :     0.079360
      dx2y2   :     0.076348
      dxy     :     0.040426

 28 F s       :     3.759149  s :     3.759149
      pz      :     1.851181  p :     5.321101
      px      :     1.908486
      py      :     1.561434
      dz2     :     0.003594  d :     0.030986
      dxz     :     0.001221
      dyz     :     0.009228
      dx2y2   :     0.011144
      dxy     :     0.005799

 29 F s       :     3.760938  s :     3.760938
      pz      :     1.691419  p :     5.320090
      px      :     1.733974
      py      :     1.894697
      dz2     :     0.006491  d :     0.031266
      dxz     :     0.013428
      dyz     :     0.003336
      dx2y2   :     0.005421
      dxy     :     0.002591

 30 F s       :     3.758567  s :     3.758567
      pz      :     1.675624  p :     5.309370
      px      :     1.879156
      py      :     1.754591
      dz2     :     0.006373  d :     0.031632
      dxz     :     0.005765
      dyz     :     0.011974
      dx2y2   :     0.003895
      dxy     :     0.003624

 31 H s       :     0.861924  s :     0.861924

 32 H s       :     0.868733  s :     0.868733

 33 H s       :     0.884678  s :     0.884678

 34 H s       :     0.873684  s :     0.873684

 35 H s       :     0.872711  s :     0.872711

 36 H s       :     0.871426  s :     0.871426

 37 H s       :     0.866375  s :     0.866375

 38 H s       :     0.839667  s :     0.839667

 39 H s       :     0.753558  s :     0.753558

 40 H s       :     0.846594  s :     0.846594

 41 H s       :     0.863582  s :     0.863582

 42 H s       :     0.860984  s :     0.860984

 43 H s       :     0.863579  s :     0.863579

 44 H s       :     0.863952  s :     0.863952

 45 H s       :     0.857690  s :     0.857690

 46 H s       :     0.859167  s :     0.859167

 47 H s       :     0.858450  s :     0.858450

 48 H s       :     0.849920  s :     0.849920



                      *****************************
                      * MAYER POPULATION ANALYSIS *
                      *****************************

  NA   - Mulliken gross atomic population
  ZA   - Total nuclear charge
  QA   - Mulliken gross atomic charge
  VA   - Mayer's total valence
  BVA  - Mayer's bonded valence
  FA   - Mayer's free valence

  ATOM       NA         ZA         QA         VA         BVA        FA
  0 C      6.5108     6.0000    -0.5108     3.8450     3.8450    -0.0000
  1 C      5.8556     6.0000     0.1444     3.9386     3.9386    -0.0000
  2 C      6.1733     6.0000    -0.1733     3.9268     3.9268     0.0000
  3 C      6.1210     6.0000    -0.1210     3.9494     3.9494     0.0000
  4 C      6.1274     6.0000    -0.1274     3.9454     3.9454     0.0000
  5 C      6.1762     6.0000    -0.1762     3.9469     3.9469    -0.0000
  6 C      5.8378     6.0000     0.1622     3.9173     3.9173    -0.0000
  7 C      6.1162     6.0000    -0.1162     3.7822     3.7822     0.0000
  8 N      7.6393     7.0000    -0.6393     2.8925     2.8925     0.0000
  9 C      5.4716     6.0000     0.5284     3.9037     3.9037     0.0000
 10 O      8.4822     8.0000    -0.4822     2.0556     2.0556    -0.0000
 11 C      5.9269     6.0000     0.0731     3.8806     3.8806     0.0000
 12 C      6.1563     6.0000    -0.1563     3.9005     3.9005     0.0000
 13 C      6.2068     6.0000    -0.2068     3.8676     3.8676     0.0000
 14 C      5.8303     6.0000     0.1697     3.9847     3.9847    -0.0000
 15 C      6.1528     6.0000    -0.1528     3.8883     3.8883    -0.0000
 16 C      6.1457     6.0000    -0.1457     3.9115     3.9115     0.0000
 17 C      5.9851     6.0000     0.0149     3.9122     3.9122    -0.0000
 18 N      7.4342     7.0000    -0.4342     2.9642     2.9642    -0.0000
 19 C      5.7905     6.0000     0.2095     3.9743     3.9743    -0.0000
 20 C      6.1960     6.0000    -0.1960     3.8249     3.8249    -0.0000
 21 C      5.8120     6.0000     0.1880     3.8714     3.8714    -0.0000
 22 N      7.3875     7.0000    -0.3875     2.9962     2.9962     0.0000
 23 C      5.9742     6.0000     0.0258     3.9081     3.9081    -0.0000
 24 C      6.1337     6.0000    -0.1337     3.9057     3.9057     0.0000
 25 C      6.1300     6.0000    -0.1300     3.9130     3.9130     0.0000
 26 C      6.0673     6.0000    -0.0673     3.9304     3.9304     0.0000
 27 C      5.0717     6.0000     0.9283     3.8521     3.8521    -0.0000
 28 F      9.3042     9.0000    -0.3042     1.0599     1.0599    -0.0000
 29 F      9.2974     9.0000    -0.2974     1.0598     1.0598    -0.0000
 30 F      9.2918     9.0000    -0.2918     1.0717     1.0717     0.0000
 31 H      0.8366     1.0000     0.1634     0.9321     0.9321    -0.0000
 32 H      0.8482     1.0000     0.1518     0.9321     0.9321     0.0000
 33 H      0.8773     1.0000     0.1227     0.9498     0.9498    -0.0000
 34 H      0.8848     1.0000     0.1152     0.9413     0.9413     0.0000
 35 H      0.8808     1.0000     0.1192     0.9377     0.9377     0.0000
 36 H      0.8793     1.0000     0.1207     0.9383     0.9383     0.0000
 37 H      0.8669     1.0000     0.1331     0.9407     0.9407    -0.0000
 38 H      0.8033     1.0000     0.1967     0.9400     0.9400     0.0000
 39 H      0.6668     1.0000     0.3332     0.8716     0.8716    -0.0000
 40 H      0.8349     1.0000     0.1651     0.9452     0.9452     0.0000
 41 H      0.8613     1.0000     0.1387     0.9376     0.9376     0.0000
 42 H      0.8562     1.0000     0.1438     0.9341     0.9341     0.0000
 43 H      0.8646     1.0000     0.1354     0.9382     0.9382     0.0000
 44 H      0.8492     1.0000     0.1508     0.9318     0.9318     0.0000
 45 H      0.8584     1.0000     0.1416     0.9577     0.9577    -0.0000
 46 H      0.8390     1.0000     0.1610     0.9282     0.9282    -0.0000
 47 H      0.8542     1.0000     0.1458     0.9363     0.9363    -0.0000
 48 H      0.8325     1.0000     0.1675     0.9379     0.9379     0.0000

  Mayer bond orders larger than 0.100000
B(  0-C ,  1-C ) :   0.9873 B(  0-C , 31-H ) :   0.9355 B(  0-C , 32-H ) :   0.9388 
B(  0-C , 33-H ) :   0.9393 B(  1-C ,  2-C ) :   1.4184 B(  1-C ,  6-C ) :   1.4198 
B(  2-C ,  3-C ) :   1.4431 B(  2-C , 34-H ) :   0.9289 B(  3-C ,  4-C ) :   1.4555 
B(  3-C , 35-H ) :   0.9305 B(  4-C ,  5-C ) :   1.4371 B(  4-C , 36-H ) :   0.9305 
B(  5-C ,  6-C ) :   1.4168 B(  5-C , 37-H ) :   0.9199 B(  6-C ,  7-C ) :   0.9316 
B(  7-C ,  8-N ) :   0.9070 B(  7-C , 21-C ) :   0.9433 B(  7-C , 38-H ) :   0.8910 
B(  8-N ,  9-C ) :   1.0339 B(  8-N , 39-H ) :   0.8024 B(  9-C , 10-O ) :   1.7890 
B(  9-C , 11-C ) :   0.9912 B( 11-C , 12-C ) :   1.3122 B( 11-C , 20-C ) :   1.4353 
B( 12-C , 13-C ) :   1.4967 B( 12-C , 40-H ) :   0.9126 B( 13-C , 14-C ) :   1.2713 
B( 13-C , 41-H ) :   0.9246 B( 14-C , 15-C ) :   1.3060 B( 14-C , 19-C ) :   1.2551 
B( 15-C , 16-C ) :   1.5108 B( 15-C , 42-H ) :   0.9239 B( 16-C , 17-C ) :   1.3249 
B( 16-C , 43-H ) :   0.9249 B( 17-C , 18-N ) :   1.5134 B( 17-C , 44-H ) :   0.9300 
B( 18-N , 19-C ) :   1.2516 B( 19-C , 20-C ) :   1.2943 B( 20-C , 45-H ) :   0.9009 
B( 21-C , 22-N ) :   1.3985 B( 21-C , 26-C ) :   1.3426 B( 22-N , 23-C ) :   1.4189 
B( 23-C , 24-C ) :   1.4162 B( 23-C , 46-H ) :   0.9266 B( 24-C , 25-C ) :   1.4391 
B( 24-C , 47-H ) :   0.9237 B( 25-C , 26-C ) :   1.4061 B( 25-C , 48-H ) :   0.9165 
B( 26-C , 27-C ) :   0.9670 B( 27-C , 28-F ) :   0.9434 B( 27-C , 29-F ) :   0.9538 
B( 27-C , 30-F ) :   0.9357 

-------
TIMINGS
-------

Total SCF time: 0 days 0 hours 8 min 24 sec 

Total time                  ....     505.000 sec
Sum of individual times     ....     504.629 sec  ( 99.9%)

SCF preparation             ....       0.446 sec  (  0.1%)
Fock matrix formation       ....     501.617 sec  ( 99.3%)
  Startup                   ....       0.087 sec  (  0.0% of F)
  Split-RI-J                ....      64.756 sec  ( 12.9% of F)
  Chain of spheres X        ....     390.708 sec  ( 77.9% of F)
  XC integration            ....      45.250 sec  (  9.0% of F)
    XC Preparation          ....       0.000 sec  (  0.0% of XC)
    Basis function eval.    ....      17.759 sec  ( 39.2% of XC)
    Density eval.           ....      11.467 sec  ( 25.3% of XC)
    XC-Functional eval.     ....       2.288 sec  (  5.1% of XC)
    XC-Potential eval.      ....      11.941 sec  ( 26.4% of XC)
Diagonalization             ....       0.000 sec  (  0.0%)
Density matrix formation    ....       0.392 sec  (  0.1%)
Total Energy calculation    ....       0.073 sec  (  0.0%)
Population analysis         ....       0.074 sec  (  0.0%)
Orbital Transformation      ....       0.199 sec  (  0.0%)
Orbital Orthonormalization  ....       0.000 sec  (  0.0%)
DIIS solution               ....       1.215 sec  (  0.2%)
SOSCF solution              ....       0.613 sec  (  0.1%)
Finished LeanSCF after 505.1 sec

Maximum memory used throughout the entire LEANSCF-calculation: 79.0 MB

-------------------------   --------------------
FINAL SINGLE POINT ENERGY     -1463.562341881864
-------------------------   --------------------


------------------------------------------------------------------------------
                              ORCA PROPERTY CALCULATIONS
------------------------------------------------------------------------------

GBWName                                 ... /home/nmrbox/aojoawo/Documents/ERDOS/inputs/CHEMBL4242496.gbw
Number of atoms                         ...     49
Number of basis functions               ...    470
Max core memory                         ...   1024 MB

Electric properties:
Dipole moment                           ... YES
Quadrupole moment                       ...  NO
Static polarizability (Dipole/Dipole)   ...  NO
Static polarizability (Dipole/Quad.)    ...  NO
Static polarizability (Quad./Quad.)     ...  NO
Static polarizability (Velocity)        ...  NO

Atomic electric properties:
Dipole moment                           ...  NO
Quadrupole moment                       ...  NO
Static polarizability                   ...  NO

Choice of electric origin               ... Center of mass
Position of electric origin             ...     0.229675     0.649616    -0.486784

General magnetic properties:
Magnetizability                         ...  NO

EPR properties:
g-Tensor (aka g-matrix)                 ...  NO
Zero-Field splitting spin-orbit         ...  NO
Zero-field splitting spin-spin          ...  NO
Hyperfine couplings                     ...  NO (   0 nuclei)
Quadrupole couplings                    ...  NO (   0 nuclei)
Contact density                         ...  NO (   0 nuclei)

NMR properties:
Chemical shifts                         ...  NO (   0 nuclei)
Spin-rotation constants                 ...  NO (   0 nuclei)
Spin-spin couplings                     ...  NO (   0 nuclei,    0 pairs)

Choice of magnetic origin               ... GIAO
Position of magnetic origin             ...     0.000000     0.000000     0.000000

Properties with geometric perturbations:
SCF Hessian                             ...  NO
IR spectrum                             ...  NO
VCD spectrum                            ...  NO
X-ray spectroscopy properties:
SCF XES/XAS/RIXS spectra                ...  NO


-------------
DIPOLE MOMENT
-------------

Method             : SCF
Type of density    : Electron Density
Multiplicity       :   1
Irrep              :   0
Energy             : -1463.5623418818640857 Eh
Relativity type    : 
Basis              : AO
                                X                 Y                 Z
Electronic contribution:      5.672315034      21.032165232     -12.796139552
Nuclear contribution   :     -5.720409454     -20.354069561      14.002666666
                        -----------------------------------------
Total Dipole Moment    :     -0.048094420       0.678095671       1.206527114
                        -----------------------------------------
Magnitude (a.u.)       :      1.384859014
Magnitude (Debye)      :      3.520031872



--------------------
Rotational spectrum 
--------------------
 
Rotational constants in cm-1:             0.006667             0.003269             0.002604 
Rotational constants in MHz :           199.879988            97.989494            78.052567 

Dipole components along the rotational axes: 
x,y,z [a.u.] :    -0.202485     0.637813     1.212447 
x,y,z [Debye]:    -0.514677     1.621193     3.081796 

 

Dipole moment calculation done in   0.0 sec 

Maximum memory used throughout the entire PROP-calculation: 38.6 MB

--------------------------------
SUGGESTED CITATIONS FOR THIS RUN
--------------------------------

Below you find a list of papers that are relevant to this ORCA run
We neither can nor want to force you to cite these papers, but we appreciate if you do
You receive ORCA, which is the product of decades of hard work by many enthusiastic individuals, for free
The only thing we kindly ask in return is that you cite our papers,
We deeply appreciate it, if you show your appreciation for ORCA by not just citing the generic ORCA reference.

Please note that relegating all ORCA citations to the supporting information does *not* help us.
SI sections are not indexed - citations you put there will not count into any citation statistics
But we need these citations in order to attract the funding resources that allow us to do what we are doing

Therefore, if you are a happy ORCA user, please consider citing a few of the papers listed below in the main body of your paper

In addition to the list printed below, the program has created the file /home/nmrbox/aojoawo/Documents/ERDOS/inputs/CHEMBL4242496.bibtex that contains the list in bibtex format
You can import this file easily into all common literature databanks and citation aid programs


List of essential papers. We consider these as the minimum necessary citations

  1. Neese,F.
     Software update: the ORCA program system, version 5.0
     WIRES Comput. Molec. Sci., 2022 12(1)e1606
     doi.org/10.1002/wcms.1606

List of papers to cite with high priority. The work reported in these papers was absolutely
necessary for this run to complete.
Our perspective: the developers of density functionals and basis sets usually get cited in chemistry papers
Good! But without the algorithms to do something with them, the functionals or basis sets would not do anything.
Hence, in our opinion, the algorithm design and method developments papers are equally worthy of getting cited

  1. Neese,F.
     An improvement of the resolution of the identity approximation for the formation of the Coulomb matrix
     J. Comp. Chem., 2003 24(14)1740-1747
     doi.org/10.1002/jcc.10318
  2. Neese,F.; Wennmohs,F.; Hansen,A.; Becker,U.
     Efficient, approximate and parallel Hartree-Fock and hybrid DFT calculations. A 'chain-of-spheres' algorithm for the Hartree-Fock exchange
     Chem. Phys., 2009 356(1-3)98-109
     doi.org/10.1016/j.chemphys.2008.10.036
  3. Helmich-Paris,B.; de Souza,B.; Neese,F.; Izsák,R.
     An improved chain of spheres for exchange algorithm
     J. Chem. Phys., 2021 155 104109
     doi.org/doi: 10.1063/5.0058766.
  4. Neese,F.
     The SHARK Integral Generation and Digestion System
     J. Comp. Chem., 2022  1-16
     doi.org/10.1002/jcc.26942

List of suggested additional citations. These are papers that are important in the 'surrounding' of 
of this run, or papers that preceded the highly important papers. If you like your results we are grateful for a citation.

  1. Izsak,R.; Neese,F.
     An overlap fitted chain of spheres exchange method
     J. Chem. Phys., 2011 135 144105
     doi.org/10.1063/1.3646921
  2. Izsak,R.; Hansen,A.; Neese,F.
     The resolution of identity and chain of spheres approximations for the LPNO-CCSD singles Fock term
     Molec. Phys., 2012 110 2413-2417
     doi.org/10.1080/00268976.2012.687466
  3. Neese,F.
     The ORCA program system
     WIRES Comput. Molec. Sci., 2012 2(1)73-78
     doi.org/10.1002/wcms.81
  4. Izsak,R.; Neese,F.; Klopper,W.
     Robust fitting techniques in the chain of spheres approximation to the Fock exchange: The role of the complementary space
     J. Chem. Phys., 2013 139 
     doi.org/10.1063/1.4819264
  5. Neese,F.
     Software update: the ORCA program system, version 4.0
     WIRES Comput. Molec. Sci., 2018 8(1)1-6
     doi.org/10.1002/wcms.1327
  6. Neese,F.; Wennmohs,F.; Becker,U.; Riplinger,C.
     The ORCA quantum chemistry program package
     J. Chem. Phys., 2020 152 Art. No. L224108
     doi.org/10.1063/5.0004608

List of optional additional citations

  1. Neese,F.
     Approximate second-order SCF convergence for spin unrestricted wavefunctions
     Chem. Phys. Lett., 2000 325(1-3)93-98
     doi.org/10.1016/s0009-2614(00)00662-x

Timings for individual modules:

Sum of individual times          ...      524.593 sec (=   8.743 min)
Startup calculation              ...       12.702 sec (=   0.212 min)   2.4 %
SCF iterations                   ...      511.708 sec (=   8.528 min)  97.5 %
Property calculations            ...        0.184 sec (=   0.003 min)   0.0 %
                             ****ORCA TERMINATED NORMALLY****
TOTAL RUN TIME: 0 days 0 hours 8 minutes 45 seconds 394 msec
