
                                 *****************
                                 * O   R   C   A *
                                 *****************

                                            #,                                       
                                            ###                                      
                                            ####                                     
                                            #####                                    
                                            ######                                   
                                           ########,                                 
                                     ,,################,,,,,                         
                               ,,#################################,,                 
                          ,,##########################################,,             
                       ,#########################################, ''#####,          
                    ,#############################################,,   '####,        
                  ,##################################################,,,,####,       
                ,###########''''           ''''###############################       
              ,#####''   ,,,,##########,,,,          '''####'''          '####       
            ,##' ,,,,###########################,,,                        '##       
           ' ,,###''''                  '''############,,,                           
         ,,##''                                '''############,,,,        ,,,,,,###''
      ,#''                                            '''#######################'''  
     '                                                          ''''####''''         
             ,#######,   #######,   ,#######,      ##                                
            ,#'     '#,  ##    ##  ,#'     '#,    #''#        ,####,   ,####,        
            ##       ##  ##   ,#'  ##            #'  '#       #'       #'  '#        
            ##       ##  #######   ##           ,######,      #####,   #    #        
            '#,     ,#'  ##    ##  '#,     ,#' ,#      #,     #,   #   #,  ,#        
             '#######'   ##     ##  '#######'  #'      '#     '####' # '####'        



                #########################################################
                #                        -***-                          #
                #          Department of theory and spectroscopy        #
                #                                                       #
                #                      Frank Neese                      #
                #                                                       #
                #     Directorship, Architecture, Infrastructure        #
                #                    SHARK, DRIVERS                     #
                #        Core code/Algorithms in most modules           #
                #                                                       #
                #        Max Planck Institute fuer Kohlenforschung      #
                #                Kaiser Wilhelm Platz 1                 #
                #                 D-45470 Muelheim/Ruhr                 #
                #                      Germany                          #
                #                                                       #
                #                  All rights reserved                  #
                #                        -***-                          #
                #########################################################


                         Program Version 6.0.0  -   RELEASE  -


 With contributions from (in alphabetic order):
   Daniel Aravena         : Magnetic Suceptibility
   Michael Atanasov       : Ab Initio Ligand Field Theory (pilot matlab implementation)
   Alexander A. Auer      : GIAO ZORA, VPT2 properties, NMR spectrum
   Ute Becker             : All parallelization in ORCA, NUMFREQ, NUMCALC
   Giovanni Bistoni       : ED, misc. LED, open-shell LED, HFLD
   Martin Brehm           : Molecular dynamics
   Dmytro Bykov           : pre 5.0 version of the SCF Hessian
   Marcos Casanova-Páez   : Triplet and SCS-CIS(D). UHF-(DLPNO)-IP/EA/STEOM-CCSD. UHF-CVS-IP/STEOM-CCSD
   Vijay G. Chilkuri      : MRCI spin determinant printing, contributions to CSF-ICE
   Pauline Colinet        : FMM embedding
   Dipayan Datta          : RHF DLPNO-CCSD density
   Achintya Kumar Dutta   : EOM-CC, STEOM-CC
   Nicolas Foglia         : Exact transition moments, OPA infrastructure, MCD improvements
   Dmitry Ganyushin       : Spin-Orbit,Spin-Spin,Magnetic field MRCI
   Miquel Garcia          : C-PCM and meta-GGA Hessian, CCSD/C-PCM, Gaussian charge scheme
   Tiago L. C. Gouveia    : GS-ROHF, GS-ROCIS
   Yang Guo               : DLPNO-NEVPT2, F12-NEVPT2, CIM, IAO-localization
   Andreas Hansen         : Spin unrestricted coupled pair/coupled cluster methods
   Ingolf Harden          : AUTO-CI MPn and infrastructure 
   Benjamin Helmich-Paris : MC-RPA, TRAH-(SCF,CASSCF), AVAS, COSX integrals, SCF dyn. polar.
   Lee Huntington         : MR-EOM, pCC
   Robert Izsak           : Overlap fitted RIJCOSX, COSX-SCS-MP3, EOM
   Riya Kayal             : Wick's Theorem for AUTO-CI, AUTO-CI UHF-CCSDT
   Emily Kempfer          : AUTO-CI, RHF CISDT and CCSDT
   Christian Kollmar      : KDIIS, OOCD, Brueckner-CCSD(T), CCSD density, CASPT2, CASPT2-K, improved NEVPT2
   Axel Koslowski         : Symmetry handling
   Simone Kossmann        : Meta GGA functionals, TD-DFT gradient, OOMP2, (MP2 Hessian; deprecated post 5.0)
   Lucas Lang             : DCDCAS
   Marvin Lechner         : AUTO-CI (C++ implementation), FIC-MRCC
   Spencer Leger          : CASSCF response
   Dagmar Lenk            : GEPOL surface, SMD, ORCA-2-JSON
   Dimitrios Liakos       : Extrapolation schemes; Compound Job, initial MDCI parallelization
   Dimitrios Manganas     : Further ROCIS development; embedding schemes. LFT, Crystal Embedding
   Dimitrios Pantazis     : SARC Basis sets
   Anastasios Papadopoulos: AUTO-CI, single reference methods and gradients
   Taras Petrenko         : pre 6.0 DFT Hessian and TD-DFT gradient, (ASA, deprecated), ECA, 1-Electron XAS/XES, NRVS
   Peter Pinski           : DLPNO-MP2, DLPNO-MP2 Gradient
   Christoph Reimann      : Effective Core Potentials
   Marius Retegan         : Local ZFS, SOC
   Christoph Riplinger    : Optimizer, TS searches, QM/MM, DLPNO-CCSD(T), (RO)-DLPNO pert. Triples
   Michael Roemelt        : Original ROCIS implementation
   Masaaki Saitow         : Open-shell DLPNO-CCSD energy and density
   Barbara Sandhoefer     : DKH picture change effects
   Kantharuban Sivalingam : CASSCF convergence/infrastructure, NEVPT2 and variants, FIC-MRCI
   Bernardo de Souza      : ESD, SOC TD-DFT
   Georgi Stoychev        : AutoAux, RI-MP2 NMR, DLPNO-MP2 response, X2C
   Van Anh Tran           : RI-MP2 g-tensors
   Willem Van den Heuvel  : Paramagnetic NMR
   Zikuan Wang            : NOTCH, Electric field optimization 
   Frank Wennmohs         : Technical directorship and infrastructure
   Hang Xu                : AUTO-CI-Response properties 


 We gratefully acknowledge several colleagues who have allowed us to
 interface, adapt or use parts of their codes:
   Stefan Grimme, W. Hujo, H. Kruse, P. Pracht,  : VdW corrections, initial TS optimization,
                  C. Bannwarth, S. Ehlert,         DFT functionals, gCP, sTDA/sTD-DF
                  L. Wittmann, M. Mueller
   Ed Valeev, F. Pavosevic, A. Kumar             : LibInt (2-el integral package), F12 methods
   Garnet Chan, S. Sharma, J. Yang, R. Olivares  : DMRG
   Ulf Ekstrom                                   : XCFun DFT Library
   Mihaly Kallay                                 : mrcc  (arbitrary order and MRCC methods)
   Frank Weinhold                                : gennbo (NPA and NBO analysis)
   Simon Mueller                                 : openCOSMO-RS
   Christopher J. Cramer and Donald G. Truhlar   : smd solvation model
   Lars Goerigk                                  : TD-DFT with DH, B97 family of functionals
   V. Asgeirsson, H. Jonsson                     : NEB implementation
   FAccTs GmbH                                   : IRC, NEB, NEB-TS, DLPNO-Multilevel, CI-OPT
                                                   MM, QMMM, 2- and 3-layer-ONIOM, Crystal-QMMM,
                                                   LR-CPCM, SF, NACMEs, symmetry and pop. for TD-DFT,
                                                   nearIR, NL-DFT gradient (VV10), updates on ESD,
                                                   ML-optimized integration grids, MBIS, APM,
                                                   GOAT, DOCKER, SOLVATOR, interface openCOSMO-RS
   S Lehtola, MJT Oliveira, MAL Marques          : LibXC Library
   Liviu Ungur et al                             : ANISO software


 Your calculation uses the libint2 library for the computation of 2-el integrals
 For citations please refer to: http://libint.valeyev.net

 Your ORCA version has been built with support for libXC version: 6.2.2
 For citations please refer to: https://libxc.gitlab.io

 This ORCA versions uses:
   CBLAS   interface :  Fast vector & matrix operations
   LAPACKE interface :  Fast linear algebra routines
   SCALAPACK package :  Parallel linear algebra routines
   Shared memory     :  Shared parallel matrices
   BLAS/LAPACK       :  OpenBLAS 0.3.27  USE64BITINT DYNAMIC_ARCH NO_AFFINITY SkylakeX SINGLE_THREADED
        Core in use  :  SkylakeX
   Copyright (c) 2011-2014, The OpenBLAS Project


Warning: RI is on but no J-basis has been assigned. Assigning Def2/J (nothing to worry about!)
================================================================================

----- Orbital basis set information -----
Your calculation utilizes the basis: 6-31G*
   H-He, Li-Ne : W. J. Hehre, R. Ditchfield and J.A. Pople, J. Chem. Phys. 56, 2257 (1972).
                 Note: He and Ne are unpublished basis sets taken from the Gaussian program.
                 Note: Li and B from J. D. Dill and J. A. Pople, J. Chem. Phys. 62, 2921 (1975).
   Na - Ar     : M. M. Francl, W. J. Pietro, W. J. Hehre, J. S. Binkley, M. S. Gordon, 
                 D. J. DeFrees and J. A. Pople, J. Chem. Phys. 77, 3654 (1982).
   K - Zn      : V. A. Rassolov, J. A. Pople, M. A. Ratner, and T. L. Windus, J. Chem. Phys. 109, 1223 (1998).

----- AuxJ basis set information -----
Your calculation utilizes the auxiliary basis: def2/J
   F. Weigend, Phys. Chem. Chem. Phys. 8, 1057 (2006).

================================================================================
                                        WARNINGS
                       Please study these warnings very carefully!
================================================================================


================================================================================
                                       INPUT FILE
================================================================================
NAME = /home/nmrbox/aojoawo/Documents/ERDOS/inputs/CHEMBL3235959.inp
|  1> ! B3LYP 6-31G* SP
|  2> 
|  3> * xyz 0 1
|  4> O 2.2054 -0.2811 1.7898
|  5> C 1.7088 -0.4187 0.6378
|  6> N 2.1640 0.4247 -0.4376
|  7> C 3.1613 1.4464 -0.2753
|  8> C 4.3406 1.2027 0.4519
|  9> C 5.3106 2.2018 0.5779
| 10> C 5.1187 3.4453 -0.0292
| 11> C 3.9598 3.6893 -0.7704
| 12> C 2.9867 2.6930 -0.9009
| 13> F 1.8649 2.9478 -1.6207
| 14> N 0.6632 -1.3982 0.4296
| 15> C 0.5282 -2.4893 1.4061
| 16> C 0.0963 -3.7725 0.7118
| 17> C -1.1601 -3.5450 -0.0731
| 18> C -2.0634 -4.6041 -0.2595
| 19> C -3.2002 -4.4310 -1.0506
| 20> C -3.4323 -3.2089 -1.6812
| 21> C -2.5316 -2.1544 -1.5173
| 22> C -1.3955 -2.3010 -0.6969
| 23> C -0.4070 -1.1480 -0.5653
| 24> C -1.1309 0.1425 -0.2243
| 25> C -1.8280 0.2728 0.9884
| 26> C -2.4804 1.4670 1.3061
| 27> C -2.4342 2.5606 0.4252
| 28> C -3.1766 3.8329 0.7470
| 29> F -4.4680 3.7411 0.2625
| 30> F -3.2216 4.0401 2.1149
| 31> F -2.5528 4.9230 0.1650
| 32> C -1.7657 2.4181 -0.8024
| 33> C -1.1153 1.2232 -1.1210
| 34> H 1.6965 0.3696 -1.3669
| 35> H 4.5234 0.2351 0.9004
| 36> H 6.2156 2.0089 1.1394
| 37> H 5.8711 4.2171 0.0686
| 38> H 3.8166 4.6516 -1.2450
| 39> H -0.2152 -2.2075 2.1820
| 40> H 1.4975 -2.6881 1.9139
| 41> H -0.0593 -4.5605 1.4809
| 42> H 0.8981 -4.1100 0.0200
| 43> H -1.8830 -5.5672 0.2019
| 44> H -3.8944 -5.2501 -1.1870
| 45> H -4.3064 -3.0810 -2.3066
| 46> H -2.7198 -1.2213 -2.0333
| 47> H 0.0639 -1.0704 -1.5677
| 48> H -1.8758 -0.5538 1.6845
| 49> H -3.0232 1.5345 2.2406
| 50> H -1.7477 3.2308 -1.5177
| 51> H -0.6028 1.1421 -2.0712
| 52> *
| 53> 
| 54>                          ****END OF INPUT****
================================================================================

                       ****************************
                       * Single Point Calculation *
                       ****************************

---------------------------------
CARTESIAN COORDINATES (ANGSTROEM)
---------------------------------
  O      2.205400   -0.281100    1.789800
  C      1.708800   -0.418700    0.637800
  N      2.164000    0.424700   -0.437600
  C      3.161300    1.446400   -0.275300
  C      4.340600    1.202700    0.451900
  C      5.310600    2.201800    0.577900
  C      5.118700    3.445300   -0.029200
  C      3.959800    3.689300   -0.770400
  C      2.986700    2.693000   -0.900900
  F      1.864900    2.947800   -1.620700
  N      0.663200   -1.398200    0.429600
  C      0.528200   -2.489300    1.406100
  C      0.096300   -3.772500    0.711800
  C     -1.160100   -3.545000   -0.073100
  C     -2.063400   -4.604100   -0.259500
  C     -3.200200   -4.431000   -1.050600
  C     -3.432300   -3.208900   -1.681200
  C     -2.531600   -2.154400   -1.517300
  C     -1.395500   -2.301000   -0.696900
  C     -0.407000   -1.148000   -0.565300
  C     -1.130900    0.142500   -0.224300
  C     -1.828000    0.272800    0.988400
  C     -2.480400    1.467000    1.306100
  C     -2.434200    2.560600    0.425200
  C     -3.176600    3.832900    0.747000
  F     -4.468000    3.741100    0.262500
  F     -3.221600    4.040100    2.114900
  F     -2.552800    4.923000    0.165000
  C     -1.765700    2.418100   -0.802400
  C     -1.115300    1.223200   -1.121000
  H      1.696500    0.369600   -1.366900
  H      4.523400    0.235100    0.900400
  H      6.215600    2.008900    1.139400
  H      5.871100    4.217100    0.068600
  H      3.816600    4.651600   -1.245000
  H     -0.215200   -2.207500    2.182000
  H      1.497500   -2.688100    1.913900
  H     -0.059300   -4.560500    1.480900
  H      0.898100   -4.110000    0.020000
  H     -1.883000   -5.567200    0.201900
  H     -3.894400   -5.250100   -1.187000
  H     -4.306400   -3.081000   -2.306600
  H     -2.719800   -1.221300   -2.033300
  H      0.063900   -1.070400   -1.567700
  H     -1.875800   -0.553800    1.684500
  H     -3.023200    1.534500    2.240600
  H     -1.747700    3.230800   -1.517700
  H     -0.602800    1.142100   -2.071200

----------------------------
CARTESIAN COORDINATES (A.U.)
----------------------------
  NO LB      ZA    FRAG     MASS         X           Y           Z
   0 O     8.0000    0    15.999    4.167602   -0.531202    3.382232
   1 C     6.0000    0    12.011    3.229164   -0.791228    1.205267
   2 N     7.0000    0    14.007    4.089367    0.802567   -0.826944
   3 C     6.0000    0    12.011    5.973991    2.733300   -0.520242
   4 C     6.0000    0    12.011    8.202545    2.272774    0.853967
   5 C     6.0000    0    12.011   10.035580    4.160799    1.092073
   6 C     6.0000    0    12.011    9.672941    6.510673   -0.055180
   7 C     6.0000    0    12.011    7.482938    6.971767   -1.455845
   8 C     6.0000    0    12.011    5.644045    5.089032   -1.702454
   9 F     9.0000    0    18.998    3.524150    5.570535   -3.062679
  10 N     7.0000    0    14.007    1.253266   -2.642215    0.811826
  11 C     6.0000    0    12.011    0.998153   -4.704095    2.657144
  12 C     6.0000    0    12.011    0.181981   -7.128992    1.345107
  13 C     6.0000    0    12.011   -2.192271   -6.699079   -0.138139
  14 C     6.0000    0    12.011   -3.899261   -8.700488   -0.490384
  15 C     6.0000    0    12.011   -6.047502   -8.373376   -1.985346
  16 C     6.0000    0    12.011   -6.486107   -6.063942   -3.177008
  17 C     6.0000    0    12.011   -4.784031   -4.071226   -2.867281
  18 C     6.0000    0    12.011   -2.637113   -4.348260   -1.316950
  19 C     6.0000    0    12.011   -0.769119   -2.169406   -1.068262
  20 C     6.0000    0    12.011   -2.137091    0.269286   -0.423866
  21 C     6.0000    0    12.011   -3.454419    0.515517    1.867805
  22 C     6.0000    0    12.011   -4.687277    2.772228    2.468171
  23 C     6.0000    0    12.011   -4.599971    4.838833    0.803512
  24 C     6.0000    0    12.011   -6.002904    7.243131    1.411625
  25 F     9.0000    0    18.998   -8.443296    7.069654    0.496053
  26 F     9.0000    0    18.998   -6.087942    7.634683    3.996582
  27 F     9.0000    0    18.998   -4.824093    9.303122    0.311805
  28 C     6.0000    0    12.011   -3.336689    4.569547   -1.516316
  29 C     6.0000    0    12.011   -2.107612    2.311513   -2.118383
  30 H     1.0000    0     1.008    3.205920    0.698443   -2.583067
  31 H     1.0000    0     1.008    8.547987    0.444275    1.701509
  32 H     1.0000    0     1.008   11.745782    3.796271    2.153154
  33 H     1.0000    0     1.008   11.094771    7.969164    0.129635
  34 H     1.0000    0     1.008    7.212329    8.790250   -2.352709
  35 H     1.0000    0     1.008   -0.406669   -4.171570    4.123382
  36 H     1.0000    0     1.008    2.829865   -5.079773    3.616747
  37 H     1.0000    0     1.008   -0.112061   -8.618096    2.798495
  38 H     1.0000    0     1.008    1.697163   -7.766774    0.037795
  39 H     1.0000    0     1.008   -3.558354  -10.520483    0.381536
  40 H     1.0000    0     1.008   -7.359349   -9.921251   -2.243105
  41 H     1.0000    0     1.008   -8.137917   -5.822246   -4.358842
  42 H     1.0000    0     1.008   -5.139677   -2.307923   -3.842380
  43 H     1.0000    0     1.008    0.120753   -2.022763   -2.962524
  44 H     1.0000    0     1.008   -3.544748   -1.046530    3.183244
  45 H     1.0000    0     1.008   -5.713020    2.899785    4.234120
  46 H     1.0000    0     1.008   -3.302674    6.105327   -2.868037
  47 H     1.0000    0     1.008   -1.139127    2.158256   -3.914001

--------------------------------
INTERNAL COORDINATES (ANGSTROEM)
--------------------------------
 O      0   0   0     0.000000000000     0.00000000     0.00000000
 C      1   0   0     1.262002107764     0.00000000     0.00000000
 N      2   1   0     1.440491499454   119.55716702     0.00000000
 C      3   2   1     1.436947970526   123.45601858   359.31502310
 C      4   3   2     1.406754427752   121.13359402    44.71513273
 C      5   4   3     1.398204852659   120.28976342   178.81337202
 C      6   5   4     1.397028371222   120.10428407   359.41012075
 C      7   6   5     1.397126569070   119.99582077   359.61221675
 C      8   7   6     1.398773587826   120.14307234     0.32320309
 F      9   8   7     1.357007855541   119.39628856   179.78871718
 N      2   1   3     1.447773065781   119.29005681   181.71415203
 C     11   2   1     1.470468109141   118.21728222   339.63600519
 C     12  11   2     1.521575611003   110.41412767   215.02513352
 C     13  12  11     1.498787916952   110.41989084   305.10838603
 C     14  13  12     1.404417551870   119.61741081   209.84265922
 C     15  14  13     1.395749640874   120.36839207   183.63853504
 C     16  15  14     1.394652350946   120.03303079     1.16529459
 C     17  16  15     1.396457643468   120.08530778   359.69188550
 C     18  17  16     1.408996426539   120.65303720   358.79036261
 C     11   2   1     1.482482407990   120.24441504   146.99504564
 C     20  11   2     1.518453970326   109.68678448   302.13569340
 C     21  20  11     1.404837282393   120.61361224   297.72665731
 C     22  21  20     1.397380653222   120.47704883   179.26635975
 C     23  22  21     1.405019647549   120.48307531   359.17293401
 C     24  23  22     1.507799817615   120.44981146   177.93994508
 F     25  24  23     1.382346356743   109.21655901   272.07430403
 F     25  24  23     1.384235258184   110.68426765    32.10998012
 F     25  24  23     1.384257364076   110.66393329   152.05117052
 C     24  23  22     1.405062368722   118.97867709     2.42176678
 C     29  24  23     1.397251634460   120.49209667   357.68734101
 H      3   2   1     1.041724891706   119.55103867   185.36815537
 H      5   4   3     1.082043367892   120.71736332     0.36270344
 H      6   5   4     1.082366693870   119.96448344   179.94260348
 H      7   6   5     1.082287318599   119.99913866   180.06148113
 H      8   7   6     1.082484498734   119.84025008   180.38906131
 H     12  11   2     1.110889557967   109.69623496    93.58541149
 H     12  11   2     1.112171196354   110.84406418   334.36001891
 H     13  12  11     1.112056729668   108.76710559   183.52763719
 H     13  12  11     1.111475024461   109.59229972    65.13841930
 H     15  14  13     1.083049274041   120.45917498     3.15018981
 H     16  15  14     1.082332393491   119.99797955   180.24300192
 H     17  16  15     1.082374417658   119.94717657   179.06250896
 H     18  17  16     1.082751518124   118.86273084   178.67524409
 H     20  11   2     1.110213641602   108.15173568    62.37041440
 H     22  21  20     1.081715124236   120.43453517   358.61843121
 H     23  22  21     1.082810389680   118.91592365   179.04767369
 H     29  24  23     1.082801634650   120.59422353   177.55287470
 H     30  29  24     1.082641907558   118.98213202   180.36024447

---------------------------
INTERNAL COORDINATES (A.U.)
---------------------------
 O      0   0   0     0.000000000000     0.00000000     0.00000000
 C      1   0   0     2.384838364105     0.00000000     0.00000000
 N      2   1   0     2.722134432210   119.55716702     0.00000000
 C      3   2   1     2.715438132989   123.45601858   359.31502310
 C      4   3   2     2.658380606132   121.13359402    44.71513273
 C      5   4   3     2.642224250646   120.28976342   178.81337202
 C      6   5   4     2.640001022928   120.10428407   359.41012075
 C      7   6   5     2.640186589966   119.99582077   359.61221675
 C      8   7   6     2.643299004354   120.14307234     0.32320309
 F      9   8   7     2.564373208552   119.39628856   179.78871718
 N      2   1   3     2.735894598393   119.29005681   181.71415203
 C     11   2   1     2.778782014941   118.21728222   339.63600519
 C     12  11   2     2.875361196850   110.41412767   215.02513352
 C     13  12  11     2.832298695869   110.41989084   305.10838603
 C     14  13  12     2.653964550706   119.61741081   209.84265922
 C     15  14  13     2.637584572771   120.36839207   183.63853504
 C     16  15  14     2.635510995318   120.03303079     1.16529459
 C     17  16  15     2.638922503775   120.08530778   359.69188550
 C     18  17  16     2.662617369833   120.65303720   358.79036261
 C     11   2   1     2.801485749457   120.24441504   146.99504564
 C     20  11   2     2.869462150882   109.68678448   302.13569340
 C     21  20  11     2.654757726444   120.61361224   297.72665731
 C     22  21  20     2.640666739430   120.47704883   179.26635975
 C     23  22  21     2.655102346647   120.48307531   359.17293401
 C     24  23  22     2.849328720069   120.44981146   177.93994508
 F     25  24  23     2.612256036468   109.21655901   272.07430403
 F     25  24  23     2.615825542886   110.68426765    32.10998012
 F     25  24  23     2.615867316968   110.66393329   152.05117052
 C     24  23  22     2.655183077964   118.97867709     2.42176678
 C     29  24  23     2.640422929302   120.49209667   357.68734101
 H      3   2   1     1.968574752213   119.55103867   185.36815537
 H      5   4   3     2.044765630342   120.71736332     0.36270344
 H      6   5   4     2.045376627893   119.96448344   179.94260348
 H      7   6   5     2.045226630368   119.99913866   180.06148113
 H      8   7   6     2.045599246823   119.84025008   180.38906131
 H     12  11   2     2.099277029590   109.69623496    93.58541149
 H     12  11   2     2.101698975145   110.84406418   334.36001891
 H     13  12  11     2.101482664457   108.76710559   183.52763719
 H     13  12  11     2.100383400924   109.59229972    65.13841930
 H     15  14  13     2.046666517479   120.45917498     3.15018981
 H     16  15  14     2.045311809570   119.99797955   180.24300192
 H     17  16  15     2.045391223736   119.94717657   179.06250896
 H     18  17  16     2.046103840342   118.86273084   178.67524409
 H     20  11   2     2.097999732772   108.15173568    62.37041440
 H     22  21  20     2.044145339726   120.43453517   358.61843121
 H     23  22  21     2.046215091461   118.91592365   179.04767369
 H     29  24  23     2.046198546850   120.59422353   177.55287470
 H     30  29  24     2.045896706390   118.98213202   180.36024447

---------------------
BASIS SET INFORMATION
---------------------
There are 5 groups of distinct atoms

 Group   1 Type O   : 10s4p1d contracted to 3s2p1d pattern {631/31/1}
 Group   2 Type C   : 10s4p1d contracted to 3s2p1d pattern {631/31/1}
 Group   3 Type N   : 10s4p1d contracted to 3s2p1d pattern {631/31/1}
 Group   4 Type F   : 10s4p1d contracted to 3s2p1d pattern {631/31/1}
 Group   5 Type H   : 4s contracted to 2s pattern {31}

Atom   0O    basis set group =>   1
Atom   1C    basis set group =>   2
Atom   2N    basis set group =>   3
Atom   3C    basis set group =>   2
Atom   4C    basis set group =>   2
Atom   5C    basis set group =>   2
Atom   6C    basis set group =>   2
Atom   7C    basis set group =>   2
Atom   8C    basis set group =>   2
Atom   9F    basis set group =>   4
Atom  10N    basis set group =>   3
Atom  11C    basis set group =>   2
Atom  12C    basis set group =>   2
Atom  13C    basis set group =>   2
Atom  14C    basis set group =>   2
Atom  15C    basis set group =>   2
Atom  16C    basis set group =>   2
Atom  17C    basis set group =>   2
Atom  18C    basis set group =>   2
Atom  19C    basis set group =>   2
Atom  20C    basis set group =>   2
Atom  21C    basis set group =>   2
Atom  22C    basis set group =>   2
Atom  23C    basis set group =>   2
Atom  24C    basis set group =>   2
Atom  25F    basis set group =>   4
Atom  26F    basis set group =>   4
Atom  27F    basis set group =>   4
Atom  28C    basis set group =>   2
Atom  29C    basis set group =>   2
Atom  30H    basis set group =>   5
Atom  31H    basis set group =>   5
Atom  32H    basis set group =>   5
Atom  33H    basis set group =>   5
Atom  34H    basis set group =>   5
Atom  35H    basis set group =>   5
Atom  36H    basis set group =>   5
Atom  37H    basis set group =>   5
Atom  38H    basis set group =>   5
Atom  39H    basis set group =>   5
Atom  40H    basis set group =>   5
Atom  41H    basis set group =>   5
Atom  42H    basis set group =>   5
Atom  43H    basis set group =>   5
Atom  44H    basis set group =>   5
Atom  45H    basis set group =>   5
Atom  46H    basis set group =>   5
Atom  47H    basis set group =>   5
---------------------------------
AUXILIARY/J BASIS SET INFORMATION
---------------------------------
There are 5 groups of distinct atoms

 Group   1 Type O   : 12s5p4d2f1g contracted to 6s4p3d1f1g pattern {711111/2111/211/2/1}
 Group   2 Type C   : 12s5p4d2f1g contracted to 6s4p3d1f1g pattern {711111/2111/211/2/1}
 Group   3 Type N   : 12s5p4d2f1g contracted to 6s4p3d1f1g pattern {711111/2111/211/2/1}
 Group   4 Type F   : 12s5p4d2f1g contracted to 6s4p3d1f1g pattern {711111/2111/211/2/1}
 Group   5 Type H   : 5s2p1d contracted to 3s1p1d pattern {311/2/1}

Atom   0O    basis set group =>   1
Atom   1C    basis set group =>   2
Atom   2N    basis set group =>   3
Atom   3C    basis set group =>   2
Atom   4C    basis set group =>   2
Atom   5C    basis set group =>   2
Atom   6C    basis set group =>   2
Atom   7C    basis set group =>   2
Atom   8C    basis set group =>   2
Atom   9F    basis set group =>   4
Atom  10N    basis set group =>   3
Atom  11C    basis set group =>   2
Atom  12C    basis set group =>   2
Atom  13C    basis set group =>   2
Atom  14C    basis set group =>   2
Atom  15C    basis set group =>   2
Atom  16C    basis set group =>   2
Atom  17C    basis set group =>   2
Atom  18C    basis set group =>   2
Atom  19C    basis set group =>   2
Atom  20C    basis set group =>   2
Atom  21C    basis set group =>   2
Atom  22C    basis set group =>   2
Atom  23C    basis set group =>   2
Atom  24C    basis set group =>   2
Atom  25F    basis set group =>   4
Atom  26F    basis set group =>   4
Atom  27F    basis set group =>   4
Atom  28C    basis set group =>   2
Atom  29C    basis set group =>   2
Atom  30H    basis set group =>   5
Atom  31H    basis set group =>   5
Atom  32H    basis set group =>   5
Atom  33H    basis set group =>   5
Atom  34H    basis set group =>   5
Atom  35H    basis set group =>   5
Atom  36H    basis set group =>   5
Atom  37H    basis set group =>   5
Atom  38H    basis set group =>   5
Atom  39H    basis set group =>   5
Atom  40H    basis set group =>   5
Atom  41H    basis set group =>   5
Atom  42H    basis set group =>   5
Atom  43H    basis set group =>   5
Atom  44H    basis set group =>   5
Atom  45H    basis set group =>   5
Atom  46H    basis set group =>   5
Atom  47H    basis set group =>   5
------------------------------------------------------------------------------
                             ORCA STARTUP CALCULATIONS
                           -- RI-GTO INTEGRALS CHOSEN --
------------------------------------------------------------------------------
------------------------------------------------------------------------------
                   ___                                                        
                  /   \      - P O W E R E D   B Y -                         
                 /     \                                                     
                 |  |  |   _    _      __       _____    __    __             
                 |  |  |  | |  | |    /  \     |  _  \  |  |  /  |          
                  \  \/   | |  | |   /    \    | | | |  |  | /  /          
                 / \  \   | |__| |  /  /\  \   | |_| |  |  |/  /          
                |  |  |   |  __  | /  /__\  \  |    /   |      \           
                |  |  |   | |  | | |   __   |  |    \   |  |\   \          
                \     /   | |  | | |  |  |  |  | |\  \  |  | \   \       
                 \___/    |_|  |_| |__|  |__|  |_| \__\ |__|  \__/        
                                                                              
                      - O R C A' S   B I G   F R I E N D -                    
                                      &                                       
                       - I N T E G R A L  F E E D E R -                       
                                                                              
 v1 FN, 2020, v2 2021, v3 2022-2024                                           
------------------------------------------------------------------------------


----------------------
SHARK INTEGRAL PACKAGE
----------------------

Number of atoms                             ...     48
Number of basis functions                   ...    456
Number of shells                            ...    216
Maximum angular momentum                    ...      2
Integral batch strategy                     ... SHARK/LIBINT Hybrid
RI-J (if used) integral strategy            ... SPLIT-RIJ (Revised 2003 algorithm where possible)
Printlevel                                  ...      1
Contraction scheme used                     ... SEGMENTED contraction
Prescreening option                         ... SCHWARTZ
   Thresh                                   ... 1.000e-10
   Tcut                                     ... 1.000e-11
   Tpresel                                  ... 1.000e-11 
Coulomb Range Separation                    ... NOT USED
Exchange Range Separation                   ... NOT USED
Multipole approximations                    ... NOT USED
Finite Nucleus Model                        ... NOT USED
CABS basis                                  ... NOT available
Auxiliary Coulomb fitting basis             ... AVAILABLE
   # of basis functions in Aux-J            ...   1668
   # of shells in Aux-J                     ...    540
   Maximum angular momentum in Aux-J        ...      4
Auxiliary J/K fitting basis                 ... NOT available
Auxiliary Correlation fitting basis         ... NOT available
Auxiliary 'external' fitting basis          ... NOT available

Checking pre-screening integrals            ... done (  0.0 sec) Dimension = 216
Check shell pair data                       ... done (  0.0 sec)
Shell pair information
Shell pair cut-off parameter TPreSel        ...   1.0e-11
Total number of shell pairs                 ...     23436
Shell pairs after pre-screening             ...     14266
Total number of primitive shell pairs       ...    137187
Primitive shell pairs kept                  ...     43429
          la=0 lb=0:   4567 shell pairs
          la=1 lb=0:   5000 shell pairs
          la=1 lb=1:   1380 shell pairs
          la=2 lb=0:   1959 shell pairs
          la=2 lb=1:   1144 shell pairs
          la=2 lb=2:    216 shell pairs

Calculating one electron integrals          ... done (  0.2 sec)
Calculating RI/J V-Matrix + Cholesky decomp.... done (  0.3 sec)
Calculating Nuclear repulsion               ... done (  0.0 sec) ENN=   2862.900597060595 Eh

Diagonalization of the overlap matrix:
Smallest eigenvalue                        ... 4.066e-04
Time for diagonalization                   ...    0.033 sec
Threshold for overlap eigenvalues          ... 1.000e-07
Number of eigenvalues below threshold      ... 0
Time for construction of square roots      ...    0.025 sec
Total time needed                          ...    0.068 sec

-------------------
DFT GRID GENERATION
-------------------

General Integration Accuracy     IntAcc      ... 4.388
Radial Grid Type                 RadialGrid  ... OptM3 with GC (2021)
Angular Grid (max. ang.)         AngularGrid ... 4 (Lebedev-302)
Angular grid pruning method      GridPruning ... 4 (adaptive)
Weight generation scheme         WeightScheme... mBecke (2022)
Basis function cutoff            BFCut       ... 1.0000e-10
Integration weight cutoff        WCut        ... 1.0000e-14
Partially contracted basis set               ... off
Rotationally invariant grid construction     ... off
Angular grids for H and He will be reduced by one unit

Total number of grid points                  ...   236474
Total number of batches                      ...     3721
Average number of points per batch           ...       63
Average number of grid points per atom       ...     4927

--------------------
COSX GRID GENERATION
--------------------

GRIDX 1
-------
General Integration Accuracy     IntAcc      ... 3.816
Radial Grid Type                 RadialGrid  ... OptM3 with GC (2021)
Angular Grid (max. ang.)         AngularGrid ... 1 (Lebedev-50)
Angular grid pruning method      GridPruning ... 4 (adaptive)
Weight generation scheme         WeightScheme... mBecke (2022)
Basis function cutoff            BFCut       ... 1.0000e-10
Integration weight cutoff        WCut        ... 1.0000e-14
Partially contracted basis set               ... on
Rotationally invariant grid construction     ... off
Angular grids for H and He will be reduced by one unit

Total number of grid points                  ...    29902
Total number of batches                      ...      258
Average number of points per batch           ...      115
Average number of grid points per atom       ...      623
UseSFitting                                  ... on

GRIDX 2
-------
General Integration Accuracy     IntAcc      ... 4.020
Radial Grid Type                 RadialGrid  ... OptM3 with GC (2021)
Angular Grid (max. ang.)         AngularGrid ... 2 (Lebedev-110)
Angular grid pruning method      GridPruning ... 4 (adaptive)
Weight generation scheme         WeightScheme... mBecke (2022)
Basis function cutoff            BFCut       ... 1.0000e-10
Integration weight cutoff        WCut        ... 1.0000e-14
Partially contracted basis set               ... on
Rotationally invariant grid construction     ... off
Angular grids for H and He will be reduced by one unit

Total number of grid points                  ...    65698
Total number of batches                      ...      536
Average number of points per batch           ...      122
Average number of grid points per atom       ...     1369
UseSFitting                                  ... on

GRIDX 3
-------
General Integration Accuracy     IntAcc      ... 4.338
Radial Grid Type                 RadialGrid  ... OptM3 with GC (2021)
Angular Grid (max. ang.)         AngularGrid ... 3 (Lebedev-194)
Angular grid pruning method      GridPruning ... 4 (adaptive)
Weight generation scheme         WeightScheme... mBecke (2022)
Basis function cutoff            BFCut       ... 1.0000e-10
Integration weight cutoff        WCut        ... 1.0000e-14
Partially contracted basis set               ... on
Rotationally invariant grid construction     ... off
Angular grids for H and He will be reduced by one unit

Total number of grid points                  ...   143821
Total number of batches                      ...     1149
Average number of points per batch           ...      125
Average number of grid points per atom       ...     2996
UseSFitting                                  ... on
Initializing property integral containers    ... done (  0.0 sec)

SHARK setup successfully completed in  10.7 seconds

Maximum memory used throughout the entire STARTUP-calculation: 102.1 MB
-------------------------------------------------------------------------------
                                 ORCA GUESS
                   Start orbitals & Density for SCF / CASSCF
-------------------------------------------------------------------------------

------------
SCF SETTINGS
------------
Hamiltonian:
 Density Functional     Method          .... DFT(GTOs)
 Exchange Functional    Exchange        .... B88
   X-Alpha parameter    XAlpha          ....  0.666667
   Becke's b parameter  XBeta           ....  0.004200
 Correlation Functional Correlation     .... LYP
 LDA part of GGA corr.  LDAOpt          .... VWN-5
 Gradients option       PostSCFGGA      .... off
 Hybrid DFT is turned on
   Fraction HF Exchange ScalHFX         ....  0.200000
   Scaling of DF-GGA-X  ScalDFX         ....  0.720000
   Scaling of DF-GGA-C  ScalDFC         ....  0.810000
   Scaling of DF-LDA-C  ScalLDAC        ....  1.000000
   Perturbative correction              ....  0.000000
   NL short-range parameter             ....  4.800000
 RI-approximation to the Coulomb term is turned on
   Number of AuxJ basis functions       .... 1668
   RIJ-COSX (HFX calculated with COS-X)).... on


General Settings:
 Integral files         IntName         .... /home/nmrbox/aojoawo/Documents/ERDOS/inputs/CHEMBL3235959
 Hartree-Fock type      HFTyp           .... RHF
 Total Charge           Charge          ....    0
 Multiplicity           Mult            ....    1
 Number of Electrons    NEL             ....  214
 Basis Dimension        Dim             ....  456
 Nuclear Repulsion      ENuc            ....   2862.9005970606 Eh

Convergence Acceleration:
 AO-DIIS                CNVDIIS         .... on
   Start iteration      DIISMaxIt       ....    12
   Startup error        DIISStart       ....  0.200000
   # of expansion vecs  DIISMaxEq       ....     5
   Bias factor          DIISBfac        ....   1.050
   Max. coefficient     DIISMaxC        ....  10.000
 MO-DIIS                CNVKDIIS        .... off
 Trust-Rad. Augm. Hess. CNVTRAH         .... auto
   Auto Start mean grad. ratio tolernc. ....  1.125000
   Auto Start start iteration           ....    50
   Auto Start num. interpolation iter.  ....    10
   Max. Number of Micro iterations      ....    24
   Max. Number of Macro iterations      .... Maxiter - #DIIS iter
   Number of Davidson start vectors     ....     2
   Converg. threshold    (grad. norm)   ....   5.000e-05
   Grad. Scal. Fac. for Micro threshold ....   0.100
   Minimum threshold for Micro iter.    ....   1.000e-02
   NR start threshold (gradient norm)   ....   1.000e-04
   Initial trust radius                 ....   0.400
   Minimum AH scaling param. (alpha)    ....   1.000
   Maximum AH scaling param. (alpha)    .... 1000.000
   Quad. conv. algorithm                .... NR
   White noise on init. David. guess    .... on
   Maximum white noise                  ....   0.010
   Pseudo random numbers                .... off
   Inactive MOs                         .... canonical
   Orbital update algorithm             .... Taylor
   Preconditioner                       .... Diag
   Full preconditioner red. dimension   ....   250
 SOSCF                  CNVSOSCF        .... on
   Start iteration      SOSCFMaxIt      ....   150
   Startup grad/error   SOSCFStart      ....  0.003300
   Hessian update       SOSCFHessUp     .... L-BFGS
 Level Shifting         CNVShift        .... on
   Level shift para.    LevelShift      ....    0.2500
   Turn off err/grad.   ShiftErr        ....    0.0010
 Zerner damping         CNVZerner       .... off
 Static damping         CNVDamp         .... on
   Fraction old density DampFac         ....    0.7000
   Max. Damping (<1)    DampMax         ....    0.9800
   Min. Damping (>=0)   DampMin         ....    0.0000
   Turn off err/grad.   DampErr         ....    0.1000

SCF Procedure:
 Maximum # iterations   MaxIter         ....   125
 SCF integral mode      SCFMode         .... Direct
   Integral package                     .... SHARK and LIBINT hybrid scheme
 Reset frequency        DirectResetFreq ....    20
 Integral Threshold     Thresh          ....  1.000e-10 Eh
 Primitive CutOff       TCut            ....  1.000e-11 Eh

Convergence Tolerance:
 Convergence Check Mode ConvCheckMode   .... Total+1el-Energy
 Convergence forced     ConvForced      .... 0
 Energy Change          TolE            ....  1.000e-06 Eh
 1-El. energy change                    ....  1.000e-03 Eh
 Orbital Gradient       TolG            ....  5.000e-05
 Orbital Rotation angle TolX            ....  5.000e-05
 DIIS Error             TolErr          ....  1.000e-06

------------------------------
INITIAL GUESS: MODEL POTENTIAL
------------------------------
Loading Hartree-Fock densities                     ... done
Calculating cut-offs                               ... done
Initializing the effective Hamiltonian             ... done
Setting up the integral package (SHARK)            ... done
Starting the Coulomb interaction                   ... done (   2.4 sec)
Making the grid                                    ... done (   1.4 sec)
Mapping shells                                     ... done
Starting the XC term evaluation                    ... done (   1.1 sec)
  promolecular density results
     # of electrons  =    213.979483590
     EX              =   -185.114996368
     EC              =     -7.431424931
     EX+EC           =   -192.546421300
Transforming the Hamiltonian                       ... done (   0.0 sec)
Diagonalizing the Hamiltonian                      ... done (   0.0 sec)
Back transforming the eigenvectors                 ... done (   0.0 sec)
Now organizing SCF variables                       ... done
                      ------------------
                      INITIAL GUESS DONE (   5.0 sec)
                      ------------------
             **** ENERGY FILE WAS UPDATED (/home/nmrbox/aojoawo/Documents/ERDOS/inputs/CHEMBL3235959.en.tmp) ****
Finished Guess after   5.3 sec
Maximum memory used throughout the entire GUESS-calculation: 55.6 MB

-------------------------------------------------------------------------------------------
                                      ORCA LEAN-SCF
                              memory conserving SCF solver
-------------------------------------------------------------------------------------------

----------------------------------------D-I-I-S--------------------------------------------
Iteration    Energy (Eh)           Delta-E    RMSDP     MaxDP     DIISErr   Damp  Time(sec)
-------------------------------------------------------------------------------------------
               ***  Starting incremental Fock matrix formation  ***
    1    -1469.9060038358320526     0.00e+00  2.01e-03  1.06e-01  2.85e-01  0.700  53.4
    2    -1470.2129429594569956    -3.07e-01  1.33e-03  5.47e-02  9.81e-02  0.700  24.2
                               ***Turning on AO-DIIS***
    3    -1470.3310683330983011    -1.18e-01  5.64e-04  1.70e-02  3.60e-02  0.700  22.8
    4    -1470.4039048166750945    -7.28e-02  9.57e-04  2.51e-02  1.58e-02  0.000  20.9
    5    -1470.5642013954357026    -1.60e-01  2.15e-04  7.62e-03  6.76e-03  0.000  22.0
                              *** Initializing SOSCF ***
---------------------------------------S-O-S-C-F--------------------------------------
Iteration    Energy (Eh)           Delta-E    RMSDP     MaxDP     MaxGrad    Time(sec)
--------------------------------------------------------------------------------------
    6    -1470.5653186688859932    -1.12e-03  6.63e-05  2.12e-03  1.66e-03    19.5
               *** Restarting incremental Fock matrix formation ***
    7    -1470.5654979295495650    -1.79e-04  5.16e-05  3.02e-03  3.45e-04    53.9
    8    -1470.5654743144905297     2.36e-05  2.96e-05  2.13e-03  9.03e-04    30.7
    9    -1470.5655113132170300    -3.70e-05  9.99e-06  3.85e-04  6.23e-05    26.3
   10    -1470.5655102078044365     1.11e-06  6.32e-06  2.38e-04  1.72e-04    22.1
   11    -1470.5655117814885671    -1.57e-06  2.22e-06  8.34e-05  1.67e-05    19.8
   12    -1470.5655118899630907    -1.08e-07  1.27e-06  5.54e-05  2.27e-05    16.8
                 **** Energy Check signals convergence ****

               *****************************************************
               *                     SUCCESS                       *
               *           SCF CONVERGED AFTER  12 CYCLES          *
               *****************************************************

Recomputing exchange energy using gridx3       ... done (   92.766 sec)
Old exchange energy                            :    -37.471773638 Eh
New exchange energy                            :    -37.471775433 Eh
Exchange energy change after final integration :     -0.000001796 Eh
Total energy after final integration           :  -1470.565513686 Eh
             **** ENERGY FILE WAS UPDATED (/home/nmrbox/aojoawo/Documents/ERDOS/inputs/CHEMBL3235959.en.tmp) ****

----------------
TOTAL SCF ENERGY
----------------

Total Energy       :      -1470.56551368558394 Eh          -40016.12201 eV

Components:
Nuclear Repulsion  :       2862.90059706059492 Eh           77903.48578 eV
Electronic Energy  :      -4333.46610895055892 Eh         -117919.60774 eV
One Electron Energy:      -7706.74128228363861 Eh         -209711.09180 eV
Two Electron Energy:       3373.27517333308015 Eh           91791.48406 eV

Virial components:
Potential Energy   :      -2932.10053331194831 Eh          -79786.51178 eV
Kinetic Energy     :       1461.53501962636460 Eh           39770.38977 eV
Virial Ratio       :          2.00617877364412

DFT components:
N(Alpha)           :      106.999942827975 electrons
N(Beta)            :      106.999942827975 electrons
N(Total)           :      213.999885655950 electrons
E(X)               :     -148.916241621783 Eh       
E(C)               :       -8.734989379224 Eh       
E(XC)              :     -157.651231001007 Eh       

---------------
SCF CONVERGENCE
---------------

  Last Energy change         ...    1.0847e-07  Tolerance :   1.0000e-06
  Last MAX-Density change    ...    5.5370e-05  Tolerance :   1.0000e-05
  Last RMS-Density change    ...    1.2692e-06  Tolerance :   1.0000e-06
  Last DIIS Error            ...    1.6602e-03  Tolerance :   1.0000e-06
  Last Orbital Gradient      ...    2.2709e-05  Tolerance :   5.0000e-05
  Last Orbital Rotation      ...    3.1807e-05  Tolerance :   5.0000e-05


----------------
ORBITAL ENERGIES
----------------

  NO   OCC          E(Eh)            E(eV) 
   0   2.0000     -24.714155      -672.5063 
   1   2.0000     -24.714114      -672.5052 
   2   2.0000     -24.711029      -672.4213 
   3   2.0000     -24.704880      -672.2540 
   4   2.0000     -19.102699      -519.8109 
   5   2.0000     -14.368486      -390.9864 
   6   2.0000     -14.357122      -390.6771 
   7   2.0000     -10.429591      -283.8036 
   8   2.0000     -10.317171      -280.7445 
   9   2.0000     -10.268414      -279.4177 
  10   2.0000     -10.245883      -278.8047 
  11   2.0000     -10.234087      -278.4837 
  12   2.0000     -10.217979      -278.0454 
  13   2.0000     -10.209724      -277.8207 
  14   2.0000     -10.206332      -277.7284 
  15   2.0000     -10.203503      -277.6514 
  16   2.0000     -10.200572      -277.5717 
  17   2.0000     -10.199899      -277.5534 
  18   2.0000     -10.197726      -277.4942 
  19   2.0000     -10.197338      -277.4837 
  20   2.0000     -10.195602      -277.4364 
  21   2.0000     -10.190738      -277.3041 
  22   2.0000     -10.190051      -277.2854 
  23   2.0000     -10.187601      -277.2187 
  24   2.0000     -10.186979      -277.2018 
  25   2.0000     -10.186590      -277.1912 
  26   2.0000     -10.186244      -277.1818 
  27   2.0000     -10.184990      -277.1477 
  28   2.0000     -10.184317      -277.1294 
  29   2.0000     -10.180811      -277.0339 
  30   2.0000      -1.274121       -34.6706 
  31   2.0000      -1.217475       -33.1292 
  32   2.0000      -1.199471       -32.6393 
  33   2.0000      -1.198636       -32.6165 
  34   2.0000      -1.018448       -27.7134 
  35   2.0000      -0.931154       -25.3380 
  36   2.0000      -0.915462       -24.9110 
  37   2.0000      -0.869672       -23.6650 
  38   2.0000      -0.858970       -23.3738 
  39   2.0000      -0.843757       -22.9598 
  40   2.0000      -0.807066       -21.9614 
  41   2.0000      -0.785279       -21.3685 
  42   2.0000      -0.762480       -20.7481 
  43   2.0000      -0.758175       -20.6310 
  44   2.0000      -0.744780       -20.2665 
  45   2.0000      -0.742226       -20.1970 
  46   2.0000      -0.732593       -19.9349 
  47   2.0000      -0.698787       -19.0150 
  48   2.0000      -0.667343       -18.1593 
  49   2.0000      -0.649052       -17.6616 
  50   2.0000      -0.625624       -17.0241 
  51   2.0000      -0.622741       -16.9457 
  52   2.0000      -0.616768       -16.7831 
  53   2.0000      -0.609911       -16.5965 
  54   2.0000      -0.596553       -16.2330 
  55   2.0000      -0.580797       -15.8043 
  56   2.0000      -0.565210       -15.3801 
  57   2.0000      -0.562477       -15.3058 
  58   2.0000      -0.558430       -15.1957 
  59   2.0000      -0.551868       -15.0171 
  60   2.0000      -0.545875       -14.8540 
  61   2.0000      -0.528599       -14.3839 
  62   2.0000      -0.512838       -13.9550 
  63   2.0000      -0.507178       -13.8010 
  64   2.0000      -0.499490       -13.5918 
  65   2.0000      -0.483820       -13.1654 
  66   2.0000      -0.476258       -12.9596 
  67   2.0000      -0.471687       -12.8352 
  68   2.0000      -0.462422       -12.5832 
  69   2.0000      -0.460013       -12.5176 
  70   2.0000      -0.457803       -12.4575 
  71   2.0000      -0.452193       -12.3048 
  72   2.0000      -0.446979       -12.1629 
  73   2.0000      -0.443092       -12.0571 
  74   2.0000      -0.440151       -11.9771 
  75   2.0000      -0.438559       -11.9338 
  76   2.0000      -0.434603       -11.8261 
  77   2.0000      -0.430741       -11.7211 
  78   2.0000      -0.419719       -11.4211 
  79   2.0000      -0.416947       -11.3457 
  80   2.0000      -0.414755       -11.2861 
  81   2.0000      -0.405412       -11.0318 
  82   2.0000      -0.401442       -10.9238 
  83   2.0000      -0.398818       -10.8524 
  84   2.0000      -0.396516       -10.7898 
  85   2.0000      -0.392871       -10.6906 
  86   2.0000      -0.389260       -10.5923 
  87   2.0000      -0.384434       -10.4610 
  88   2.0000      -0.379230       -10.3194 
  89   2.0000      -0.369121       -10.0443 
  90   2.0000      -0.367434        -9.9984 
  91   2.0000      -0.359441        -9.7809 
  92   2.0000      -0.357621        -9.7314 
  93   2.0000      -0.351700        -9.5702 
  94   2.0000      -0.349488        -9.5100 
  95   2.0000      -0.349110        -9.4998 
  96   2.0000      -0.337577        -9.1859 
  97   2.0000      -0.330191        -8.9849 
  98   2.0000      -0.288132        -7.8405 
  99   2.0000      -0.271665        -7.3924 
 100   2.0000      -0.262748        -7.1497 
 101   2.0000      -0.255995        -6.9660 
 102   2.0000      -0.247413        -6.7325 
 103   2.0000      -0.244049        -6.6409 
 104   2.0000      -0.241313        -6.5665 
 105   2.0000      -0.227752        -6.1975 
 106   2.0000      -0.220184        -5.9915 
 107   0.0000      -0.029115        -0.7923 
 108   0.0000      -0.018703        -0.5089 
 109   0.0000      -0.014192        -0.3862 
 110   0.0000      -0.006415        -0.1746 
 111   0.0000      -0.001111        -0.0302 
 112   0.0000       0.004603         0.1253 
 113   0.0000       0.040696         1.1074 
 114   0.0000       0.055874         1.5204 
 115   0.0000       0.087247         2.3741 
 116   0.0000       0.093205         2.5362 
 117   0.0000       0.096694         2.6312 
*Only the first 10 virtual orbitals were printed.

                    ********************************
                    * MULLIKEN POPULATION ANALYSIS *
                    ********************************

-----------------------
MULLIKEN ATOMIC CHARGES
-----------------------
   0 O :   -0.490315
   1 C :    0.695898
   2 N :   -0.707985
   3 C :    0.242863
   4 C :   -0.118105
   5 C :   -0.145641
   6 C :   -0.113145
   7 C :   -0.210989
   8 C :    0.352395
   9 F :   -0.319410
  10 N :   -0.464323
  11 C :   -0.124193
  12 C :   -0.346260
  13 C :    0.107746
  14 C :   -0.185243
  15 C :   -0.121267
  16 C :   -0.129648
  17 C :   -0.174180
  18 C :    0.092362
  19 C :   -0.127030
  20 C :    0.193764
  21 C :   -0.160110
  22 C :   -0.157464
  23 C :   -0.015135
  24 C :    0.894864
  25 F :   -0.297909
  26 F :   -0.305049
  27 F :   -0.305334
  28 C :   -0.155589
  29 C :   -0.191033
  30 H :    0.331272
  31 H :    0.159659
  32 H :    0.134080
  33 H :    0.134324
  34 H :    0.143877
  35 H :    0.145872
  36 H :    0.176528
  37 H :    0.147973
  38 H :    0.160844
  39 H :    0.126555
  40 H :    0.129679
  41 H :    0.132012
  42 H :    0.134082
  43 H :    0.146814
  44 H :    0.145332
  45 H :    0.154452
  46 H :    0.153895
  47 H :    0.128215
Sum of atomic charges:    0.0000000

--------------------------------
MULLIKEN REDUCED ORBITAL CHARGES
--------------------------------
  0 O s       :     3.887898  s :     3.887898
      pz      :     1.371489  p :     4.577057
      px      :     1.594213
      py      :     1.611354
      dz2     :     0.008619  d :     0.025360
      dxz     :     0.007480
      dyz     :     0.006671
      dx2y2   :     0.001448
      dxy     :     0.001142

  1 C s       :     2.915102  s :     2.915102
      pz      :     0.724120  p :     2.274824
      px      :     0.771556
      py      :     0.779148
      dz2     :     0.029394  d :     0.114176
      dxz     :     0.026194
      dyz     :     0.031971
      dx2y2   :     0.013845
      dxy     :     0.012772

  2 N s       :     3.626312  s :     3.626312
      pz      :     1.200640  p :     4.052348
      px      :     1.435631
      py      :     1.416077
      dz2     :     0.006927  d :     0.029326
      dxz     :     0.008053
      dyz     :     0.005187
      dx2y2   :     0.004643
      dxy     :     0.004515

  3 C s       :     3.079199  s :     3.079199
      pz      :     1.018510  p :     2.623972
      px      :     0.827612
      py      :     0.777850
      dz2     :     0.007067  d :     0.053966
      dxz     :     0.006182
      dyz     :     0.008215
      dx2y2   :     0.017842
      dxy     :     0.014659

  4 C s       :     3.185791  s :     3.185791
      pz      :     0.986750  p :     2.897108
      px      :     0.939693
      py      :     0.970666
      dz2     :     0.004199  d :     0.035206
      dxz     :     0.006386
      dyz     :     0.005725
      dx2y2   :     0.011098
      dxy     :     0.007797

  5 C s       :     3.191330  s :     3.191330
      pz      :     0.990267  p :     2.918132
      px      :     0.992980
      py      :     0.934885
      dz2     :     0.003354  d :     0.036180
      dxz     :     0.006855
      dyz     :     0.006709
      dx2y2   :     0.010375
      dxy     :     0.008887

  6 C s       :     3.181007  s :     3.181007
      pz      :     0.971366  p :     2.895702
      px      :     0.960025
      py      :     0.964311
      dz2     :     0.006496  d :     0.036436
      dxz     :     0.004917
      dyz     :     0.005330
      dx2y2   :     0.007510
      dxy     :     0.012184

  7 C s       :     3.204833  s :     3.204833
      pz      :     1.020771  p :     2.971471
      px      :     0.977756
      py      :     0.972944
      dz2     :     0.004168  d :     0.034686
      dxz     :     0.005612
      dyz     :     0.006961
      dx2y2   :     0.009016
      dxy     :     0.008929

  8 C s       :     3.098587  s :     3.098587
      pz      :     0.896885  p :     2.478077
      px      :     0.675586
      py      :     0.905606
      dz2     :     0.010436  d :     0.070942
      dxz     :     0.014951
      dyz     :     0.010162
      dx2y2   :     0.018635
      dxy     :     0.016758

  9 F s       :     3.972161  s :     3.972161
      pz      :     1.794138  p :     5.330241
      px      :     1.634501
      py      :     1.901601
      dz2     :     0.002919  d :     0.017008
      dxz     :     0.005522
      dyz     :     0.001402
      dx2y2   :     0.003855
      dxy     :     0.003310

 10 N s       :     3.564939  s :     3.564939
      pz      :     1.309150  p :     3.866802
      px      :     1.262954
      py      :     1.294697
      dz2     :     0.006245  d :     0.032582
      dxz     :     0.006537
      dyz     :     0.005820
      dx2y2   :     0.006180
      dxy     :     0.007799

 11 C s       :     3.220427  s :     3.220427
      pz      :     0.915218  p :     2.849351
      px      :     1.091952
      py      :     0.842182
      dz2     :     0.006974  d :     0.054415
      dxz     :     0.013839
      dyz     :     0.014954
      dx2y2   :     0.012686
      dxy     :     0.005962

 12 C s       :     3.262548  s :     3.262548
      pz      :     1.025986  p :     3.042987
      px      :     1.030235
      py      :     0.986765
      dz2     :     0.003458  d :     0.040725
      dxz     :     0.011441
      dyz     :     0.011076
      dx2y2   :     0.008884
      dxy     :     0.005865

 13 C s       :     3.139408  s :     3.139408
      pz      :     0.950678  p :     2.711917
      px      :     0.872743
      py      :     0.888496
      dz2     :     0.005176  d :     0.040929
      dxz     :     0.006379
      dyz     :     0.008131
      dx2y2   :     0.010854
      dxy     :     0.010389

 14 C s       :     3.206560  s :     3.206560
      pz      :     0.986895  p :     2.942684
      px      :     0.976742
      py      :     0.979048
      dz2     :     0.004338  d :     0.035999
      dxz     :     0.005597
      dyz     :     0.007132
      dx2y2   :     0.010629
      dxy     :     0.008304

 15 C s       :     3.188863  s :     3.188863
      pz      :     0.966754  p :     2.895974
      px      :     0.970076
      py      :     0.959144
      dz2     :     0.006566  d :     0.036430
      dxz     :     0.004890
      dyz     :     0.005756
      dx2y2   :     0.007335
      dxy     :     0.011882

 16 C s       :     3.189380  s :     3.189380
      pz      :     0.985454  p :     2.903985
      px      :     0.982014
      py      :     0.936516
      dz2     :     0.003448  d :     0.036283
      dxz     :     0.007246
      dyz     :     0.006818
      dx2y2   :     0.010208
      dxy     :     0.008563

 17 C s       :     3.202968  s :     3.202968
      pz      :     0.986302  p :     2.935301
      px      :     0.974068
      py      :     0.974931
      dz2     :     0.004280  d :     0.035910
      dxz     :     0.005881
      dyz     :     0.007688
      dx2y2   :     0.010477
      dxy     :     0.007584

 18 C s       :     3.142389  s :     3.142389
      pz      :     0.942533  p :     2.726141
      px      :     0.893762
      py      :     0.889847
      dz2     :     0.006285  d :     0.039109
      dxz     :     0.005926
      dyz     :     0.006983
      dx2y2   :     0.009139
      dxy     :     0.010776

 19 C s       :     3.198888  s :     3.198888
      pz      :     0.950122  p :     2.868152
      px      :     0.909684
      py      :     1.008346
      dz2     :     0.014975  d :     0.059990
      dxz     :     0.014897
      dyz     :     0.006123
      dx2y2   :     0.009872
      dxy     :     0.014123

 20 C s       :     3.136632  s :     3.136632
      pz      :     0.851486  p :     2.629703
      px      :     0.908374
      py      :     0.869842
      dz2     :     0.009257  d :     0.039901
      dxz     :     0.006788
      dyz     :     0.010064
      dx2y2   :     0.006600
      dxy     :     0.007191

 21 C s       :     3.199369  s :     3.199369
      pz      :     0.975731  p :     2.924996
      px      :     0.972397
      py      :     0.976868
      dz2     :     0.006881  d :     0.035745
      dxz     :     0.005140
      dyz     :     0.011978
      dx2y2   :     0.006783
      dxy     :     0.004963

 22 C s       :     3.206283  s :     3.206283
      pz      :     0.988667  p :     2.915086
      px      :     0.982239
      py      :     0.944180
      dz2     :     0.007432  d :     0.036096
      dxz     :     0.006643
      dyz     :     0.008765
      dx2y2   :     0.006658
      dxy     :     0.006599

 23 C s       :     3.159110  s :     3.159110
      pz      :     0.922029  p :     2.818045
      px      :     0.975827
      py      :     0.920190
      dz2     :     0.009783  d :     0.037979
      dxz     :     0.005882
      dyz     :     0.009206
      dx2y2   :     0.005569
      dxy     :     0.007540

 24 C s       :     2.804844  s :     2.804844
      pz      :     0.630208  p :     2.162295
      px      :     0.697547
      py      :     0.834539
      dz2     :     0.034388  d :     0.137997
      dxz     :     0.025969
      dyz     :     0.023790
      dx2y2   :     0.027080
      dxy     :     0.026770

 25 F s       :     3.976160  s :     3.976160
      pz      :     1.849883  p :     5.305445
      px      :     1.540137
      py      :     1.915425
      dz2     :     0.002192  d :     0.016303
      dxz     :     0.004757
      dyz     :     0.000550
      dx2y2   :     0.005107
      dxy     :     0.003696

 26 F s       :     3.980263  s :     3.980263
      pz      :     1.498469  p :     5.308462
      px      :     1.907359
      py      :     1.902634
      dz2     :     0.008206  d :     0.016323
      dxz     :     0.003484
      dyz     :     0.003944
      dx2y2   :     0.000327
      dxy     :     0.000361

 27 F s       :     3.980235  s :     3.980235
      pz      :     1.830808  p :     5.308784
      px      :     1.823121
      py      :     1.654854
      dz2     :     0.002213  d :     0.016314
      dxz     :     0.001820
      dyz     :     0.004061
      dx2y2   :     0.003642
      dxy     :     0.004579

 28 C s       :     3.205100  s :     3.205100
      pz      :     0.963757  p :     2.914462
      px      :     0.969056
      py      :     0.981650
      dz2     :     0.007159  d :     0.036027
      dxz     :     0.005216
      dyz     :     0.012036
      dx2y2   :     0.006864
      dxy     :     0.004753

 29 C s       :     3.203353  s :     3.203353
      pz      :     0.975972  p :     2.951778
      px      :     1.005812
      py      :     0.969994
      dz2     :     0.008223  d :     0.035902
      dxz     :     0.006373
      dyz     :     0.008530
      dx2y2   :     0.006395
      dxy     :     0.006382

 30 H s       :     0.668728  s :     0.668728

 31 H s       :     0.840341  s :     0.840341

 32 H s       :     0.865920  s :     0.865920

 33 H s       :     0.865676  s :     0.865676

 34 H s       :     0.856123  s :     0.856123

 35 H s       :     0.854128  s :     0.854128

 36 H s       :     0.823472  s :     0.823472

 37 H s       :     0.852027  s :     0.852027

 38 H s       :     0.839156  s :     0.839156

 39 H s       :     0.873445  s :     0.873445

 40 H s       :     0.870321  s :     0.870321

 41 H s       :     0.867988  s :     0.867988

 42 H s       :     0.865918  s :     0.865918

 43 H s       :     0.853186  s :     0.853186

 44 H s       :     0.854668  s :     0.854668

 45 H s       :     0.845548  s :     0.845548

 46 H s       :     0.846105  s :     0.846105

 47 H s       :     0.871785  s :     0.871785



                     *******************************
                     * LOEWDIN POPULATION ANALYSIS *
                     *******************************

----------------------
LOEWDIN ATOMIC CHARGES
----------------------
   0 O :   -0.305869
   1 C :    0.173642
   2 N :   -0.223057
   3 C :    0.007662
   4 C :   -0.112601
   5 C :   -0.135425
   6 C :   -0.128495
   7 C :   -0.157320
   8 C :    0.101206
   9 F :   -0.108058
  10 N :   -0.125712
  11 C :   -0.139808
  12 C :   -0.228442
  13 C :   -0.024293
  14 C :   -0.131795
  15 C :   -0.125705
  16 C :   -0.130689
  17 C :   -0.124281
  18 C :   -0.027223
  19 C :   -0.043801
  20 C :   -0.010997
  21 C :   -0.113632
  22 C :   -0.107647
  23 C :   -0.069462
  24 C :    0.310139
  25 F :   -0.115182
  26 F :   -0.113280
  27 F :   -0.113583
  28 C :   -0.107840
  29 C :   -0.138424
  30 H :    0.252300
  31 H :    0.151300
  32 H :    0.135030
  33 H :    0.135006
  34 H :    0.143619
  35 H :    0.115427
  36 H :    0.146072
  37 H :    0.132960
  38 H :    0.136439
  39 H :    0.131607
  40 H :    0.132435
  41 H :    0.133744
  42 H :    0.135935
  43 H :    0.127641
  44 H :    0.140554
  45 H :    0.144793
  46 H :    0.144646
  47 H :    0.130462

-------------------------------
LOEWDIN REDUCED ORBITAL CHARGES
-------------------------------
  0 O s       :     3.590871  s :     3.590871
      pz      :     1.455201  p :     4.665121
      px      :     1.602507
      py      :     1.607413
      dz2     :     0.019551  d :     0.049877
      dxz     :     0.015745
      dyz     :     0.010307
      dx2y2   :     0.002388
      dxy     :     0.001887

  1 C s       :     2.841612  s :     2.841612
      pz      :     0.956890  p :     2.724365
      px      :     0.885851
      py      :     0.881624
      dz2     :     0.070601  d :     0.260381
      dxz     :     0.059231
      dyz     :     0.072840
      dx2y2   :     0.028496
      dxy     :     0.029213

  2 N s       :     3.142449  s :     3.142449
      pz      :     1.214675  p :     4.011281
      px      :     1.410454
      py      :     1.386151
      dz2     :     0.016385  d :     0.069327
      dxz     :     0.017695
      dyz     :     0.014752
      dx2y2   :     0.010112
      dxy     :     0.010383

  3 C s       :     2.858178  s :     2.858178
      pz      :     1.041119  p :     3.003437
      px      :     0.988129
      py      :     0.974189
      dz2     :     0.015844  d :     0.130723
      dxz     :     0.014448
      dyz     :     0.019830
      dx2y2   :     0.043275
      dxy     :     0.037326

  4 C s       :     2.918693  s :     2.918693
      pz      :     1.006718  p :     3.111348
      px      :     1.026085
      py      :     1.078546
      dz2     :     0.008808  d :     0.082559
      dxz     :     0.015485
      dyz     :     0.011183
      dx2y2   :     0.026113
      dxy     :     0.020969

  5 C s       :     2.915479  s :     2.915479
      pz      :     1.017736  p :     3.134761
      px      :     1.056908
      py      :     1.060117
      dz2     :     0.007314  d :     0.085185
      dxz     :     0.012656
      dyz     :     0.016190
      dx2y2   :     0.025741
      dxy     :     0.023283

  6 C s       :     2.915505  s :     2.915505
      pz      :     1.010888  p :     3.127061
      px      :     1.050198
      py      :     1.065975
      dz2     :     0.013305  d :     0.085929
      dxz     :     0.012309
      dyz     :     0.013420
      dx2y2   :     0.019576
      dxy     :     0.027319

  7 C s       :     2.920198  s :     2.920198
      pz      :     1.040764  p :     3.155057
      px      :     1.053523
      py      :     1.060771
      dz2     :     0.009143  d :     0.082064
      dxz     :     0.014102
      dyz     :     0.013528
      dx2y2   :     0.021794
      dxy     :     0.023497

  8 C s       :     2.865912  s :     2.865912
      pz      :     0.954482  p :     2.856940
      px      :     0.850774
      py      :     1.051684
      dz2     :     0.022995  d :     0.175941
      dxz     :     0.036833
      dyz     :     0.025933
      dx2y2   :     0.046824
      dxy     :     0.043357

  9 F s       :     3.734532  s :     3.734532
      pz      :     1.793529  p :     5.338866
      px      :     1.645165
      py      :     1.900172
      dz2     :     0.006101  d :     0.034660
      dxz     :     0.011301
      dyz     :     0.002805
      dx2y2   :     0.007775
      dxy     :     0.006678

 10 N s       :     3.115392  s :     3.115392
      pz      :     1.352598  p :     3.928359
      px      :     1.277747
      py      :     1.298015
      dz2     :     0.015096  d :     0.081961
      dxz     :     0.016115
      dyz     :     0.014895
      dx2y2   :     0.015593
      dxy     :     0.020263

 11 C s       :     2.924898  s :     2.924898
      pz      :     1.014915  p :     3.099981
      px      :     1.123008
      py      :     0.962057
      dz2     :     0.014848  d :     0.114929
      dxz     :     0.027708
      dyz     :     0.033504
      dx2y2   :     0.026764
      dxy     :     0.012105

 12 C s       :     2.929796  s :     2.929796
      pz      :     1.081291  p :     3.212468
      px      :     1.069349
      py      :     1.061828
      dz2     :     0.006790  d :     0.086177
      dxz     :     0.023829
      dyz     :     0.023603
      dx2y2   :     0.019601
      dxy     :     0.012354

 13 C s       :     2.873308  s :     2.873308
      pz      :     0.985933  p :     3.049315
      px      :     1.016824
      py      :     1.046558
      dz2     :     0.011132  d :     0.101669
      dxz     :     0.014523
      dyz     :     0.019366
      dx2y2   :     0.028817
      dxy     :     0.027832

 14 C s       :     2.917360  s :     2.917360
      pz      :     1.023092  p :     3.129929
      px      :     1.048658
      py      :     1.058180
      dz2     :     0.009159  d :     0.084505
      dxz     :     0.014437
      dyz     :     0.014597
      dx2y2   :     0.024898
      dxy     :     0.021415

 15 C s       :     2.917119  s :     2.917119
      pz      :     1.010662  p :     3.122769
      px      :     1.048206
      py      :     1.063901
      dz2     :     0.013536  d :     0.085816
      dxz     :     0.012367
      dyz     :     0.014644
      dx2y2   :     0.018901
      dxy     :     0.026369

 16 C s       :     2.915577  s :     2.915577
      pz      :     1.018080  p :     3.129557
      px      :     1.049249
      py      :     1.062228
      dz2     :     0.007879  d :     0.085554
      dxz     :     0.013230
      dyz     :     0.016711
      dx2y2   :     0.025324
      dxy     :     0.022410

 17 C s       :     2.916677  s :     2.916677
      pz      :     1.015813  p :     3.123643
      px      :     1.039329
      py      :     1.068501
      dz2     :     0.009458  d :     0.083961
      dxz     :     0.014411
      dyz     :     0.015452
      dx2y2   :     0.024513
      dxy     :     0.020127

 18 C s       :     2.877133  s :     2.877133
      pz      :     1.016696  p :     3.052498
      px      :     1.017399
      py      :     1.018404
      dz2     :     0.013801  d :     0.097591
      dxz     :     0.014898
      dyz     :     0.016825
      dx2y2   :     0.023972
      dxy     :     0.028095

 19 C s       :     2.879875  s :     2.879875
      pz      :     1.009232  p :     3.033383
      px      :     0.983091
      py      :     1.041060
      dz2     :     0.031904  d :     0.130544
      dxz     :     0.032838
      dyz     :     0.011987
      dx2y2   :     0.020540
      dxy     :     0.033275

 20 C s       :     2.885335  s :     2.885335
      pz      :     1.045116  p :     3.026172
      px      :     0.967875
      py      :     1.013181
      dz2     :     0.023841  d :     0.099489
      dxz     :     0.016336
      dyz     :     0.027169
      dx2y2   :     0.015314
      dxy     :     0.016829

 21 C s       :     2.915053  s :     2.915053
      pz      :     1.047782  p :     3.114904
      px      :     1.003069
      py      :     1.064052
      dz2     :     0.016802  d :     0.083676
      dxz     :     0.012658
      dyz     :     0.027087
      dx2y2   :     0.014623
      dxy     :     0.012507

 22 C s       :     2.917037  s :     2.917037
      pz      :     1.055340  p :     3.106213
      px      :     1.003515
      py      :     1.047357
      dz2     :     0.016707  d :     0.084397
      dxz     :     0.012193
      dyz     :     0.022563
      dx2y2   :     0.016885
      dxy     :     0.016049

 23 C s       :     2.887903  s :     2.887903
      pz      :     1.060618  p :     3.085122
      px      :     1.007628
      py      :     1.016875
      dz2     :     0.025453  d :     0.096438
      dxz     :     0.014483
      dyz     :     0.025534
      dx2y2   :     0.013106
      dxy     :     0.017861

 24 C s       :     2.850298  s :     2.850298
      pz      :     0.771591  p :     2.510293
      px      :     0.823761
      py      :     0.914942
      dz2     :     0.087097  d :     0.329270
      dxz     :     0.060243
      dyz     :     0.052713
      dx2y2   :     0.063899
      dxy     :     0.065317

 25 F s       :     3.761661  s :     3.761661
      pz      :     1.850498  p :     5.322296
      px      :     1.564285
      py      :     1.907514
      dz2     :     0.004124  d :     0.031224
      dxz     :     0.008773
      dyz     :     0.000935
      dx2y2   :     0.011071
      dxy     :     0.006320

 26 F s       :     3.759278  s :     3.759278
      pz      :     1.521413  p :     5.323020
      px      :     1.904505
      py      :     1.897103
      dz2     :     0.017096  d :     0.030981
      dxz     :     0.005751
      dyz     :     0.007150
      dx2y2   :     0.000428
      dxy     :     0.000557

 27 F s       :     3.759296  s :     3.759296
      pz      :     1.831459  p :     5.323313
      px      :     1.824895
      py      :     1.666959
      dz2     :     0.003899  d :     0.030974
      dxz     :     0.003407
      dyz     :     0.007922
      dx2y2   :     0.006962
      dxy     :     0.008784

 28 C s       :     2.917247  s :     2.917247
      pz      :     1.046955  p :     3.106282
      px      :     0.992825
      py      :     1.066502
      dz2     :     0.017547  d :     0.084311
      dxz     :     0.012724
      dyz     :     0.027300
      dx2y2   :     0.014807
      dxy     :     0.011933

 29 C s       :     2.917484  s :     2.917484
      pz      :     1.055365  p :     3.136468
      px      :     1.024892
      py      :     1.056211
      dz2     :     0.018298  d :     0.084472
      dxz     :     0.011864
      dyz     :     0.022326
      dx2y2   :     0.016350
      dxy     :     0.015635

 30 H s       :     0.747700  s :     0.747700

 31 H s       :     0.848700  s :     0.848700

 32 H s       :     0.864970  s :     0.864970

 33 H s       :     0.864994  s :     0.864994

 34 H s       :     0.856381  s :     0.856381

 35 H s       :     0.884573  s :     0.884573

 36 H s       :     0.853928  s :     0.853928

 37 H s       :     0.867040  s :     0.867040

 38 H s       :     0.863561  s :     0.863561

 39 H s       :     0.868393  s :     0.868393

 40 H s       :     0.867565  s :     0.867565

 41 H s       :     0.866256  s :     0.866256

 42 H s       :     0.864065  s :     0.864065

 43 H s       :     0.872359  s :     0.872359

 44 H s       :     0.859446  s :     0.859446

 45 H s       :     0.855207  s :     0.855207

 46 H s       :     0.855354  s :     0.855354

 47 H s       :     0.869538  s :     0.869538



                      *****************************
                      * MAYER POPULATION ANALYSIS *
                      *****************************

  NA   - Mulliken gross atomic population
  ZA   - Total nuclear charge
  QA   - Mulliken gross atomic charge
  VA   - Mayer's total valence
  BVA  - Mayer's bonded valence
  FA   - Mayer's free valence

  ATOM       NA         ZA         QA         VA         BVA        FA
  0 O      8.4903     8.0000    -0.4903     2.0396     2.0396     0.0000
  1 C      5.3041     6.0000     0.6959     3.9236     3.9236     0.0000
  2 N      7.7080     7.0000    -0.7080     2.8674     2.8674     0.0000
  3 C      5.7571     6.0000     0.2429     3.8066     3.8066     0.0000
  4 C      6.1181     6.0000    -0.1181     3.9309     3.9309     0.0000
  5 C      6.1456     6.0000    -0.1456     3.9499     3.9499    -0.0000
  6 C      6.1131     6.0000    -0.1131     3.9306     3.9306     0.0000
  7 C      6.2110     6.0000    -0.2110     3.8926     3.8926     0.0000
  8 C      5.6476     6.0000     0.3524     3.7968     3.7968     0.0000
  9 F      9.3194     9.0000    -0.3194     1.0466     1.0466     0.0000
 10 N      7.4643     7.0000    -0.4643     2.9764     2.9764     0.0000
 11 C      6.1242     6.0000    -0.1242     3.8318     3.8318    -0.0000
 12 C      6.3463     6.0000    -0.3463     3.8335     3.8335     0.0000
 13 C      5.8923     6.0000     0.1077     3.9649     3.9649    -0.0000
 14 C      6.1852     6.0000    -0.1852     3.9305     3.9305    -0.0000
 15 C      6.1213     6.0000    -0.1213     3.9372     3.9372     0.0000
 16 C      6.1296     6.0000    -0.1296     3.9444     3.9444     0.0000
 17 C      6.1742     6.0000    -0.1742     3.9065     3.9065     0.0000
 18 C      5.9076     6.0000     0.0924     3.9617     3.9617     0.0000
 19 C      6.1270     6.0000    -0.1270     3.8678     3.8678     0.0000
 20 C      5.8062     6.0000     0.1938     3.8766     3.8766     0.0000
 21 C      6.1601     6.0000    -0.1601     3.9142     3.9142     0.0000
 22 C      6.1575     6.0000    -0.1575     3.9303     3.9303     0.0000
 23 C      6.0151     6.0000    -0.0151     3.9625     3.9625    -0.0000
 24 C      5.1051     6.0000     0.8949     3.9148     3.9148     0.0000
 25 F      9.2979     9.0000    -0.2979     1.0544     1.0544     0.0000
 26 F      9.3050     9.0000    -0.3050     1.0551     1.0551    -0.0000
 27 F      9.3053     9.0000    -0.3053     1.0546     1.0546    -0.0000
 28 C      6.1556     6.0000    -0.1556     3.9335     3.9335    -0.0000
 29 C      6.1910     6.0000    -0.1910     3.9276     3.9276     0.0000
 30 H      0.6687     1.0000     0.3313     0.8707     0.8707     0.0000
 31 H      0.8403     1.0000     0.1597     0.9456     0.9456    -0.0000
 32 H      0.8659     1.0000     0.1341     0.9371     0.9371     0.0000
 33 H      0.8657     1.0000     0.1343     0.9369     0.9369     0.0000
 34 H      0.8561     1.0000     0.1439     0.9370     0.9370    -0.0000
 35 H      0.8541     1.0000     0.1459     0.9281     0.9281    -0.0000
 36 H      0.8235     1.0000     0.1765     0.9386     0.9386    -0.0000
 37 H      0.8520     1.0000     0.1480     0.9353     0.9353     0.0000
 38 H      0.8392     1.0000     0.1608     0.9278     0.9278     0.0000
 39 H      0.8734     1.0000     0.1266     0.9394     0.9394    -0.0000
 40 H      0.8703     1.0000     0.1297     0.9368     0.9368    -0.0000
 41 H      0.8680     1.0000     0.1320     0.9371     0.9371    -0.0000
 42 H      0.8659     1.0000     0.1341     0.9452     0.9452     0.0000
 43 H      0.8532     1.0000     0.1468     0.9263     0.9263     0.0000
 44 H      0.8547     1.0000     0.1453     0.9417     0.9417    -0.0000
 45 H      0.8455     1.0000     0.1545     0.9404     0.9404     0.0000
 46 H      0.8461     1.0000     0.1539     0.9405     0.9405     0.0000
 47 H      0.8718     1.0000     0.1282     0.9434     0.9434     0.0000

  Mayer bond orders larger than 0.100000
B(  0-O ,  1-C ) :   1.7902 B(  1-C ,  2-N ) :   1.0120 B(  1-C , 10-N ) :   1.0293 
B(  2-N ,  3-C ) :   0.8717 B(  2-N , 30-H ) :   0.8093 B(  3-C ,  4-C ) :   1.4231 
B(  3-C ,  8-C ) :   1.3385 B(  4-C ,  5-C ) :   1.4464 B(  4-C , 31-H ) :   0.9121 
B(  5-C ,  6-C ) :   1.4435 B(  5-C , 32-H ) :   0.9289 B(  6-C ,  7-C ) :   1.4373 
B(  6-C , 33-H ) :   0.9304 B(  7-C ,  8-C ) :   1.3881 B(  7-C , 34-H ) :   0.9198 
B(  8-C ,  9-F ) :   0.9271 B( 10-N , 11-C ) :   0.9344 B( 10-N , 19-C ) :   0.9251 
B( 11-C , 12-C ) :   0.9839 B( 11-C , 35-H ) :   0.9241 B( 11-C , 36-H ) :   0.9228 
B( 12-C , 13-C ) :   0.9868 B( 12-C , 37-H ) :   0.9293 B( 12-C , 38-H ) :   0.9190 
B( 13-C , 14-C ) :   1.4082 B( 13-C , 18-C ) :   1.4421 B( 14-C , 15-C ) :   1.4501 
B( 14-C , 39-H ) :   0.9248 B( 15-C , 16-C ) :   1.4384 B( 15-C , 40-H ) :   0.9292 
B( 16-C , 17-C ) :   1.4500 B( 16-C , 41-H ) :   0.9295 B( 17-C , 18-C ) :   1.3958 
B( 17-C , 42-H ) :   0.9186 B( 18-C , 19-C ) :   0.9698 B( 19-C , 20-C ) :   0.9365 
B( 19-C , 43-H ) :   0.9066 B( 20-C , 21-C ) :   1.4134 B( 20-C , 29-C ) :   1.4064 
B( 21-C , 22-C ) :   1.4387 B( 21-C , 44-H ) :   0.9166 B( 22-C , 23-C ) :   1.3995 
B( 22-C , 45-H ) :   0.9197 B( 23-C , 24-C ) :   0.9796 B( 23-C , 28-C ) :   1.4211 
B( 24-C , 25-F ) :   0.9850 B( 24-C , 26-F ) :   0.9488 B( 24-C , 27-F ) :   0.9485 
B( 28-C , 29-C ) :   1.4173 B( 28-C , 46-H ) :   0.9190 B( 29-C , 47-H ) :   0.9225 


-------
TIMINGS
-------

Total SCF time: 0 days 0 hours 7 min 5 sec 

Total time                  ....     425.929 sec
Sum of individual times     ....     425.357 sec  ( 99.9%)

SCF preparation             ....       0.418 sec  (  0.1%)
Fock matrix formation       ....     422.720 sec  ( 99.2%)
  Startup                   ....       0.092 sec  (  0.0% of F)
  Split-RI-J                ....      52.959 sec  ( 12.5% of F)
  Chain of spheres X        ....     330.169 sec  ( 78.1% of F)
  XC integration            ....      38.657 sec  (  9.1% of F)
    XC Preparation          ....       0.000 sec  (  0.0% of XC)
    Basis function eval.    ....      15.269 sec  ( 39.5% of XC)
    Density eval.           ....       9.433 sec  ( 24.4% of XC)
    XC-Functional eval.     ....       1.805 sec  (  4.7% of XC)
    XC-Potential eval.      ....      10.519 sec  ( 27.2% of XC)
Diagonalization             ....       0.000 sec  (  0.0%)
Density matrix formation    ....       0.465 sec  (  0.1%)
Total Energy calculation    ....       0.076 sec  (  0.0%)
Population analysis         ....       0.069 sec  (  0.0%)
Orbital Transformation      ....       0.164 sec  (  0.0%)
Orbital Orthonormalization  ....       0.000 sec  (  0.0%)
DIIS solution               ....       0.895 sec  (  0.2%)
SOSCF solution              ....       0.551 sec  (  0.1%)
Finished LeanSCF after 426.0 sec

Maximum memory used throughout the entire LEANSCF-calculation: 76.4 MB

-------------------------   --------------------
FINAL SINGLE POINT ENERGY     -1470.565513685584
-------------------------   --------------------


------------------------------------------------------------------------------
                              ORCA PROPERTY CALCULATIONS
------------------------------------------------------------------------------

GBWName                                 ... /home/nmrbox/aojoawo/Documents/ERDOS/inputs/CHEMBL3235959.gbw
Number of atoms                         ...     48
Number of basis functions               ...    456
Max core memory                         ...   1024 MB

Electric properties:
Dipole moment                           ... YES
Quadrupole moment                       ...  NO
Static polarizability (Dipole/Dipole)   ...  NO
Static polarizability (Dipole/Quad.)    ...  NO
Static polarizability (Quad./Quad.)     ...  NO
Static polarizability (Velocity)        ...  NO

Atomic electric properties:
Dipole moment                           ...  NO
Quadrupole moment                       ...  NO
Static polarizability                   ...  NO

Choice of electric origin               ... Center of mass
Position of electric origin             ...    -0.414581     1.132992     0.054476

General magnetic properties:
Magnetizability                         ...  NO

EPR properties:
g-Tensor (aka g-matrix)                 ...  NO
Zero-Field splitting spin-orbit         ...  NO
Zero-field splitting spin-spin          ...  NO
Hyperfine couplings                     ...  NO (   0 nuclei)
Quadrupole couplings                    ...  NO (   0 nuclei)
Contact density                         ...  NO (   0 nuclei)

NMR properties:
Chemical shifts                         ...  NO (   0 nuclei)
Spin-rotation constants                 ...  NO (   0 nuclei)
Spin-spin couplings                     ...  NO (   0 nuclei,    0 pairs)

Choice of magnetic origin               ... GIAO
Position of magnetic origin             ...     0.000000     0.000000     0.000000

Properties with geometric perturbations:
SCF Hessian                             ...  NO
IR spectrum                             ...  NO
VCD spectrum                            ...  NO
X-ray spectroscopy properties:
SCF XES/XAS/RIXS spectra                ...  NO


-------------
DIPOLE MOMENT
-------------

Method             : SCF
Type of density    : Electron Density
Multiplicity       :   1
Irrep              :   0
Energy             : -1470.5655136855839373 Eh
Relativity type    : 
Basis              : AO
                                X                 Y                 Z
Electronic contribution:    -14.565842720      33.201979098       1.523598586
Nuclear contribution   :     14.699659840     -34.551259958      -2.581022400
                        -----------------------------------------
Total Dipole Moment    :      0.133817119      -1.349280860      -1.057423814
                        -----------------------------------------
Magnitude (a.u.)       :      1.719479859
Magnitude (Debye)      :      4.370570466



--------------------
Rotational spectrum 
--------------------
 
Rotational constants in cm-1:             0.005103             0.004146             0.002592 
Rotational constants in MHz :           152.976275           124.305334            77.717521 

Dipole components along the rotational axes: 
x,y,z [a.u.] :    -0.946273    -1.065786    -0.961915 
x,y,z [Debye]:    -2.405235    -2.709012    -2.444992 

 

Dipole moment calculation done in   0.1 sec 

Maximum memory used throughout the entire PROP-calculation: 37.1 MB

--------------------------------
SUGGESTED CITATIONS FOR THIS RUN
--------------------------------

Below you find a list of papers that are relevant to this ORCA run
We neither can nor want to force you to cite these papers, but we appreciate if you do
You receive ORCA, which is the product of decades of hard work by many enthusiastic individuals, for free
The only thing we kindly ask in return is that you cite our papers,
We deeply appreciate it, if you show your appreciation for ORCA by not just citing the generic ORCA reference.

Please note that relegating all ORCA citations to the supporting information does *not* help us.
SI sections are not indexed - citations you put there will not count into any citation statistics
But we need these citations in order to attract the funding resources that allow us to do what we are doing

Therefore, if you are a happy ORCA user, please consider citing a few of the papers listed below in the main body of your paper

In addition to the list printed below, the program has created the file /home/nmrbox/aojoawo/Documents/ERDOS/inputs/CHEMBL3235959.bibtex that contains the list in bibtex format
You can import this file easily into all common literature databanks and citation aid programs


List of essential papers. We consider these as the minimum necessary citations

  1. Neese,F.
     Software update: the ORCA program system, version 5.0
     WIRES Comput. Molec. Sci., 2022 12(1)e1606
     doi.org/10.1002/wcms.1606

List of papers to cite with high priority. The work reported in these papers was absolutely
necessary for this run to complete.
Our perspective: the developers of density functionals and basis sets usually get cited in chemistry papers
Good! But without the algorithms to do something with them, the functionals or basis sets would not do anything.
Hence, in our opinion, the algorithm design and method developments papers are equally worthy of getting cited

  1. Neese,F.
     An improvement of the resolution of the identity approximation for the formation of the Coulomb matrix
     J. Comp. Chem., 2003 24(14)1740-1747
     doi.org/10.1002/jcc.10318
  2. Neese,F.; Wennmohs,F.; Hansen,A.; Becker,U.
     Efficient, approximate and parallel Hartree-Fock and hybrid DFT calculations. A 'chain-of-spheres' algorithm for the Hartree-Fock exchange
     Chem. Phys., 2009 356(1-3)98-109
     doi.org/10.1016/j.chemphys.2008.10.036
  3. Helmich-Paris,B.; de Souza,B.; Neese,F.; Izsák,R.
     An improved chain of spheres for exchange algorithm
     J. Chem. Phys., 2021 155 104109
     doi.org/doi: 10.1063/5.0058766.
  4. Neese,F.
     The SHARK Integral Generation and Digestion System
     J. Comp. Chem., 2022  1-16
     doi.org/10.1002/jcc.26942

List of suggested additional citations. These are papers that are important in the 'surrounding' of 
of this run, or papers that preceded the highly important papers. If you like your results we are grateful for a citation.

  1. Izsak,R.; Neese,F.
     An overlap fitted chain of spheres exchange method
     J. Chem. Phys., 2011 135 144105
     doi.org/10.1063/1.3646921
  2. Izsak,R.; Hansen,A.; Neese,F.
     The resolution of identity and chain of spheres approximations for the LPNO-CCSD singles Fock term
     Molec. Phys., 2012 110 2413-2417
     doi.org/10.1080/00268976.2012.687466
  3. Neese,F.
     The ORCA program system
     WIRES Comput. Molec. Sci., 2012 2(1)73-78
     doi.org/10.1002/wcms.81
  4. Izsak,R.; Neese,F.; Klopper,W.
     Robust fitting techniques in the chain of spheres approximation to the Fock exchange: The role of the complementary space
     J. Chem. Phys., 2013 139 
     doi.org/10.1063/1.4819264
  5. Neese,F.
     Software update: the ORCA program system, version 4.0
     WIRES Comput. Molec. Sci., 2018 8(1)1-6
     doi.org/10.1002/wcms.1327
  6. Neese,F.; Wennmohs,F.; Becker,U.; Riplinger,C.
     The ORCA quantum chemistry program package
     J. Chem. Phys., 2020 152 Art. No. L224108
     doi.org/10.1063/5.0004608

List of optional additional citations

  1. Neese,F.
     Approximate second-order SCF convergence for spin unrestricted wavefunctions
     Chem. Phys. Lett., 2000 325(1-3)93-98
     doi.org/10.1016/s0009-2614(00)00662-x

Timings for individual modules:

Sum of individual times          ...      442.460 sec (=   7.374 min)
Startup calculation              ...       10.797 sec (=   0.180 min)   2.4 %
SCF iterations                   ...      431.404 sec (=   7.190 min)  97.5 %
Property calculations            ...        0.259 sec (=   0.004 min)   0.1 %
                             ****ORCA TERMINATED NORMALLY****
TOTAL RUN TIME: 0 days 0 hours 7 minutes 23 seconds 136 msec
