
                                 *****************
                                 * O   R   C   A *
                                 *****************

                                            #,                                       
                                            ###                                      
                                            ####                                     
                                            #####                                    
                                            ######                                   
                                           ########,                                 
                                     ,,################,,,,,                         
                               ,,#################################,,                 
                          ,,##########################################,,             
                       ,#########################################, ''#####,          
                    ,#############################################,,   '####,        
                  ,##################################################,,,,####,       
                ,###########''''           ''''###############################       
              ,#####''   ,,,,##########,,,,          '''####'''          '####       
            ,##' ,,,,###########################,,,                        '##       
           ' ,,###''''                  '''############,,,                           
         ,,##''                                '''############,,,,        ,,,,,,###''
      ,#''                                            '''#######################'''  
     '                                                          ''''####''''         
             ,#######,   #######,   ,#######,      ##                                
            ,#'     '#,  ##    ##  ,#'     '#,    #''#        ,####,   ,####,        
            ##       ##  ##   ,#'  ##            #'  '#       #'       #'  '#        
            ##       ##  #######   ##           ,######,      #####,   #    #        
            '#,     ,#'  ##    ##  '#,     ,#' ,#      #,     #,   #   #,  ,#        
             '#######'   ##     ##  '#######'  #'      '#     '####' # '####'        



                #########################################################
                #                        -***-                          #
                #          Department of theory and spectroscopy        #
                #                                                       #
                #                      Frank Neese                      #
                #                                                       #
                #     Directorship, Architecture, Infrastructure        #
                #                    SHARK, DRIVERS                     #
                #        Core code/Algorithms in most modules           #
                #                                                       #
                #        Max Planck Institute fuer Kohlenforschung      #
                #                Kaiser Wilhelm Platz 1                 #
                #                 D-45470 Muelheim/Ruhr                 #
                #                      Germany                          #
                #                                                       #
                #                  All rights reserved                  #
                #                        -***-                          #
                #########################################################


                         Program Version 6.0.0  -   RELEASE  -


 With contributions from (in alphabetic order):
   Daniel Aravena         : Magnetic Suceptibility
   Michael Atanasov       : Ab Initio Ligand Field Theory (pilot matlab implementation)
   Alexander A. Auer      : GIAO ZORA, VPT2 properties, NMR spectrum
   Ute Becker             : All parallelization in ORCA, NUMFREQ, NUMCALC
   Giovanni Bistoni       : ED, misc. LED, open-shell LED, HFLD
   Martin Brehm           : Molecular dynamics
   Dmytro Bykov           : pre 5.0 version of the SCF Hessian
   Marcos Casanova-Páez   : Triplet and SCS-CIS(D). UHF-(DLPNO)-IP/EA/STEOM-CCSD. UHF-CVS-IP/STEOM-CCSD
   Vijay G. Chilkuri      : MRCI spin determinant printing, contributions to CSF-ICE
   Pauline Colinet        : FMM embedding
   Dipayan Datta          : RHF DLPNO-CCSD density
   Achintya Kumar Dutta   : EOM-CC, STEOM-CC
   Nicolas Foglia         : Exact transition moments, OPA infrastructure, MCD improvements
   Dmitry Ganyushin       : Spin-Orbit,Spin-Spin,Magnetic field MRCI
   Miquel Garcia          : C-PCM and meta-GGA Hessian, CCSD/C-PCM, Gaussian charge scheme
   Tiago L. C. Gouveia    : GS-ROHF, GS-ROCIS
   Yang Guo               : DLPNO-NEVPT2, F12-NEVPT2, CIM, IAO-localization
   Andreas Hansen         : Spin unrestricted coupled pair/coupled cluster methods
   Ingolf Harden          : AUTO-CI MPn and infrastructure 
   Benjamin Helmich-Paris : MC-RPA, TRAH-(SCF,CASSCF), AVAS, COSX integrals, SCF dyn. polar.
   Lee Huntington         : MR-EOM, pCC
   Robert Izsak           : Overlap fitted RIJCOSX, COSX-SCS-MP3, EOM
   Riya Kayal             : Wick's Theorem for AUTO-CI, AUTO-CI UHF-CCSDT
   Emily Kempfer          : AUTO-CI, RHF CISDT and CCSDT
   Christian Kollmar      : KDIIS, OOCD, Brueckner-CCSD(T), CCSD density, CASPT2, CASPT2-K, improved NEVPT2
   Axel Koslowski         : Symmetry handling
   Simone Kossmann        : Meta GGA functionals, TD-DFT gradient, OOMP2, (MP2 Hessian; deprecated post 5.0)
   Lucas Lang             : DCDCAS
   Marvin Lechner         : AUTO-CI (C++ implementation), FIC-MRCC
   Spencer Leger          : CASSCF response
   Dagmar Lenk            : GEPOL surface, SMD, ORCA-2-JSON
   Dimitrios Liakos       : Extrapolation schemes; Compound Job, initial MDCI parallelization
   Dimitrios Manganas     : Further ROCIS development; embedding schemes. LFT, Crystal Embedding
   Dimitrios Pantazis     : SARC Basis sets
   Anastasios Papadopoulos: AUTO-CI, single reference methods and gradients
   Taras Petrenko         : pre 6.0 DFT Hessian and TD-DFT gradient, (ASA, deprecated), ECA, 1-Electron XAS/XES, NRVS
   Peter Pinski           : DLPNO-MP2, DLPNO-MP2 Gradient
   Christoph Reimann      : Effective Core Potentials
   Marius Retegan         : Local ZFS, SOC
   Christoph Riplinger    : Optimizer, TS searches, QM/MM, DLPNO-CCSD(T), (RO)-DLPNO pert. Triples
   Michael Roemelt        : Original ROCIS implementation
   Masaaki Saitow         : Open-shell DLPNO-CCSD energy and density
   Barbara Sandhoefer     : DKH picture change effects
   Kantharuban Sivalingam : CASSCF convergence/infrastructure, NEVPT2 and variants, FIC-MRCI
   Bernardo de Souza      : ESD, SOC TD-DFT
   Georgi Stoychev        : AutoAux, RI-MP2 NMR, DLPNO-MP2 response, X2C
   Van Anh Tran           : RI-MP2 g-tensors
   Willem Van den Heuvel  : Paramagnetic NMR
   Zikuan Wang            : NOTCH, Electric field optimization 
   Frank Wennmohs         : Technical directorship and infrastructure
   Hang Xu                : AUTO-CI-Response properties 


 We gratefully acknowledge several colleagues who have allowed us to
 interface, adapt or use parts of their codes:
   Stefan Grimme, W. Hujo, H. Kruse, P. Pracht,  : VdW corrections, initial TS optimization,
                  C. Bannwarth, S. Ehlert,         DFT functionals, gCP, sTDA/sTD-DF
                  L. Wittmann, M. Mueller
   Ed Valeev, F. Pavosevic, A. Kumar             : LibInt (2-el integral package), F12 methods
   Garnet Chan, S. Sharma, J. Yang, R. Olivares  : DMRG
   Ulf Ekstrom                                   : XCFun DFT Library
   Mihaly Kallay                                 : mrcc  (arbitrary order and MRCC methods)
   Frank Weinhold                                : gennbo (NPA and NBO analysis)
   Simon Mueller                                 : openCOSMO-RS
   Christopher J. Cramer and Donald G. Truhlar   : smd solvation model
   Lars Goerigk                                  : TD-DFT with DH, B97 family of functionals
   V. Asgeirsson, H. Jonsson                     : NEB implementation
   FAccTs GmbH                                   : IRC, NEB, NEB-TS, DLPNO-Multilevel, CI-OPT
                                                   MM, QMMM, 2- and 3-layer-ONIOM, Crystal-QMMM,
                                                   LR-CPCM, SF, NACMEs, symmetry and pop. for TD-DFT,
                                                   nearIR, NL-DFT gradient (VV10), updates on ESD,
                                                   ML-optimized integration grids, MBIS, APM,
                                                   GOAT, DOCKER, SOLVATOR, interface openCOSMO-RS
   S Lehtola, MJT Oliveira, MAL Marques          : LibXC Library
   Liviu Ungur et al                             : ANISO software


 Your calculation uses the libint2 library for the computation of 2-el integrals
 For citations please refer to: http://libint.valeyev.net

 Your ORCA version has been built with support for libXC version: 6.2.2
 For citations please refer to: https://libxc.gitlab.io

 This ORCA versions uses:
   CBLAS   interface :  Fast vector & matrix operations
   LAPACKE interface :  Fast linear algebra routines
   SCALAPACK package :  Parallel linear algebra routines
   Shared memory     :  Shared parallel matrices
   BLAS/LAPACK       :  OpenBLAS 0.3.27  USE64BITINT DYNAMIC_ARCH NO_AFFINITY SkylakeX SINGLE_THREADED
        Core in use  :  SkylakeX
   Copyright (c) 2011-2014, The OpenBLAS Project


Warning: RI is on but no J-basis has been assigned. Assigning Def2/J (nothing to worry about!)
================================================================================

----- Orbital basis set information -----
Your calculation utilizes the basis: 6-31G*
   H-He, Li-Ne : W. J. Hehre, R. Ditchfield and J.A. Pople, J. Chem. Phys. 56, 2257 (1972).
                 Note: He and Ne are unpublished basis sets taken from the Gaussian program.
                 Note: Li and B from J. D. Dill and J. A. Pople, J. Chem. Phys. 62, 2921 (1975).
   Na - Ar     : M. M. Francl, W. J. Pietro, W. J. Hehre, J. S. Binkley, M. S. Gordon, 
                 D. J. DeFrees and J. A. Pople, J. Chem. Phys. 77, 3654 (1982).
   K - Zn      : V. A. Rassolov, J. A. Pople, M. A. Ratner, and T. L. Windus, J. Chem. Phys. 109, 1223 (1998).

----- AuxJ basis set information -----
Your calculation utilizes the auxiliary basis: def2/J
   F. Weigend, Phys. Chem. Chem. Phys. 8, 1057 (2006).

================================================================================
                                        WARNINGS
                       Please study these warnings very carefully!
================================================================================


================================================================================
                                       INPUT FILE
================================================================================
NAME = /home/nmrbox/aojoawo/Documents/ERDOS/inputs/CHEMBL3682540.inp
|  1> ! B3LYP 6-31G* SP
|  2> 
|  3> * xyz -1 1
|  4> C -2.6658 -1.3422 -1.3532
|  5> C -1.9763 -1.9839 -0.1689
|  6> C -0.9778 -1.2823 0.5478
|  7> N -0.5249 0.0105 0.1250
|  8> C 0.3326 0.1319 -1.0574
|  9> C 1.7804 0.0053 -0.6691
| 10> C 2.5817 1.1473 -0.5253
| 11> C 3.9154 1.0290 -0.1246
| 12> C 4.4685 -0.2391 0.1409
| 13> O 5.8014 -0.4144 0.5478
| 14> C 6.7493 0.6339 0.7405
| 15> F 6.3097 1.4984 1.7271
| 16> F 7.9524 0.0829 1.1360
| 17> F 6.9430 1.3263 -0.4414
| 18> C 3.6636 -1.3770 -0.0022
| 19> F 4.1775 -2.6067 0.2499
| 20> C 2.3295 -1.2572 -0.4018
| 21> S -0.6723 1.3461 1.2252
| 22> O 0.5986 1.4878 2.0149
| 23> O -1.8086 1.0982 2.1773
| 24> C -1.0134 2.8190 0.3243
| 25> C -2.2221 2.9382 -0.3712
| 26> C -2.5015 4.0935 -1.1066
| 27> C -1.5706 5.1461 -1.1602
| 28> C -1.8676 6.3676 -1.9406
| 29> O -1.0319 7.3089 -2.0002
| 30> O -3.0747 6.4937 -2.6192
| 31> C -0.3554 5.0181 -0.4627
| 32> C -0.0802 3.8627 0.2749
| 33> N -0.4200 -1.8352 1.6571
| 34> C -0.7590 -3.0676 2.1059
| 35> C -1.7034 -3.8307 1.4153
| 36> C -2.0375 -5.1180 1.8637
| 37> C -2.9743 -5.8821 1.1674
| 38> C -3.5808 -5.3705 0.0204
| 39> C -3.2599 -4.0892 -0.4357
| 40> C -2.3203 -3.2936 0.2573
| 41> H -2.4476 -0.2591 -1.4395
| 42> H -3.7670 -1.4282 -1.2457
| 43> H -2.3421 -1.8430 -2.2891
| 44> H 0.0829 -0.6578 -1.7989
| 45> H 0.1428 1.1039 -1.5608
| 46> H 2.1737 2.1312 -0.7199
| 47> H 4.5028 1.9304 -0.0221
| 48> H 1.7223 -2.1488 -0.5012
| 49> H -2.9477 2.1344 -0.3453
| 50> H -3.4451 4.1603 -1.6339
| 51> H 0.3830 5.8101 -0.4872
| 52> H 0.8620 3.7847 0.8019
| 53> H -0.2777 -3.4547 2.9957
| 54> H -1.5721 -5.5335 2.7499
| 55> H -3.2276 -6.8754 1.5152
| 56> H -4.3018 -5.9704 -0.5199
| 57> H -3.7460 -3.7396 -1.3361
| 58> *
| 59> 
| 60>                          ****END OF INPUT****
================================================================================

                       ****************************
                       * Single Point Calculation *
                       ****************************

---------------------------------
CARTESIAN COORDINATES (ANGSTROEM)
---------------------------------
  C     -2.665800   -1.342200   -1.353200
  C     -1.976300   -1.983900   -0.168900
  C     -0.977800   -1.282300    0.547800
  N     -0.524900    0.010500    0.125000
  C      0.332600    0.131900   -1.057400
  C      1.780400    0.005300   -0.669100
  C      2.581700    1.147300   -0.525300
  C      3.915400    1.029000   -0.124600
  C      4.468500   -0.239100    0.140900
  O      5.801400   -0.414400    0.547800
  C      6.749300    0.633900    0.740500
  F      6.309700    1.498400    1.727100
  F      7.952400    0.082900    1.136000
  F      6.943000    1.326300   -0.441400
  C      3.663600   -1.377000   -0.002200
  F      4.177500   -2.606700    0.249900
  C      2.329500   -1.257200   -0.401800
  S     -0.672300    1.346100    1.225200
  O      0.598600    1.487800    2.014900
  O     -1.808600    1.098200    2.177300
  C     -1.013400    2.819000    0.324300
  C     -2.222100    2.938200   -0.371200
  C     -2.501500    4.093500   -1.106600
  C     -1.570600    5.146100   -1.160200
  C     -1.867600    6.367600   -1.940600
  O     -1.031900    7.308900   -2.000200
  O     -3.074700    6.493700   -2.619200
  C     -0.355400    5.018100   -0.462700
  C     -0.080200    3.862700    0.274900
  N     -0.420000   -1.835200    1.657100
  C     -0.759000   -3.067600    2.105900
  C     -1.703400   -3.830700    1.415300
  C     -2.037500   -5.118000    1.863700
  C     -2.974300   -5.882100    1.167400
  C     -3.580800   -5.370500    0.020400
  C     -3.259900   -4.089200   -0.435700
  C     -2.320300   -3.293600    0.257300
  H     -2.447600   -0.259100   -1.439500
  H     -3.767000   -1.428200   -1.245700
  H     -2.342100   -1.843000   -2.289100
  H      0.082900   -0.657800   -1.798900
  H      0.142800    1.103900   -1.560800
  H      2.173700    2.131200   -0.719900
  H      4.502800    1.930400   -0.022100
  H      1.722300   -2.148800   -0.501200
  H     -2.947700    2.134400   -0.345300
  H     -3.445100    4.160300   -1.633900
  H      0.383000    5.810100   -0.487200
  H      0.862000    3.784700    0.801900
  H     -0.277700   -3.454700    2.995700
  H     -1.572100   -5.533500    2.749900
  H     -3.227600   -6.875400    1.515200
  H     -4.301800   -5.970400   -0.519900
  H     -3.746000   -3.739600   -1.336100

----------------------------
CARTESIAN COORDINATES (A.U.)
----------------------------
  NO LB      ZA    FRAG     MASS         X           Y           Z
   0 C     6.0000    0    12.011   -5.037632   -2.536390   -2.557177
   1 C     6.0000    0    12.011   -3.734666   -3.749028   -0.319175
   2 C     6.0000    0    12.011   -1.847774   -2.423196    1.035192
   3 N     7.0000    0    14.007   -0.991917    0.019842    0.236216
   4 C     6.0000    0    12.011    0.628523    0.249255   -1.998196
   5 C     6.0000    0    12.011    3.364468    0.010016   -1.264416
   6 C     6.0000    0    12.011    4.878706    2.168083   -0.992673
   7 C     6.0000    0    12.011    7.399034    1.944528   -0.235460
   8 C     6.0000    0    12.011    8.444241   -0.451834    0.266262
   9 O     8.0000    0    15.999   10.963057   -0.783103    1.035192
  10 C     6.0000    0    12.011   12.754329    1.197897    1.399342
  11 F     9.0000    0    18.998   11.923605    2.831566    3.263746
  12 F     9.0000    0    18.998   15.027858    0.156658    2.146729
  13 F     9.0000    0    18.998   13.120369    2.506344   -0.834125
  14 C     6.0000    0    12.011    6.923201   -2.602153   -0.004157
  15 F     9.0000    0    18.998    7.894331   -4.925949    0.472243
  16 C     6.0000    0    12.011    4.402117   -2.375764   -0.759292
  17 S    16.0000    0    32.060   -1.270463    2.543760    2.315292
  18 O     8.0000    0    15.999    1.131190    2.811535    3.807609
  19 O     8.0000    0    15.999   -3.417759    2.075297    4.114501
  20 C     6.0000    0    12.011   -1.915048    5.327138    0.612838
  21 C     6.0000    0    12.011   -4.199160    5.552393   -0.701466
  22 C     6.0000    0    12.011   -4.727150    7.735594   -2.091171
  23 C     6.0000    0    12.011   -2.968004    9.724720   -2.192460
  24 C     6.0000    0    12.011   -3.529253   12.033020   -3.667203
  25 O     8.0000    0    15.999   -1.950008   13.811819   -3.779830
  26 O     8.0000    0    15.999   -5.810341   12.271315   -4.949571
  27 C     6.0000    0    12.011   -0.671609    9.482835   -0.874376
  28 C     6.0000    0    12.011   -0.151556    7.299445    0.519486
  29 N     7.0000    0    14.007   -0.793685   -3.468025    3.131465
  30 C     6.0000    0    12.011   -1.434302   -5.796924    3.979574
  31 C     6.0000    0    12.011   -3.218959   -7.238974    2.674529
  32 C     6.0000    0    12.011   -3.850317   -9.671618    3.521883
  33 C     6.0000    0    12.011   -5.620612  -11.115558    2.206066
  34 C     6.0000    0    12.011   -6.766731  -10.148774    0.038550
  35 C     6.0000    0    12.011   -6.160318   -7.727468   -0.823354
  36 C     6.0000    0    12.011   -4.384732   -6.224002    0.486227
  37 H     1.0000    0     1.008   -4.625294   -0.489628   -2.720261
  38 H     1.0000    0     1.008   -7.118598   -2.698907   -2.354032
  39 H     1.0000    0     1.008   -4.425928   -3.482765   -4.325772
  40 H     1.0000    0     1.008    0.156658   -1.243062   -3.399428
  41 H     1.0000    0     1.008    0.269853    2.086069   -2.949485
  42 H     1.0000    0     1.008    4.107698    4.027384   -1.360414
  43 H     1.0000    0     1.008    8.509059    3.647927   -0.041763
  44 H     1.0000    0     1.008    3.254675   -4.060644   -0.947131
  45 H     1.0000    0     1.008   -5.570346    4.033431   -0.652522
  46 H     1.0000    0     1.008   -6.510296    7.861828   -3.087624
  47 H     1.0000    0     1.008    0.723765   10.979498   -0.920675
  48 H     1.0000    0     1.008    1.628944    7.152046    1.515371
  49 H     1.0000    0     1.008   -0.524777   -6.528437    5.661053
  50 H     1.0000    0     1.008   -2.970838  -10.456800    5.196558
  51 H     1.0000    0     1.008   -6.099280  -12.992623    2.863313
  52 H     1.0000    0     1.008   -8.129224  -11.282421   -0.982469
  53 H     1.0000    0     1.008   -7.078914   -7.066820   -2.524863

--------------------------------
INTERNAL COORDINATES (ANGSTROEM)
--------------------------------
 C      0   0   0     0.000000000000     0.00000000     0.00000000
 C      1   0   0     1.513193850767     0.00000000     0.00000000
 C      2   1   0     1.415239803002   120.50394698     0.00000000
 N      3   2   1     1.433600394113   121.37214641   355.67975529
 C      4   3   2     1.465644557865   119.83175096   286.76741230
 C      5   4   3     1.504303589705   110.35760226   271.48113097
 C      6   5   4     1.402470723402   120.51915314   259.84891680
 C      7   6   5     1.397609054779   120.37750487   178.03112655
 C      8   7   6     1.408718378527   120.32489862   359.91415416
 O      9   8   7     1.404606745677   122.65135301   180.08297859
 C     10   9   8     1.426387251065   125.31237709   359.91398417
 F     11  10   9     1.383469540684   110.14672032    60.94745799
 F     11  10   9     1.381112182265   108.92768396   180.17386062
 F     11  10   9     1.383410662096   110.21018602   299.47380451
 C      9   8   7     1.401127413906   119.09541297     0.00000000
 F     15   9   8     1.356395852987   119.97634127   180.05689132
 C     15   9   8     1.397803637855   120.52258276   359.94775320
 S      4   3   2     1.736661786302   118.67742042   121.58864213
 O     18   4   3     1.502961007478   109.48767818    92.57168999
 O     18   4   3     1.503039091308   109.79295893   333.20771170
 C     18   4   3     1.759944439464   109.62048820   214.22321185
 C     21  18   4     1.399601579022   119.53969853    65.36740489
 C     22  21  18     1.397710846348   120.29718361   180.86768890
 C     23  22  21     1.406205721081   120.42701133     0.23387242
 C     24  23  22     1.479626780644   120.34315515   179.92625048
 O     25  24  23     1.260155680859   120.56318489   180.56924925
 O     25  24  23     1.390499759079   120.43212993     0.59556627
 C     24  23  22     1.406983045385   118.99706506     0.00000000
 C     28  24  23     1.398119436958   120.44579761   359.84216701
 N      3   2   1     1.359185690037   120.07903894   176.12154773
 C     30   3   2     1.354677895295   122.53121801     1.53081737
 C     31  30   3     1.396832606292   120.15835729     0.77738598
 C     32  31  30     1.403505133585   120.26921957   178.77692047
 C     33  32  31     1.395090226473   120.18201107   180.43458346
 C     34  33  32     1.394699182620   120.10363016     0.14167181
 C     35  34  33     1.397402486759   120.32491844   359.71361182
 C     36  35  34     1.412825721736   120.59491536   359.89942378
 H      1   2   3     1.108225852433   112.68638106   348.78706922
 H      1   2   3     1.109771908998   110.08805516   230.46295460
 H      1   2   3     1.109725704848   109.61925086   109.77506103
 H      5   4   3     1.111664711143   110.35618320    32.24342103
 H      5   4   3     1.110954364499   109.75933816   149.09272862
 H      7   6   5     1.082770691329   120.41138414   358.24938682
 H      8   7   6     1.080771469831   118.37512390   180.12800672
 H     17  15   9     1.083292555130   119.38396433   180.34063061
 H     22  21  18     1.083171551510   120.22727919     0.73875589
 H     23  22  21     1.082999764543   118.77200899   180.11104649
 H     28  24  23     1.083096860858   120.73599909   179.80503062
 H     29  28  24     1.082383407116   119.19354598   179.85946094
 H     31  30   3     1.083162102365   119.08330069   179.89953478
 H     33  32  31     1.083784042141   120.70745014     0.24062612
 H     34  33  32     1.082483542600   119.95697632   179.86094800
 H     35  34  33     1.082425563261   119.79304705   179.57046908
 H     36  35  34     1.081311023711   117.71013674   179.24670446

---------------------------
INTERNAL COORDINATES (A.U.)
---------------------------
 C      0   0   0     0.000000000000     0.00000000     0.00000000
 C      1   0   0     2.859521965484     0.00000000     0.00000000
 C      2   1   0     2.674415641498   120.50394698     0.00000000
 N      3   2   1     2.709112130355   121.37214641   355.67975529
 C      4   3   2     2.769666824037   119.83175096   286.76741230
 C      5   4   3     2.842721806817   110.35760226   271.48113097
 C      6   5   4     2.650285578072   120.51915314   259.84891680
 C      7   6   5     2.641098355821   120.37750487   178.03112655
 C      8   7   6     2.662091935238   120.32489862   359.91415416
 O      9   8   7     2.654322075187   122.65135301   180.08297859
 C     10   9   8     2.695481265429   125.31237709   359.91398417
 F     11  10   9     2.614378546514   110.14672032    60.94745799
 F     11  10   9     2.609923784703   108.92768396   180.17386062
 F     11  10   9     2.614267282108   110.21018602   299.47380451
 C      9   8   7     2.647747091012   119.09541297     0.00000000
 F     15   9   8     2.563216691332   119.97634127   180.05689132
 C     15   9   8     2.641466064544   120.52258276   359.94775320
 S      4   3   2     3.281815163356   118.67742042   121.58864213
 O     18   4   3     2.840184694096   109.48767818    92.57168999
 O     18   4   3     2.840332251150   109.79295893   333.20771170
 C     18   4   3     3.325813001504   109.62048820   214.22321185
 C     21  18   4     2.644863680955   119.53969853    65.36740489
 C     22  21  18     2.641290714010   120.29718361   180.86768890
 C     23  22  21     2.657343700796   120.42701133     0.23387242
 C     24  23  22     2.796089395833   120.34315515   179.92625048
 O     25  24  23     2.381349122928   120.56318489   180.56924925
 O     25  24  23     2.627663733944   120.43212993     0.59556627
 C     24  23  22     2.658812630848   118.99706506     0.00000000
 C     28  24  23     2.642062838363   120.44579761   359.84216701
 N      3   2   1     2.568488719314   120.07903894   176.12154773
 C     30   3   2     2.559970221784   122.53121801     1.53081737
 C     31  30   3     2.639631080823   120.15835729     0.77738598
 C     32  31  30     2.652240330029   120.26921957   178.77692047
 C     33  32  31     2.636338460144   120.18201107   180.43458346
 C     34  33  32     2.635599494355   120.10363016     0.14167181
 C     35  34  33     2.640707998835   120.32491844   359.71361182
 C     36  35  34     2.669853689041   120.59491536   359.89942378
 H      1   2   3     2.094243355629   112.68638106   348.78706922
 H      1   2   3     2.097164979124   110.08805516   230.46295460
 H      1   2   3     2.097077665935   109.61925086   109.77506103
 H      5   4   3     2.100741856804   110.35618320    32.24342103
 H      5   4   3     2.099399496188   109.75933816   149.09272862
 H      7   6   5     2.046140072447   120.41138414   358.24938682
 H      8   7   6     2.042362091336   118.37512390   180.12800672
 H     17  15   9     2.047126252111   119.38396433   180.34063061
 H     22  21  18     2.046897588408   120.22727919     0.73875589
 H     23  22  21     2.046572958087   118.77200899   180.11104649
 H     28  24  23     2.046756443531   120.73599909   179.80503062
 H     29  28  24     2.045408211350   119.19354598   179.85946094
 H     31  30   3     2.046879732112   119.08330069   179.89953478
 H     33  32  31     2.048055027961   120.70745014     0.24062612
 H     34  33  32     2.045597439991   119.95697632   179.86094800
 H     35  34  33     2.045487874918   119.79304705   179.57046908
 H     36  35  34     2.043381700405   117.71013674   179.24670446

---------------------
BASIS SET INFORMATION
---------------------
There are 6 groups of distinct atoms

 Group   1 Type C   : 10s4p1d contracted to 3s2p1d pattern {631/31/1}
 Group   2 Type N   : 10s4p1d contracted to 3s2p1d pattern {631/31/1}
 Group   3 Type O   : 10s4p1d contracted to 3s2p1d pattern {631/31/1}
 Group   4 Type F   : 10s4p1d contracted to 3s2p1d pattern {631/31/1}
 Group   5 Type S   : 16s10p1d contracted to 4s3p1d pattern {6631/631/1}
 Group   6 Type H   : 4s contracted to 2s pattern {31}

Atom   0C    basis set group =>   1
Atom   1C    basis set group =>   1
Atom   2C    basis set group =>   1
Atom   3N    basis set group =>   2
Atom   4C    basis set group =>   1
Atom   5C    basis set group =>   1
Atom   6C    basis set group =>   1
Atom   7C    basis set group =>   1
Atom   8C    basis set group =>   1
Atom   9O    basis set group =>   3
Atom  10C    basis set group =>   1
Atom  11F    basis set group =>   4
Atom  12F    basis set group =>   4
Atom  13F    basis set group =>   4
Atom  14C    basis set group =>   1
Atom  15F    basis set group =>   4
Atom  16C    basis set group =>   1
Atom  17S    basis set group =>   5
Atom  18O    basis set group =>   3
Atom  19O    basis set group =>   3
Atom  20C    basis set group =>   1
Atom  21C    basis set group =>   1
Atom  22C    basis set group =>   1
Atom  23C    basis set group =>   1
Atom  24C    basis set group =>   1
Atom  25O    basis set group =>   3
Atom  26O    basis set group =>   3
Atom  27C    basis set group =>   1
Atom  28C    basis set group =>   1
Atom  29N    basis set group =>   2
Atom  30C    basis set group =>   1
Atom  31C    basis set group =>   1
Atom  32C    basis set group =>   1
Atom  33C    basis set group =>   1
Atom  34C    basis set group =>   1
Atom  35C    basis set group =>   1
Atom  36C    basis set group =>   1
Atom  37H    basis set group =>   6
Atom  38H    basis set group =>   6
Atom  39H    basis set group =>   6
Atom  40H    basis set group =>   6
Atom  41H    basis set group =>   6
Atom  42H    basis set group =>   6
Atom  43H    basis set group =>   6
Atom  44H    basis set group =>   6
Atom  45H    basis set group =>   6
Atom  46H    basis set group =>   6
Atom  47H    basis set group =>   6
Atom  48H    basis set group =>   6
Atom  49H    basis set group =>   6
Atom  50H    basis set group =>   6
Atom  51H    basis set group =>   6
Atom  52H    basis set group =>   6
Atom  53H    basis set group =>   6
---------------------------------
AUXILIARY/J BASIS SET INFORMATION
---------------------------------
There are 6 groups of distinct atoms

 Group   1 Type C   : 12s5p4d2f1g contracted to 6s4p3d1f1g pattern {711111/2111/211/2/1}
 Group   2 Type N   : 12s5p4d2f1g contracted to 6s4p3d1f1g pattern {711111/2111/211/2/1}
 Group   3 Type O   : 12s5p4d2f1g contracted to 6s4p3d1f1g pattern {711111/2111/211/2/1}
 Group   4 Type F   : 12s5p4d2f1g contracted to 6s4p3d1f1g pattern {711111/2111/211/2/1}
 Group   5 Type S   : 14s5p5d2f1g contracted to 8s4p3d1f1g pattern {71111111/2111/311/2/1}
 Group   6 Type H   : 5s2p1d contracted to 3s1p1d pattern {311/2/1}

Atom   0C    basis set group =>   1
Atom   1C    basis set group =>   1
Atom   2C    basis set group =>   1
Atom   3N    basis set group =>   2
Atom   4C    basis set group =>   1
Atom   5C    basis set group =>   1
Atom   6C    basis set group =>   1
Atom   7C    basis set group =>   1
Atom   8C    basis set group =>   1
Atom   9O    basis set group =>   3
Atom  10C    basis set group =>   1
Atom  11F    basis set group =>   4
Atom  12F    basis set group =>   4
Atom  13F    basis set group =>   4
Atom  14C    basis set group =>   1
Atom  15F    basis set group =>   4
Atom  16C    basis set group =>   1
Atom  17S    basis set group =>   5
Atom  18O    basis set group =>   3
Atom  19O    basis set group =>   3
Atom  20C    basis set group =>   1
Atom  21C    basis set group =>   1
Atom  22C    basis set group =>   1
Atom  23C    basis set group =>   1
Atom  24C    basis set group =>   1
Atom  25O    basis set group =>   3
Atom  26O    basis set group =>   3
Atom  27C    basis set group =>   1
Atom  28C    basis set group =>   1
Atom  29N    basis set group =>   2
Atom  30C    basis set group =>   1
Atom  31C    basis set group =>   1
Atom  32C    basis set group =>   1
Atom  33C    basis set group =>   1
Atom  34C    basis set group =>   1
Atom  35C    basis set group =>   1
Atom  36C    basis set group =>   1
Atom  37H    basis set group =>   6
Atom  38H    basis set group =>   6
Atom  39H    basis set group =>   6
Atom  40H    basis set group =>   6
Atom  41H    basis set group =>   6
Atom  42H    basis set group =>   6
Atom  43H    basis set group =>   6
Atom  44H    basis set group =>   6
Atom  45H    basis set group =>   6
Atom  46H    basis set group =>   6
Atom  47H    basis set group =>   6
Atom  48H    basis set group =>   6
Atom  49H    basis set group =>   6
Atom  50H    basis set group =>   6
Atom  51H    basis set group =>   6
Atom  52H    basis set group =>   6
Atom  53H    basis set group =>   6
------------------------------------------------------------------------------
                             ORCA STARTUP CALCULATIONS
                           -- RI-GTO INTEGRALS CHOSEN --
------------------------------------------------------------------------------
------------------------------------------------------------------------------
                   ___                                                        
                  /   \      - P O W E R E D   B Y -                         
                 /     \                                                     
                 |  |  |   _    _      __       _____    __    __             
                 |  |  |  | |  | |    /  \     |  _  \  |  |  /  |          
                  \  \/   | |  | |   /    \    | | | |  |  | /  /          
                 / \  \   | |__| |  /  /\  \   | |_| |  |  |/  /          
                |  |  |   |  __  | /  /__\  \  |    /   |      \           
                |  |  |   | |  | | |   __   |  |    \   |  |\   \          
                \     /   | |  | | |  |  |  |  | |\  \  |  | \   \       
                 \___/    |_|  |_| |__|  |__|  |_| \__\ |__|  \__/        
                                                                              
                      - O R C A' S   B I G   F R I E N D -                    
                                      &                                       
                       - I N T E G R A L  F E E D E R -                       
                                                                              
 v1 FN, 2020, v2 2021, v3 2022-2024                                           
------------------------------------------------------------------------------


----------------------
SHARK INTEGRAL PACKAGE
----------------------

Number of atoms                             ...     54
Number of basis functions                   ...    556
Number of shells                            ...    258
Maximum angular momentum                    ...      2
Integral batch strategy                     ... SHARK/LIBINT Hybrid
RI-J (if used) integral strategy            ... SPLIT-RIJ (Revised 2003 algorithm where possible)
Printlevel                                  ...      1
Contraction scheme used                     ... SEGMENTED contraction
Prescreening option                         ... SCHWARTZ
   Thresh                                   ... 1.000e-10
   Tcut                                     ... 1.000e-11
   Tpresel                                  ... 1.000e-11 
Coulomb Range Separation                    ... NOT USED
Exchange Range Separation                   ... NOT USED
Multipole approximations                    ... NOT USED
Finite Nucleus Model                        ... NOT USED
CABS basis                                  ... NOT available
Auxiliary Coulomb fitting basis             ... AVAILABLE
   # of basis functions in Aux-J            ...   2002
   # of shells in Aux-J                     ...    642
   Maximum angular momentum in Aux-J        ...      4
Auxiliary J/K fitting basis                 ... NOT available
Auxiliary Correlation fitting basis         ... NOT available
Auxiliary 'external' fitting basis          ... NOT available

Checking pre-screening integrals            ... done (  0.0 sec) Dimension = 258
Check shell pair data                       ... done (  0.0 sec)
Shell pair information
Shell pair cut-off parameter TPreSel        ...   1.0e-11
Total number of shell pairs                 ...     33411
Shell pairs after pre-screening             ...     17217
Total number of primitive shell pairs       ...    202788
Primitive shell pairs kept                  ...     52994
          la=0 lb=0:   5234 shell pairs
          la=1 lb=0:   6145 shell pairs
          la=1 lb=1:   1807 shell pairs
          la=2 lb=0:   2324 shell pairs
          la=2 lb=1:   1439 shell pairs
          la=2 lb=2:    268 shell pairs

Calculating one electron integrals          ... done (  0.2 sec)
Calculating RI/J V-Matrix + Cholesky decomp.... done (  0.4 sec)
Calculating Nuclear repulsion               ... done (  0.0 sec) ENN=   4183.147128886503 Eh

Diagonalization of the overlap matrix:
Smallest eigenvalue                        ... 3.522e-04
Time for diagonalization                   ...    0.040 sec
Threshold for overlap eigenvalues          ... 1.000e-07
Number of eigenvalues below threshold      ... 0
Time for construction of square roots      ...    0.036 sec
Total time needed                          ...    0.086 sec

-------------------
DFT GRID GENERATION
-------------------

General Integration Accuracy     IntAcc      ... 4.388
Radial Grid Type                 RadialGrid  ... OptM3 with GC (2021)
Angular Grid (max. ang.)         AngularGrid ... 4 (Lebedev-302)
Angular grid pruning method      GridPruning ... 4 (adaptive)
Weight generation scheme         WeightScheme... mBecke (2022)
Basis function cutoff            BFCut       ... 1.0000e-10
Integration weight cutoff        WCut        ... 1.0000e-14
Partially contracted basis set               ... off
Rotationally invariant grid construction     ... off
Angular grids for H and He will be reduced by one unit

Total number of grid points                  ...   276645
Total number of batches                      ...     4352
Average number of points per batch           ...       63
Average number of grid points per atom       ...     5123

--------------------
COSX GRID GENERATION
--------------------

GRIDX 1
-------
General Integration Accuracy     IntAcc      ... 3.816
Radial Grid Type                 RadialGrid  ... OptM3 with GC (2021)
Angular Grid (max. ang.)         AngularGrid ... 1 (Lebedev-50)
Angular grid pruning method      GridPruning ... 4 (adaptive)
Weight generation scheme         WeightScheme... mBecke (2022)
Basis function cutoff            BFCut       ... 1.0000e-10
Integration weight cutoff        WCut        ... 1.0000e-14
Partially contracted basis set               ... on
Rotationally invariant grid construction     ... off
Angular grids for H and He will be reduced by one unit

Total number of grid points                  ...    35898
Total number of batches                      ...      308
Average number of points per batch           ...      116
Average number of grid points per atom       ...      665
UseSFitting                                  ... on

GRIDX 2
-------
General Integration Accuracy     IntAcc      ... 4.020
Radial Grid Type                 RadialGrid  ... OptM3 with GC (2021)
Angular Grid (max. ang.)         AngularGrid ... 2 (Lebedev-110)
Angular grid pruning method      GridPruning ... 4 (adaptive)
Weight generation scheme         WeightScheme... mBecke (2022)
Basis function cutoff            BFCut       ... 1.0000e-10
Integration weight cutoff        WCut        ... 1.0000e-14
Partially contracted basis set               ... on
Rotationally invariant grid construction     ... off
Angular grids for H and He will be reduced by one unit

Total number of grid points                  ...    77514
Total number of batches                      ...      633
Average number of points per batch           ...      122
Average number of grid points per atom       ...     1435
UseSFitting                                  ... on

GRIDX 3
-------
General Integration Accuracy     IntAcc      ... 4.338
Radial Grid Type                 RadialGrid  ... OptM3 with GC (2021)
Angular Grid (max. ang.)         AngularGrid ... 3 (Lebedev-194)
Angular grid pruning method      GridPruning ... 4 (adaptive)
Weight generation scheme         WeightScheme... mBecke (2022)
Basis function cutoff            BFCut       ... 1.0000e-10
Integration weight cutoff        WCut        ... 1.0000e-14
Partially contracted basis set               ... on
Rotationally invariant grid construction     ... off
Angular grids for H and He will be reduced by one unit

Total number of grid points                  ...   170347
Total number of batches                      ...     1359
Average number of points per batch           ...      125
Average number of grid points per atom       ...     3155
UseSFitting                                  ... on
Initializing property integral containers    ... done (  0.0 sec)

SHARK setup successfully completed in  10.8 seconds

Maximum memory used throughout the entire STARTUP-calculation: 120.3 MB
-------------------------------------------------------------------------------
                                 ORCA GUESS
                   Start orbitals & Density for SCF / CASSCF
-------------------------------------------------------------------------------

------------
SCF SETTINGS
------------
Hamiltonian:
 Density Functional     Method          .... DFT(GTOs)
 Exchange Functional    Exchange        .... B88
   X-Alpha parameter    XAlpha          ....  0.666667
   Becke's b parameter  XBeta           ....  0.004200
 Correlation Functional Correlation     .... LYP
 LDA part of GGA corr.  LDAOpt          .... VWN-5
 Gradients option       PostSCFGGA      .... off
 Hybrid DFT is turned on
   Fraction HF Exchange ScalHFX         ....  0.200000
   Scaling of DF-GGA-X  ScalDFX         ....  0.720000
   Scaling of DF-GGA-C  ScalDFC         ....  0.810000
   Scaling of DF-LDA-C  ScalLDAC        ....  1.000000
   Perturbative correction              ....  0.000000
   NL short-range parameter             ....  4.800000
 RI-approximation to the Coulomb term is turned on
   Number of AuxJ basis functions       .... 2002
   RIJ-COSX (HFX calculated with COS-X)).... on


General Settings:
 Integral files         IntName         .... /home/nmrbox/aojoawo/Documents/ERDOS/inputs/CHEMBL3682540
 Hartree-Fock type      HFTyp           .... RHF
 Total Charge           Charge          ....   -1
 Multiplicity           Mult            ....    1
 Number of Electrons    NEL             ....  274
 Basis Dimension        Dim             ....  556
 Nuclear Repulsion      ENuc            ....   4183.1471288865 Eh

Convergence Acceleration:
 AO-DIIS                CNVDIIS         .... on
   Start iteration      DIISMaxIt       ....    12
   Startup error        DIISStart       ....  0.200000
   # of expansion vecs  DIISMaxEq       ....     5
   Bias factor          DIISBfac        ....   1.050
   Max. coefficient     DIISMaxC        ....  10.000
 MO-DIIS                CNVKDIIS        .... off
 Trust-Rad. Augm. Hess. CNVTRAH         .... auto
   Auto Start mean grad. ratio tolernc. ....  1.125000
   Auto Start start iteration           ....    50
   Auto Start num. interpolation iter.  ....    10
   Max. Number of Micro iterations      ....    24
   Max. Number of Macro iterations      .... Maxiter - #DIIS iter
   Number of Davidson start vectors     ....     2
   Converg. threshold    (grad. norm)   ....   5.000e-05
   Grad. Scal. Fac. for Micro threshold ....   0.100
   Minimum threshold for Micro iter.    ....   1.000e-02
   NR start threshold (gradient norm)   ....   1.000e-04
   Initial trust radius                 ....   0.400
   Minimum AH scaling param. (alpha)    ....   1.000
   Maximum AH scaling param. (alpha)    .... 1000.000
   Quad. conv. algorithm                .... NR
   White noise on init. David. guess    .... on
   Maximum white noise                  ....   0.010
   Pseudo random numbers                .... off
   Inactive MOs                         .... canonical
   Orbital update algorithm             .... Taylor
   Preconditioner                       .... Diag
   Full preconditioner red. dimension   ....   250
 SOSCF                  CNVSOSCF        .... on
   Start iteration      SOSCFMaxIt      ....   150
   Startup grad/error   SOSCFStart      ....  0.003300
   Hessian update       SOSCFHessUp     .... L-BFGS
 Level Shifting         CNVShift        .... on
   Level shift para.    LevelShift      ....    0.2500
   Turn off err/grad.   ShiftErr        ....    0.0010
 Zerner damping         CNVZerner       .... off
 Static damping         CNVDamp         .... on
   Fraction old density DampFac         ....    0.7000
   Max. Damping (<1)    DampMax         ....    0.9800
   Min. Damping (>=0)   DampMin         ....    0.0000
   Turn off err/grad.   DampErr         ....    0.1000

SCF Procedure:
 Maximum # iterations   MaxIter         ....   125
 SCF integral mode      SCFMode         .... Direct
   Integral package                     .... SHARK and LIBINT hybrid scheme
 Reset frequency        DirectResetFreq ....    20
 Integral Threshold     Thresh          ....  1.000e-10 Eh
 Primitive CutOff       TCut            ....  1.000e-11 Eh

Convergence Tolerance:
 Convergence Check Mode ConvCheckMode   .... Total+1el-Energy
 Convergence forced     ConvForced      .... 0
 Energy Change          TolE            ....  1.000e-06 Eh
 1-El. energy change                    ....  1.000e-03 Eh
 Orbital Gradient       TolG            ....  5.000e-05
 Orbital Rotation angle TolX            ....  5.000e-05
 DIIS Error             TolErr          ....  1.000e-06

------------------------------
INITIAL GUESS: MODEL POTENTIAL
------------------------------
Loading Hartree-Fock densities                     ... done
Calculating cut-offs                               ... done
Initializing the effective Hamiltonian             ... done
Setting up the integral package (SHARK)            ... done
Starting the Coulomb interaction                   ... done (   2.5 sec)
Making the grid                                    ... done (   1.3 sec)
Mapping shells                                     ... done
Starting the XC term evaluation                    ... done (   1.0 sec)
  promolecular density results
     # of electrons  =    273.006256011
     EX              =   -252.907371958
     EC              =     -9.689525309
     EX+EC           =   -262.596897268
Transforming the Hamiltonian                       ... done (   0.0 sec)
Diagonalizing the Hamiltonian                      ... done (   0.0 sec)
Back transforming the eigenvectors                 ... done (   0.0 sec)
Now organizing SCF variables                       ... done
                      ------------------
                      INITIAL GUESS DONE (   4.8 sec)
                      ------------------
             **** ENERGY FILE WAS UPDATED (/home/nmrbox/aojoawo/Documents/ERDOS/inputs/CHEMBL3682540.en.tmp) ****
Finished Guess after   5.1 sec
Maximum memory used throughout the entire GUESS-calculation: 66.7 MB

-------------------------------------------------------------------------------------------
                                      ORCA LEAN-SCF
                              memory conserving SCF solver
-------------------------------------------------------------------------------------------

----------------------------------------D-I-I-S--------------------------------------------
Iteration    Energy (Eh)           Delta-E    RMSDP     MaxDP     DIISErr   Damp  Time(sec)
-------------------------------------------------------------------------------------------
               ***  Starting incremental Fock matrix formation  ***
    1    -2243.8263475983994795     0.00e+00  2.65e-03  1.88e-01  3.21e-01  0.700  62.2
Warning: op=0 Small HOMO/LUMO gap (  -0.051) - skipping pre-diagonalization
         Will do a full diagonalization
    2    -2244.3680510873446110    -5.42e-01  1.59e-03  9.79e-02  1.23e-01  0.700  27.7
                               ***Turning on AO-DIIS***
    3    -2244.5615668261780229    -1.94e-01  6.18e-04  1.91e-02  3.52e-02  0.700  27.2
    4    -2244.6815177782036699    -1.20e-01  1.05e-03  2.56e-02  1.63e-02  0.000  24.5
    5    -2244.9513515639982870    -2.70e-01  2.61e-04  1.18e-02  7.23e-03  0.000  26.6
                              *** Initializing SOSCF ***
---------------------------------------S-O-S-C-F--------------------------------------
Iteration    Energy (Eh)           Delta-E    RMSDP     MaxDP     MaxGrad    Time(sec)
--------------------------------------------------------------------------------------
    6    -2244.9531032947206768    -1.75e-03  9.26e-05  3.90e-03  2.41e-03    22.4
               *** Restarting incremental Fock matrix formation ***
    7    -2244.9532987194779707    -1.95e-04  8.19e-05  3.34e-03  9.26e-04    66.3
    8    -2244.9532867407115191     1.20e-05  4.57e-05  2.26e-03  1.12e-03    37.2
    9    -2244.9533755620950615    -8.88e-05  1.76e-05  1.14e-03  2.60e-04    33.3
   10    -2244.9533744825548638     1.08e-06  1.06e-05  7.62e-04  3.12e-04    27.3
   11    -2244.9533794481303630    -4.97e-06  5.82e-06  2.93e-04  6.68e-05    23.3
   12    -2244.9533791629373809     2.85e-07  3.37e-06  1.77e-04  9.50e-05    21.8
                 **** Energy Check signals convergence ****

               *****************************************************
               *                     SUCCESS                       *
               *           SCF CONVERGED AFTER  12 CYCLES          *
               *****************************************************

Recomputing exchange energy using gridx3       ... done (   96.243 sec)
Old exchange energy                            :    -51.096716507 Eh
New exchange energy                            :    -51.096755063 Eh
Exchange energy change after final integration :     -0.000038557 Eh
Total energy after final integration           :  -2244.953417720 Eh
             **** ENERGY FILE WAS UPDATED (/home/nmrbox/aojoawo/Documents/ERDOS/inputs/CHEMBL3682540.en.tmp) ****

----------------
TOTAL SCF ENERGY
----------------

Total Energy       :      -2244.95341771957328 Eh          -61088.28816 eV

Components:
Nuclear Repulsion  :       4183.14712888650320 Eh          113829.22034 eV
Electronic Energy  :      -6428.10050804944058 Eh         -174917.50746 eV
One Electron Energy:     -11431.48250110103436 Eh         -311066.45317 eV
Two Electron Energy:       5003.38199305159378 Eh          136148.94571 eV

Virial components:
Potential Energy   :      -4477.43814067932180 Eh         -121837.28590 eV
Kinetic Energy     :       2232.48472295974898 Eh           60748.99773 eV
Virial Ratio       :          2.00558511985842

DFT components:
N(Alpha)           :      137.000049420434 electrons
N(Beta)            :      137.000049420434 electrons
N(Total)           :      274.000098840869 electrons
E(X)               :     -203.203798262163 Eh       
E(C)               :      -11.408426911830 Eh       
E(XC)              :     -214.612225173993 Eh       

---------------
SCF CONVERGENCE
---------------

  Last Energy change         ...   -2.8519e-07  Tolerance :   1.0000e-06
  Last MAX-Density change    ...    1.7651e-04  Tolerance :   1.0000e-05
  Last RMS-Density change    ...    3.3708e-06  Tolerance :   1.0000e-06
  Last DIIS Error            ...    2.4053e-03  Tolerance :   1.0000e-06
  Last Orbital Gradient      ...    9.4957e-05  Tolerance :   5.0000e-05
  Last Orbital Rotation      ...    1.3160e-04  Tolerance :   5.0000e-05


----------------
ORBITAL ENERGIES
----------------

  NO   OCC          E(Eh)            E(eV) 
   0   2.0000     -89.001131     -2421.8439 
   1   2.0000     -24.685572      -671.7286 
   2   2.0000     -24.681496      -671.6176 
   3   2.0000     -24.679247      -671.5564 
   4   2.0000     -24.639941      -670.4869 
   5   2.0000     -19.151435      -521.1370 
   6   2.0000     -19.028446      -517.7903 
   7   2.0000     -19.024467      -517.6821 
   8   2.0000     -18.911524      -514.6087 
   9   2.0000     -18.890972      -514.0495 
  10   2.0000     -14.289797      -388.8451 
  11   2.0000     -14.263301      -388.1242 
  12   2.0000     -10.446015      -284.2505 
  13   2.0000     -10.212630      -277.8998 
  14   2.0000     -10.204606      -277.6815 
  15   2.0000     -10.194423      -277.4044 
  16   2.0000     -10.165424      -276.6153 
  17   2.0000     -10.160625      -276.4846 
  18   2.0000     -10.146781      -276.1080 
  19   2.0000     -10.145227      -276.0657 
  20   2.0000     -10.142214      -275.9837 
  21   2.0000     -10.141220      -275.9566 
  22   2.0000     -10.139775      -275.9173 
  23   2.0000     -10.139545      -275.9110 
  24   2.0000     -10.139176      -275.9010 
  25   2.0000     -10.131523      -275.6927 
  26   2.0000     -10.131236      -275.6849 
  27   2.0000     -10.129922      -275.6492 
  28   2.0000     -10.123979      -275.4875 
  29   2.0000     -10.123110      -275.4638 
  30   2.0000     -10.123073      -275.4628 
  31   2.0000     -10.100463      -274.8476 
  32   2.0000     -10.100432      -274.8467 
  33   2.0000     -10.097017      -274.7538 
  34   2.0000     -10.081181      -274.3229 
  35   2.0000     -10.080665      -274.3088 
  36   2.0000     -10.079870      -274.2872 
  37   2.0000      -8.036882      -218.6947 
  38   2.0000      -6.002488      -163.3360 
  39   2.0000      -5.999689      -163.2598 
  40   2.0000      -5.999120      -163.2443 
  41   2.0000      -1.246601       -33.9217 
  42   2.0000      -1.168241       -31.7894 
  43   2.0000      -1.166013       -31.7288 
  44   2.0000      -1.153405       -31.3857 
  45   2.0000      -1.020802       -27.7774 
  46   2.0000      -0.987141       -26.8615 
  47   2.0000      -0.890562       -24.2334 
  48   2.0000      -0.864605       -23.5271 
  49   2.0000      -0.844232       -22.9727 
  50   2.0000      -0.820709       -22.3326 
  51   2.0000      -0.805771       -21.9262 
  52   2.0000      -0.797983       -21.7142 
  53   2.0000      -0.763092       -20.7648 
  54   2.0000      -0.746629       -20.3168 
  55   2.0000      -0.723035       -19.6748 
  56   2.0000      -0.713334       -19.4108 
  57   2.0000      -0.701944       -19.1009 
  58   2.0000      -0.689927       -18.7739 
  59   2.0000      -0.685132       -18.6434 
  60   2.0000      -0.672308       -18.2944 
  61   2.0000      -0.661521       -18.0009 
  62   2.0000      -0.650019       -17.6879 
  63   2.0000      -0.636815       -17.3286 
  64   2.0000      -0.616762       -16.7830 
  65   2.0000      -0.592355       -16.1188 
  66   2.0000      -0.585422       -15.9302 
  67   2.0000      -0.572943       -15.5906 
  68   2.0000      -0.560809       -15.2604 
  69   2.0000      -0.547138       -14.8884 
  70   2.0000      -0.537978       -14.6391 
  71   2.0000      -0.536353       -14.5949 
  72   2.0000      -0.534597       -14.5471 
  73   2.0000      -0.516139       -14.0449 
  74   2.0000      -0.508503       -13.8371 
  75   2.0000      -0.503075       -13.6894 
  76   2.0000      -0.473942       -12.8966 
  77   2.0000      -0.468162       -12.7393 
  78   2.0000      -0.456624       -12.4254 
  79   2.0000      -0.446094       -12.1388 
  80   2.0000      -0.440035       -11.9740 
  81   2.0000      -0.436968       -11.8905 
  82   2.0000      -0.422311       -11.4917 
  83   2.0000      -0.417465       -11.3598 
  84   2.0000      -0.416953       -11.3459 
  85   2.0000      -0.413348       -11.2478 
  86   2.0000      -0.409484       -11.1426 
  87   2.0000      -0.399912       -10.8822 
  88   2.0000      -0.392078       -10.6690 
  89   2.0000      -0.391093       -10.6422 
  90   2.0000      -0.386017       -10.5041 
  91   2.0000      -0.385501       -10.4900 
  92   2.0000      -0.382882       -10.4187 
  93   2.0000      -0.378038       -10.2869 
  94   2.0000      -0.375475       -10.2172 
  95   2.0000      -0.370599       -10.0845 
  96   2.0000      -0.369509       -10.0548 
  97   2.0000      -0.360262        -9.8032 
  98   2.0000      -0.358976        -9.7682 
  99   2.0000      -0.352017        -9.5789 
 100   2.0000      -0.347946        -9.4681 
 101   2.0000      -0.342821        -9.3286 
 102   2.0000      -0.340891        -9.2761 
 103   2.0000      -0.336549        -9.1580 
 104   2.0000      -0.335008        -9.1160 
 105   2.0000      -0.328514        -8.9393 
 106   2.0000      -0.325610        -8.8603 
 107   2.0000      -0.322404        -8.7731 
 108   2.0000      -0.314204        -8.5499 
 109   2.0000      -0.309687        -8.4270 
 110   2.0000      -0.304809        -8.2943 
 111   2.0000      -0.297160        -8.0861 
 112   2.0000      -0.294233        -8.0065 
 113   2.0000      -0.292730        -7.9656 
 114   2.0000      -0.289273        -7.8715 
 115   2.0000      -0.279624        -7.6090 
 116   2.0000      -0.276197        -7.5157 
 117   2.0000      -0.250758        -6.8235 
 118   2.0000      -0.237696        -6.4680 
 119   2.0000      -0.233721        -6.3599 
 120   2.0000      -0.228609        -6.2208 
 121   2.0000      -0.217412        -5.9161 
 122   2.0000      -0.215563        -5.8658 
 123   2.0000      -0.204450        -5.5634 
 124   2.0000      -0.197232        -5.3669 
 125   2.0000      -0.190847        -5.1932 
 126   2.0000      -0.187862        -5.1120 
 127   2.0000      -0.184918        -5.0319 
 128   2.0000      -0.180106        -4.9009 
 129   2.0000      -0.170328        -4.6349 
 130   2.0000      -0.164383        -4.4731 
 131   2.0000      -0.157327        -4.2811 
 132   2.0000      -0.154975        -4.2171 
 133   2.0000      -0.135717        -3.6931 
 134   2.0000      -0.065628        -1.7858 
 135   2.0000      -0.043893        -1.1944 
 136   2.0000      -0.027391        -0.7453 
 137   0.0000      -0.001185        -0.0322 
 138   0.0000       0.031483         0.8567 
 139   0.0000       0.051207         1.3934 
 140   0.0000       0.058891         1.6025 
 141   0.0000       0.064335         1.7507 
 142   0.0000       0.080576         2.1926 
 143   0.0000       0.093344         2.5400 
 144   0.0000       0.119054         3.2396 
 145   0.0000       0.123449         3.3592 
 146   0.0000       0.141556         3.8519 
 147   0.0000       0.145845         3.9686 
*Only the first 10 virtual orbitals were printed.

                    ********************************
                    * MULLIKEN POPULATION ANALYSIS *
                    ********************************

-----------------------
MULLIKEN ATOMIC CHARGES
-----------------------
   0 C :   -0.546759
   1 C :    0.092808
   2 C :    0.330762
   3 N :   -0.605829
   4 C :   -0.281363
   5 C :    0.203746
   6 C :   -0.153168
   7 C :   -0.184456
   8 C :    0.275286
   9 O :   -0.543302
  10 C :    1.085336
  11 F :   -0.288715
  12 F :   -0.284421
  13 F :   -0.293364
  14 C :    0.366395
  15 F :   -0.315913
  16 C :   -0.237802
  17 S :    1.200400
  18 O :   -0.550828
  19 O :   -0.553771
  20 C :   -0.162252
  21 C :   -0.155604
  22 C :   -0.149732
  23 C :    0.105873
  24 C :    0.412331
  25 O :   -0.549776
  26 O :   -0.655429
  27 C :   -0.159008
  28 C :   -0.156114
  29 N :   -0.357172
  30 C :   -0.052550
  31 C :    0.135661
  32 C :   -0.202188
  33 C :   -0.130052
  34 C :   -0.122805
  35 C :   -0.199944
  36 C :    0.122021
  37 H :    0.192514
  38 H :    0.162718
  39 H :    0.150934
  40 H :    0.161366
  41 H :    0.187012
  42 H :    0.154165
  43 H :    0.156386
  44 H :    0.142622
  45 H :    0.138930
  46 H :    0.153427
  47 H :    0.149461
  48 H :    0.154772
  49 H :    0.147267
  50 H :    0.131059
  51 H :    0.121553
  52 H :    0.124472
  53 H :    0.133037
Sum of atomic charges:   -1.0000000

--------------------------------
MULLIKEN REDUCED ORBITAL CHARGES
--------------------------------
  0 C s       :     3.318285  s :     3.318285
      pz      :     1.028267  p :     3.194235
      px      :     1.067480
      py      :     1.098488
      dz2     :     0.009239  d :     0.034239
      dxz     :     0.004794
      dyz     :     0.006692
      dx2y2   :     0.010691
      dxy     :     0.002823

  1 C s       :     3.179255  s :     3.179255
      pz      :     0.891723  p :     2.688462
      px      :     0.898651
      py      :     0.898088
      dz2     :     0.007528  d :     0.039475
      dxz     :     0.006115
      dyz     :     0.009436
      dx2y2   :     0.008973
      dxy     :     0.007423

  2 C s       :     3.043984  s :     3.043984
      pz      :     0.874003  p :     2.550711
      px      :     0.923822
      py      :     0.752886
      dz2     :     0.014160  d :     0.074544
      dxz     :     0.011827
      dyz     :     0.017998
      dx2y2   :     0.014839
      dxy     :     0.015719

  3 N s       :     3.595578  s :     3.595578
      pz      :     1.262617  p :     3.978004
      px      :     1.571090
      py      :     1.144296
      dz2     :     0.005148  d :     0.032247
      dxz     :     0.005251
      dyz     :     0.010028
      dx2y2   :     0.007029
      dxy     :     0.004790

  4 C s       :     3.275916  s :     3.275916
      pz      :     0.892942  p :     2.949759
      px      :     0.922276
      py      :     1.134541
      dz2     :     0.010518  d :     0.055687
      dxz     :     0.014225
      dyz     :     0.011682
      dx2y2   :     0.014475
      dxy     :     0.004787

  5 C s       :     3.104310  s :     3.104310
      pz      :     0.953467  p :     2.651642
      px      :     0.847867
      py      :     0.850308
      dz2     :     0.003135  d :     0.040302
      dxz     :     0.005179
      dyz     :     0.007022
      dx2y2   :     0.012345
      dxy     :     0.012621

  6 C s       :     3.187121  s :     3.187121
      pz      :     0.979676  p :     2.929821
      px      :     0.956409
      py      :     0.993736
      dz2     :     0.003805  d :     0.036227
      dxz     :     0.005592
      dyz     :     0.003897
      dx2y2   :     0.011685
      dxy     :     0.011247

  7 C s       :     3.178815  s :     3.178815
      pz      :     1.021693  p :     2.970946
      px      :     1.010982
      py      :     0.938271
      dz2     :     0.004327  d :     0.034695
      dxz     :     0.004681
      dyz     :     0.004347
      dx2y2   :     0.008361
      dxy     :     0.012979

  8 C s       :     3.076459  s :     3.076459
      pz      :     1.014558  p :     2.584512
      px      :     0.638578
      py      :     0.931376
      dz2     :     0.006364  d :     0.063744
      dxz     :     0.013118
      dyz     :     0.007758
      dx2y2   :     0.019693
      dxy     :     0.016811

  9 O s       :     3.886031  s :     3.886031
      pz      :     1.776850  p :     4.631335
      px      :     1.294733
      py      :     1.559753
      dz2     :     0.004176  d :     0.025936
      dxz     :     0.004596
      dyz     :     0.003319
      dx2y2   :     0.005506
      dxy     :     0.008339

 10 C s       :     2.715879  s :     2.715879
      pz      :     0.662297  p :     2.033960
      px      :     0.681814
      py      :     0.689848
      dz2     :     0.032676  d :     0.164825
      dxz     :     0.028168
      dyz     :     0.040071
      dx2y2   :     0.025973
      dxy     :     0.037937

 11 F s       :     3.982301  s :     3.982301
      pz      :     1.683489  p :     5.290086
      px      :     1.864691
      py      :     1.741906
      dz2     :     0.003523  d :     0.016328
      dxz     :     0.002942
      dyz     :     0.005522
      dx2y2   :     0.001962
      dxy     :     0.002379

 12 F s       :     3.978186  s :     3.978186
      pz      :     1.875995  p :     5.290218
      px      :     1.572221
      py      :     1.842001
      dz2     :     0.002153  d :     0.016017
      dxz     :     0.003742
      dyz     :     0.001253
      dx2y2   :     0.004193
      dxy     :     0.004676

 13 F s       :     3.981645  s :     3.981645
      pz      :     1.587059  p :     5.295530
      px      :     1.904952
      py      :     1.803519
      dz2     :     0.005262  d :     0.016190
      dxz     :     0.002943
      dyz     :     0.005569
      dx2y2   :     0.001230
      dxy     :     0.001187

 14 C s       :     3.093520  s :     3.093520
      pz      :     1.007945  p :     2.468748
      px      :     0.864343
      py      :     0.596460
      dz2     :     0.006255  d :     0.071337
      dxz     :     0.007872
      dyz     :     0.013965
      dx2y2   :     0.020221
      dxy     :     0.023024

 15 F s       :     3.973079  s :     3.973079
      pz      :     1.890749  p :     5.325717
      px      :     1.864656
      py      :     1.570311
      dz2     :     0.002149  d :     0.017117
      dxz     :     0.000897
      dyz     :     0.004172
      dx2y2   :     0.004933
      dxy     :     0.004965

 16 C s       :     3.211779  s :     3.211779
      pz      :     1.029266  p :     2.991462
      px      :     0.966969
      py      :     0.995228
      dz2     :     0.004340  d :     0.034562
      dxz     :     0.005308
      dyz     :     0.003863
      dx2y2   :     0.010413
      dxy     :     0.010637

 17 S s       :     5.222765  s :     5.222765
      pz      :     3.022860  p :     9.044392
      px      :     2.973538
      py      :     3.047993
      dz2     :     0.073115  d :     0.532443
      dxz     :     0.126782
      dyz     :     0.126444
      dx2y2   :     0.113843
      dxy     :     0.092259

 18 O s       :     3.919642  s :     3.919642
      pz      :     1.512250  p :     4.604907
      px      :     1.390664
      py      :     1.701992
      dz2     :     0.005222  d :     0.026279
      dxz     :     0.007891
      dyz     :     0.002540
      dx2y2   :     0.005148
      dxy     :     0.005478

 19 O s       :     3.919384  s :     3.919384
      pz      :     1.444459  p :     4.607959
      px      :     1.470952
      py      :     1.692549
      dz2     :     0.006198  d :     0.026428
      dxz     :     0.007924
      dyz     :     0.003614
      dx2y2   :     0.004144
      dxy     :     0.004548

 20 C s       :     3.219790  s :     3.219790
      pz      :     1.047229  p :     2.903759
      px      :     0.991477
      py      :     0.865052
      dz2     :     0.003900  d :     0.038703
      dxz     :     0.006990
      dyz     :     0.007307
      dx2y2   :     0.011351
      dxy     :     0.009156

 21 C s       :     3.198721  s :     3.198721
      pz      :     0.971561  p :     2.920301
      px      :     0.936021
      py      :     1.012718
      dz2     :     0.007177  d :     0.036582
      dxz     :     0.005860
      dyz     :     0.004445
      dx2y2   :     0.007356
      dxy     :     0.011745

 22 C s       :     3.219700  s :     3.219700
      pz      :     0.940729  p :     2.894478
      px      :     1.009685
      py      :     0.944064
      dz2     :     0.003940  d :     0.035554
      dxz     :     0.006573
      dyz     :     0.006138
      dx2y2   :     0.010585
      dxy     :     0.008317

 23 C s       :     3.211532  s :     3.211532
      pz      :     0.895040  p :     2.642609
      px      :     0.828622
      py      :     0.918947
      dz2     :     0.005593  d :     0.039987
      dxz     :     0.006797
      dyz     :     0.006739
      dx2y2   :     0.010281
      dxy     :     0.010577

 24 C s       :     3.002421  s :     3.002421
      pz      :     0.844136  p :     2.472912
      px      :     0.775670
      py      :     0.853106
      dz2     :     0.010188  d :     0.112336
      dxz     :     0.020964
      dyz     :     0.017273
      dx2y2   :     0.035187
      dxy     :     0.028724

 25 O s       :     3.844104  s :     3.844104
      pz      :     1.605212  p :     4.682636
      px      :     1.579393
      py      :     1.498031
      dz2     :     0.002412  d :     0.023035
      dxz     :     0.002949
      dyz     :     0.004324
      dx2y2   :     0.006291
      dxy     :     0.007059

 26 O s       :     3.911312  s :     3.911312
      pz      :     1.521574  p :     4.726995
      px      :     1.426306
      py      :     1.779115
      dz2     :     0.002848  d :     0.017122
      dxz     :     0.005944
      dyz     :     0.001037
      dx2y2   :     0.004430
      dxy     :     0.002863

 27 C s       :     3.216645  s :     3.216645
      pz      :     0.960984  p :     2.907023
      px      :     1.018079
      py      :     0.927961
      dz2     :     0.005768  d :     0.035340
      dxz     :     0.005153
      dyz     :     0.005313
      dx2y2   :     0.007601
      dxy     :     0.011505

 28 C s       :     3.207038  s :     3.207038
      pz      :     0.983368  p :     2.912424
      px      :     0.993012
      py      :     0.936044
      dz2     :     0.004170  d :     0.036651
      dxz     :     0.007187
      dyz     :     0.006398
      dx2y2   :     0.010092
      dxy     :     0.008804

 29 N s       :     3.699486  s :     3.699486
      pz      :     1.152106  p :     3.622304
      px      :     1.322722
      py      :     1.147477
      dz2     :     0.008539  d :     0.035381
      dxz     :     0.007005
      dyz     :     0.005485
      dx2y2   :     0.006829
      dxy     :     0.007523

 30 C s       :     3.161513  s :     3.161513
      pz      :     0.963049  p :     2.837111
      px      :     0.959361
      py      :     0.914701
      dz2     :     0.009157  d :     0.053926
      dxz     :     0.007057
      dyz     :     0.014778
      dx2y2   :     0.010507
      dxy     :     0.012427

 31 C s       :     3.138408  s :     3.138408
      pz      :     0.887874  p :     2.684175
      px      :     0.912320
      py      :     0.883981
      dz2     :     0.008357  d :     0.041756
      dxz     :     0.006746
      dyz     :     0.009921
      dx2y2   :     0.008304
      dxy     :     0.008427

 32 C s       :     3.209969  s :     3.209969
      pz      :     0.983684  p :     2.955805
      px      :     0.978068
      py      :     0.994053
      dz2     :     0.006336  d :     0.036414
      dxz     :     0.006178
      dyz     :     0.009095
      dx2y2   :     0.007598
      dxy     :     0.007207

 33 C s       :     3.189571  s :     3.189571
      pz      :     0.951911  p :     2.904091
      px      :     0.975314
      py      :     0.976865
      dz2     :     0.008042  d :     0.036391
      dxz     :     0.006216
      dyz     :     0.008217
      dx2y2   :     0.008048
      dxy     :     0.005868

 34 C s       :     3.192927  s :     3.192927
      pz      :     0.951995  p :     2.893244
      px      :     0.973567
      py      :     0.967682
      dz2     :     0.006877  d :     0.036634
      dxz     :     0.006694
      dyz     :     0.009299
      dx2y2   :     0.005294
      dxy     :     0.008470

 35 C s       :     3.207169  s :     3.207169
      pz      :     0.985427  p :     2.957149
      px      :     1.005737
      py      :     0.965986
      dz2     :     0.006410  d :     0.035626
      dxz     :     0.006457
      dyz     :     0.008598
      dx2y2   :     0.006851
      dxy     :     0.007309

 36 C s       :     3.136681  s :     3.136681
      pz      :     0.896645  p :     2.699751
      px      :     0.914810
      py      :     0.888295
      dz2     :     0.008260  d :     0.041547
      dxz     :     0.006584
      dyz     :     0.009936
      dx2y2   :     0.008491
      dxy     :     0.008277

 37 H s       :     0.807486  s :     0.807486

 38 H s       :     0.837282  s :     0.837282

 39 H s       :     0.849066  s :     0.849066

 40 H s       :     0.838634  s :     0.838634

 41 H s       :     0.812988  s :     0.812988

 42 H s       :     0.845835  s :     0.845835

 43 H s       :     0.843614  s :     0.843614

 44 H s       :     0.857378  s :     0.857378

 45 H s       :     0.861070  s :     0.861070

 46 H s       :     0.846573  s :     0.846573

 47 H s       :     0.850539  s :     0.850539

 48 H s       :     0.845228  s :     0.845228

 49 H s       :     0.852733  s :     0.852733

 50 H s       :     0.868941  s :     0.868941

 51 H s       :     0.878447  s :     0.878447

 52 H s       :     0.875528  s :     0.875528

 53 H s       :     0.866963  s :     0.866963



                     *******************************
                     * LOEWDIN POPULATION ANALYSIS *
                     *******************************

----------------------
LOEWDIN ATOMIC CHARGES
----------------------
   0 C :   -0.361757
   1 C :   -0.020570
   2 C :    0.045034
   3 N :   -0.285497
   4 C :   -0.150409
   5 C :   -0.023730
   6 C :   -0.116314
   7 C :   -0.149505
   8 C :    0.055331
   9 O :   -0.159241
  10 C :    0.358935
  11 F :   -0.103171
  12 F :   -0.091849
  13 F :   -0.106947
  14 C :    0.103643
  15 F :   -0.102972
  16 C :   -0.143458
  17 S :    1.260936
  18 O :   -0.584992
  19 O :   -0.585412
  20 C :   -0.217155
  21 C :   -0.128260
  22 C :   -0.106296
  23 C :   -0.000938
  24 C :    0.071502
  25 O :   -0.375398
  26 O :   -0.503531
  27 C :   -0.114741
  28 C :   -0.126994
  29 N :   -0.106946
  30 C :   -0.060372
  31 C :   -0.031787
  32 C :   -0.113444
  33 C :   -0.136690
  34 C :   -0.125500
  35 C :   -0.126714
  36 C :   -0.007133
  37 H :    0.147791
  38 H :    0.137245
  39 H :    0.131247
  40 H :    0.135451
  41 H :    0.144645
  42 H :    0.144744
  43 H :    0.144767
  44 H :    0.145120
  45 H :    0.134941
  46 H :    0.150790
  47 H :    0.147840
  48 H :    0.144004
  49 H :    0.135128
  50 H :    0.133458
  51 H :    0.128686
  52 H :    0.130357
  53 H :    0.136128

-------------------------------
LOEWDIN REDUCED ORBITAL CHARGES
-------------------------------
  0 C s       :     2.972569  s :     2.972569
      pz      :     1.077329  p :     3.322543
      px      :     1.113995
      py      :     1.131218
      dz2     :     0.018588  d :     0.066645
      dxz     :     0.009643
      dyz     :     0.013184
      dx2y2   :     0.020152
      dxy     :     0.005078

  1 C s       :     2.887250  s :     2.887250
      pz      :     1.011422  p :     3.036339
      px      :     0.992122
      py      :     1.032795
      dz2     :     0.017158  d :     0.096981
      dxz     :     0.015799
      dyz     :     0.023361
      dx2y2   :     0.020993
      dxy     :     0.019669

  2 C s       :     2.847964  s :     2.847964
      pz      :     0.999325  p :     2.929083
      px      :     1.001774
      py      :     0.927983
      dz2     :     0.032923  d :     0.177920
      dxz     :     0.029341
      dyz     :     0.043931
      dx2y2   :     0.035747
      dxy     :     0.035978

  3 N s       :     3.174493  s :     3.174493
      pz      :     1.306325  p :     4.028427
      px      :     1.536921
      py      :     1.185182
      dz2     :     0.013712  d :     0.082577
      dxz     :     0.011814
      dyz     :     0.027822
      dx2y2   :     0.017444
      dxy     :     0.011785

  4 C s       :     2.921190  s :     2.921190
      pz      :     0.979297  p :     3.110563
      px      :     1.001153
      py      :     1.130112
      dz2     :     0.023044  d :     0.118656
      dxz     :     0.031776
      dyz     :     0.023101
      dx2y2   :     0.031723
      dxy     :     0.009012

  5 C s       :     2.876574  s :     2.876574
      pz      :     0.965827  p :     3.045962
      px      :     1.019484
      py      :     1.060651
      dz2     :     0.006840  d :     0.101193
      dxz     :     0.010552
      dyz     :     0.015645
      dx2y2   :     0.034635
      dxy     :     0.033521

  6 C s       :     2.915435  s :     2.915435
      pz      :     0.987471  p :     3.115767
      px      :     1.052244
      py      :     1.076052
      dz2     :     0.007110  d :     0.085112
      dxz     :     0.012701
      dyz     :     0.007449
      dx2y2   :     0.029308
      dxy     :     0.028545

  7 C s       :     2.917455  s :     2.917455
      pz      :     1.019971  p :     3.149852
      px      :     1.077175
      py      :     1.052706
      dz2     :     0.008054  d :     0.082198
      dxz     :     0.010491
      dyz     :     0.009241
      dx2y2   :     0.023015
      dxy     :     0.031398

  8 C s       :     2.859900  s :     2.859900
      pz      :     1.015896  p :     2.932405
      px      :     0.835497
      py      :     1.081012
      dz2     :     0.013623  d :     0.152365
      dxz     :     0.027871
      dyz     :     0.016864
      dx2y2   :     0.048244
      dxy     :     0.045764

  9 O s       :     3.468785  s :     3.468785
      pz      :     1.753371  p :     4.632760
      px      :     1.309282
      py      :     1.570108
      dz2     :     0.008144  d :     0.057696
      dxz     :     0.010802
      dyz     :     0.004587
      dx2y2   :     0.012785
      dxy     :     0.021377

 10 C s       :     2.819255  s :     2.819255
      pz      :     0.803870  p :     2.442810
      px      :     0.817285
      py      :     0.821654
      dz2     :     0.076249  d :     0.379000
      dxz     :     0.061044
      dyz     :     0.096189
      dx2y2   :     0.055283
      dxy     :     0.090236

 11 F s       :     3.765328  s :     3.765328
      pz      :     1.693797  p :     5.306429
      px      :     1.861167
      py      :     1.751465
      dz2     :     0.005650  d :     0.031414
      dxz     :     0.005418
      dyz     :     0.012263
      dx2y2   :     0.003658
      dxy     :     0.004425

 12 F s       :     3.759797  s :     3.759797
      pz      :     1.871255  p :     5.301592
      px      :     1.589315
      py      :     1.841022
      dz2     :     0.004102  d :     0.030461
      dxz     :     0.006752
      dyz     :     0.002226
      dx2y2   :     0.007838
      dxy     :     0.009542

 13 F s       :     3.764972  s :     3.764972
      pz      :     1.606794  p :     5.310718
      px      :     1.895896
      py      :     1.808028
      dz2     :     0.010131  d :     0.031257
      dxz     :     0.004837
      dyz     :     0.011969
      dx2y2   :     0.002112
      dxy     :     0.002208

 14 C s       :     2.862672  s :     2.862672
      pz      :     1.011503  p :     2.857014
      px      :     1.030714
      py      :     0.814797
      dz2     :     0.014873  d :     0.176671
      dxz     :     0.017317
      dyz     :     0.030574
      dx2y2   :     0.054182
      dxy     :     0.059726

 15 F s       :     3.734516  s :     3.734516
      pz      :     1.884926  p :     5.333700
      px      :     1.863396
      py      :     1.585378
      dz2     :     0.004357  d :     0.034756
      dxz     :     0.001788
      dyz     :     0.008703
      dx2y2   :     0.009925
      dxy     :     0.009982

 16 C s       :     2.918575  s :     2.918575
      pz      :     1.023746  p :     3.143311
      px      :     1.043303
      py      :     1.076263
      dz2     :     0.008090  d :     0.081571
      dxz     :     0.011776
      dyz     :     0.007967
      dx2y2   :     0.027249
      dxy     :     0.026488

 17 S s       :     5.105615  s :     5.105615
      pz      :     2.983945  p :     8.959263
      px      :     2.970524
      py      :     3.004794
      dz2     :     0.083014  d :     0.674185
      dxz     :     0.169321
      dyz     :     0.164751
      dx2y2   :     0.147514
      dxy     :     0.109586

 18 O s       :     3.709675  s :     3.709675
      pz      :     1.584366  p :     4.819984
      px      :     1.505878
      py      :     1.729740
      dz2     :     0.007492  d :     0.055333
      dxz     :     0.021802
      dyz     :     0.003713
      dx2y2   :     0.013932
      dxy     :     0.008394

 19 O s       :     3.710079  s :     3.710079
      pz      :     1.533556  p :     4.820078
      px      :     1.564889
      py      :     1.721633
      dz2     :     0.009080  d :     0.055254
      dxz     :     0.023151
      dyz     :     0.005571
      dx2y2   :     0.009998
      dxy     :     0.007455

 20 C s       :     2.926152  s :     2.926152
      pz      :     1.080769  p :     3.192004
      px      :     1.098204
      py      :     1.013030
      dz2     :     0.008909  d :     0.099000
      dxz     :     0.016969
      dyz     :     0.018124
      dx2y2   :     0.029721
      dxy     :     0.025277

 21 C s       :     2.917205  s :     2.917205
      pz      :     1.008292  p :     3.123646
      px      :     1.042841
      py      :     1.072513
[...]
      dz2     :     0.004351  d :     0.033708
      dxz     :     0.013044
      dyz     :     0.001684
      dx2y2   :     0.009640
      dxy     :     0.004988

 27 C s       :     2.922503  s :     2.922503
      pz      :     0.993303  p :     3.108868
      px      :     1.065841
      py      :     1.049724
      dz2     :     0.011470  d :     0.083371
      dxz     :     0.012850
      dyz     :     0.013827
      dx2y2   :     0.019371
      dxy     :     0.025853

 28 C s       :     2.919805  s :     2.919805
      pz      :     1.011249  p :     3.120217
      px      :     1.059131
      py      :     1.049838
      dz2     :     0.009070  d :     0.086973
      dxz     :     0.013992
      dyz     :     0.016023
      dx2y2   :     0.024737
      dxy     :     0.023150

 29 N s       :     3.240328  s :     3.240328
      pz      :     1.224873  p :     3.787282
      px      :     1.325482
      py      :     1.236927
      dz2     :     0.019576  d :     0.079336
      dxz     :     0.014052
      dyz     :     0.015617
      dx2y2   :     0.014283
      dxy     :     0.015808

 30 C s       :     2.911775  s :     2.911775
      pz      :     1.028985  p :     3.024915
      px      :     0.996532
      py      :     0.999398
      dz2     :     0.020267  d :     0.123682
      dxz     :     0.013698
      dyz     :     0.034075
      dx2y2   :     0.024515
      dxy     :     0.031127

 31 C s       :     2.858681  s :     2.858681
      pz      :     1.023284  p :     3.064324
      px      :     1.005326
      py      :     1.035714
      dz2     :     0.020810  d :     0.108782
      dxz     :     0.017431
      dyz     :     0.027139
      dx2y2   :     0.021536
      dxy     :     0.021867

 32 C s       :     2.916016  s :     2.916016
      pz      :     1.043046  p :     3.112518
      px      :     1.020395
      py      :     1.049076
      dz2     :     0.014153  d :     0.084911
      dxz     :     0.012810
      dyz     :     0.021051
      dx2y2   :     0.017915
      dxy     :     0.018982

 33 C s       :     2.915897  s :     2.915897
      pz      :     1.046007  p :     3.134765
      px      :     1.029208
      py      :     1.059550
      dz2     :     0.019189  d :     0.086029
      dxz     :     0.016799
      dyz     :     0.019406
      dx2y2   :     0.016958
      dxy     :     0.013676

 34 C s       :     2.917239  s :     2.917239
      pz      :     1.041848  p :     3.121957
      px      :     1.018936
      py      :     1.061173
      dz2     :     0.016624  d :     0.086304
      dxz     :     0.014161
      dyz     :     0.023918
      dx2y2   :     0.013348
      dxy     :     0.018253

 35 C s       :     2.916726  s :     2.916726
      pz      :     1.049410  p :     3.127294
      px      :     1.024998
      py      :     1.052886
      dz2     :     0.014388  d :     0.082694
      dxz     :     0.012709
      dyz     :     0.020149
      dx2y2   :     0.017173
      dxy     :     0.018275

 36 C s       :     2.856129  s :     2.856129
      pz      :     1.017009  p :     3.044667
      px      :     0.999989
      py      :     1.027668
      dz2     :     0.020390  d :     0.106337
      dxz     :     0.017008
      dyz     :     0.026796
      dx2y2   :     0.021316
      dxy     :     0.020827

 37 H s       :     0.852209  s :     0.852209

 38 H s       :     0.862755  s :     0.862755

 39 H s       :     0.868753  s :     0.868753

 40 H s       :     0.864549  s :     0.864549

 41 H s       :     0.855355  s :     0.855355

 42 H s       :     0.855256  s :     0.855256

 43 H s       :     0.855233  s :     0.855233

 44 H s       :     0.854880  s :     0.854880

 45 H s       :     0.865059  s :     0.865059

 46 H s       :     0.849210  s :     0.849210

 47 H s       :     0.852160  s :     0.852160

 48 H s       :     0.855996  s :     0.855996

 49 H s       :     0.864872  s :     0.864872

 50 H s       :     0.866542  s :     0.866542

 51 H s       :     0.871314  s :     0.871314

 52 H s       :     0.869643  s :     0.869643

 53 H s       :     0.863872  s :     0.863872



                      *****************************
                      * MAYER POPULATION ANALYSIS *
                      *****************************

  NA   - Mulliken gross atomic population
  ZA   - Total nuclear charge
  QA   - Mulliken gross atomic charge
  VA   - Mayer's total valence
  BVA  - Mayer's bonded valence
  FA   - Mayer's free valence

  ATOM       NA         ZA         QA         VA         BVA        FA
  0 C      6.5468     6.0000    -0.5468     3.8229     3.8229     0.0000
  1 C      5.9072     6.0000     0.0928     3.8624     3.8624     0.0000
  2 C      5.6692     6.0000     0.3308     3.8943     3.8943     0.0000
  3 N      7.6058     7.0000    -0.6058     2.7816     2.7816     0.0000
  4 C      6.2814     6.0000    -0.2814     3.8448     3.8448    -0.0000
  5 C      5.7963     6.0000     0.2037     3.8690     3.8690     0.0000
  6 C      6.1532     6.0000    -0.1532     3.9629     3.9629     0.0000
  7 C      6.1845     6.0000    -0.1845     3.9101     3.9101     0.0000
  8 C      5.7247     6.0000     0.2753     3.7207     3.7207     0.0000
  9 O      8.5433     8.0000    -0.5433     1.9523     1.9523     0.0000
 10 C      4.9147     6.0000     1.0853     3.9994     3.9994     0.0000
 11 F      9.2887     9.0000    -0.2887     1.0686     1.0686     0.0000
 12 F      9.2844     9.0000    -0.2844     1.0814     1.0814    -0.0000
 13 F      9.2934     9.0000    -0.2934     1.0630     1.0630     0.0000
 14 C      5.6336     6.0000     0.3664     3.7982     3.7982     0.0000
 15 F      9.3159     9.0000    -0.3159     1.0468     1.0468     0.0000
 16 C      6.2378     6.0000    -0.2378     3.8928     3.8928    -0.0000
 17 S     14.7996    16.0000     1.2004     5.0731     5.0731    -0.0000
 18 O      8.5508     8.0000    -0.5508     1.8876     1.8876    -0.0000
 19 O      8.5538     8.0000    -0.5538     1.8784     1.8784    -0.0000
 20 C      6.1623     6.0000    -0.1623     3.8022     3.8022     0.0000
 21 C      6.1556     6.0000    -0.1556     3.8914     3.8914     0.0000
 22 C      6.1497     6.0000    -0.1497     3.8751     3.8751    -0.0000
 23 C      5.8941     6.0000     0.1059     3.8369     3.8369    -0.0000
 24 C      5.5877     6.0000     0.4123     4.2054     4.2054     0.0000
 25 O      8.5498     8.0000    -0.5498     1.9584     1.9584     0.0000
 26 O      8.6554     8.0000    -0.6554     1.8386     1.8386    -0.0000
 27 C      6.1590     6.0000    -0.1590     3.8684     3.8684    -0.0000
 28 C      6.1561     6.0000    -0.1561     3.8988     3.8988     0.0000
 29 N      7.3572     7.0000    -0.3572     2.9661     2.9661     0.0000
 30 C      6.0525     6.0000    -0.0525     3.8608     3.8608     0.0000
 31 C      5.8643     6.0000     0.1357     3.9469     3.9469    -0.0000
 32 C      6.2022     6.0000    -0.2022     3.9031     3.9031    -0.0000
 33 C      6.1301     6.0000    -0.1301     3.9283     3.9283    -0.0000
 34 C      6.1228     6.0000    -0.1228     3.9293     3.9293     0.0000
 35 C      6.1999     6.0000    -0.1999     3.8749     3.8749     0.0000
 36 C      5.8780     6.0000     0.1220     3.9980     3.9980     0.0000
 37 H      0.8075     1.0000     0.1925     0.9336     0.9336     0.0000
 38 H      0.8373     1.0000     0.1627     0.9317     0.9317    -0.0000
 39 H      0.8491     1.0000     0.1509     0.9308     0.9308     0.0000
 40 H      0.8386     1.0000     0.1614     0.9335     0.9335    -0.0000
 41 H      0.8130     1.0000     0.1870     0.9319     0.9319    -0.0000
 42 H      0.8458     1.0000     0.1542     0.9451     0.9451     0.0000
 43 H      0.8436     1.0000     0.1564     0.9490     0.9490    -0.0000
 44 H      0.8574     1.0000     0.1426     0.9451     0.9451    -0.0000
 45 H      0.8611     1.0000     0.1389     0.9415     0.9415    -0.0000
 46 H      0.8466     1.0000     0.1534     0.9643     0.9643     0.0000
 47 H      0.8505     1.0000     0.1495     0.9585     0.9585    -0.0000
 48 H      0.8452     1.0000     0.1548     0.9445     0.9445     0.0000
 49 H      0.8527     1.0000     0.1473     0.9341     0.9341     0.0000
 50 H      0.8689     1.0000     0.1311     0.9384     0.9384    -0.0000
 51 H      0.8784     1.0000     0.1216     0.9388     0.9388    -0.0000
 52 H      0.8755     1.0000     0.1245     0.9384     0.9384     0.0000
 53 H      0.8670     1.0000     0.1330     0.9435     0.9435     0.0000

  Mayer bond orders larger than 0.100000
B(  0-C ,  1-C ) :   0.9952 B(  0-C , 37-H ) :   0.9236 B(  0-C , 38-H ) :   0.9300 
B(  0-C , 39-H ) :   0.9286 B(  1-C ,  2-C ) :   1.4326 B(  1-C , 30-C ) :   0.1043 
B(  1-C , 36-C ) :   1.2675 B(  2-C ,  3-N ) :   0.9157 B(  2-C , 29-N ) :   1.2796 
B(  3-N ,  4-C ) :   0.9475 B(  3-N , 17-S ) :   0.7608 B(  4-C ,  5-C ) :   0.9392 
B(  4-C , 40-H ) :   0.9238 B(  4-C , 41-H ) :   0.9176 B(  5-C ,  6-C ) :   1.4388 
B(  5-C , 16-C ) :   1.4046 B(  6-C ,  7-C ) :   1.4372 B(  6-C , 42-H ) :   0.9088 
B(  7-C ,  8-C ) :   1.3888 B(  7-C , 43-H ) :   0.9096 B(  8-C ,  9-O ) :   0.8183 
B(  8-C , 14-C ) :   1.3262 B(  9-O , 10-C ) :   0.9966 B( 10-C , 11-F ) :   0.9731 
B( 10-C , 12-F ) :   1.0017 B( 10-C , 13-F ) :   0.9673 B( 14-C , 15-F ) :   0.9314 
B( 14-C , 16-C ) :   1.3956 B( 16-C , 44-H ) :   0.9116 B( 17-S , 18-O ) :   1.6379 
B( 17-S , 19-O ) :   1.6483 B( 17-S , 20-C ) :   0.8397 B( 20-C , 21-C ) :   1.3499 
B( 20-C , 28-C ) :   1.3734 B( 21-C , 22-C ) :   1.4140 B( 21-C , 45-H ) :   0.9202 
B( 22-C , 23-C ) :   1.3969 B( 22-C , 46-H ) :   0.9013 B( 23-C , 24-C ) :   0.9271 
B( 23-C , 27-C ) :   1.3893 B( 24-C , 25-O ) :   1.7078 B( 24-C , 26-O ) :   1.5478 
B( 25-O , 26-O ) :   0.1496 B( 27-C , 28-C ) :   1.4030 B( 27-C , 47-H ) :   0.9067 
B( 28-C , 48-H ) :   0.9155 B( 29-N , 30-C ) :   1.5000 B( 30-C , 31-C ) :   1.2279 
B( 30-C , 49-H ) :   0.9281 B( 31-C , 32-C ) :   1.2852 B( 31-C , 36-C ) :   1.2894 
B( 32-C , 33-C ) :   1.5132 B( 32-C , 35-C ) :   0.1065 B( 32-C , 50-H ) :   0.9242 
B( 33-C , 34-C ) :   1.3522 B( 33-C , 51-H ) :   0.9315 B( 34-C , 35-C ) :   1.5114 
B( 34-C , 52-H ) :   0.9312 B( 35-C , 36-C ) :   1.2915 B( 35-C , 53-H ) :   0.9170 


-------
TIMINGS
-------

Total SCF time: 0 days 0 hours 8 min 16 sec 

Total time                  ....     496.921 sec
Sum of individual times     ....     496.531 sec  ( 99.9%)

SCF preparation             ....       0.356 sec  (  0.1%)
Fock matrix formation       ....     493.478 sec  ( 99.3%)
  Startup                   ....       0.122 sec  (  0.0% of F)
  Split-RI-J                ....      59.826 sec  ( 12.1% of F)
  Chain of spheres X        ....     396.178 sec  ( 80.3% of F)
  XC integration            ....      36.351 sec  (  7.4% of F)
    XC Preparation          ....       0.000 sec  (  0.0% of XC)
    Basis function eval.    ....      14.059 sec  ( 38.7% of XC)
    Density eval.           ....       8.869 sec  ( 24.4% of XC)
    XC-Functional eval.     ....       1.597 sec  (  4.4% of XC)
    XC-Potential eval.      ....      10.053 sec  ( 27.7% of XC)
Diagonalization             ....       0.000 sec  (  0.0%)
Density matrix formation    ....       0.440 sec  (  0.1%)
Total Energy calculation    ....       0.107 sec  (  0.0%)
Population analysis         ....       0.142 sec  (  0.0%)
Orbital Transformation      ....       0.242 sec  (  0.0%)
Orbital Orthonormalization  ....       0.000 sec  (  0.0%)
DIIS solution               ....       0.972 sec  (  0.2%)
SOSCF solution              ....       0.794 sec  (  0.2%)
Finished LeanSCF after 497.1 sec

Maximum memory used throughout the entire LEANSCF-calculation: 94.3 MB

-------------------------   --------------------
FINAL SINGLE POINT ENERGY     -2244.953417719573
-------------------------   --------------------


------------------------------------------------------------------------------
                              ORCA PROPERTY CALCULATIONS
------------------------------------------------------------------------------

GBWName                                 ... /home/nmrbox/aojoawo/Documents/ERDOS/inputs/CHEMBL3682540.gbw
Number of atoms                         ...     54
Number of basis functions               ...    556
Max core memory                         ...   1024 MB

Electric properties:
Dipole moment                           ... YES
Quadrupole moment                       ...  NO
Static polarizability (Dipole/Dipole)   ...  NO
Static polarizability (Dipole/Quad.)    ...  NO
Static polarizability (Quad./Quad.)     ...  NO
Static polarizability (Velocity)        ...  NO

Atomic electric properties:
Dipole moment                           ...  NO
Quadrupole moment                       ...  NO
Static polarizability                   ...  NO

Choice of electric origin               ... Center of mass
Position of electric origin             ...     1.290216     0.738923     0.354159

General magnetic properties:
Magnetizability                         ...  NO

EPR properties:
g-Tensor (aka g-matrix)                 ...  NO
Zero-Field splitting spin-orbit         ...  NO
Zero-field splitting spin-spin          ...  NO
Hyperfine couplings                     ...  NO (   0 nuclei)
Quadrupole couplings                    ...  NO (   0 nuclei)
Contact density                         ...  NO (   0 nuclei)

NMR properties:
Chemical shifts                         ...  NO (   0 nuclei)
Spin-rotation constants                 ...  NO (   0 nuclei)
Spin-spin couplings                     ...  NO (   0 nuclei,    0 pairs)

Choice of magnetic origin               ... GIAO
Position of magnetic origin             ...     0.000000     0.000000     0.000000

Properties with geometric perturbations:
SCF Hessian                             ...  NO
IR spectrum                             ...  NO
VCD spectrum                            ...  NO
X-ray spectroscopy properties:
SCF XES/XAS/RIXS spectra                ...  NO


-------------
DIPOLE MOMENT
-------------

Method             : SCF
Type of density    : Electron Density
Multiplicity       :   1
Irrep              :   0
Energy             : -2244.9534177195732809 Eh
Relativity type    : 
Basis              : AO
                                X                 Y                 Z
Electronic contribution:     52.050786819       5.201846387      11.487804545
Nuclear contribution   :    -48.973191054     -15.085057299     -10.280205739
                        -----------------------------------------
Total Dipole Moment    :      3.077595765      -9.883210912       1.207598806
                        -----------------------------------------
Magnitude (a.u.)       :     10.421504138
Magnitude (Debye)      :     26.489358376



--------------------
Rotational spectrum 
--------------------
 
Rotational constants in cm-1:             0.002658             0.002530             0.001411 
Rotational constants in MHz :            79.685825            75.854778            42.299791 

Dipole components along the rotational axes: 
x,y,z [a.u.] :     1.724370   -10.216763    -1.118950 
x,y,z [Debye]:     4.383001   -25.968948    -2.844144 

 

Dipole moment calculation done in   0.1 sec 

Maximum memory used throughout the entire PROP-calculation: 46.8 MB

--------------------------------
SUGGESTED CITATIONS FOR THIS RUN
--------------------------------

Below you find a list of papers that are relevant to this ORCA run
We neither can nor want to force you to cite these papers, but we appreciate if you do
You receive ORCA, which is the product of decades of hard work by many enthusiastic individuals, for free
The only thing we kindly ask in return is that you cite our papers,
We deeply appreciate it, if you show your appreciation for ORCA by not just citing the generic ORCA reference.

Please note that relegating all ORCA citations to the supporting information does *not* help us.
SI sections are not indexed - citations you put there will not count into any citation statistics
But we need these citations in order to attract the funding resources that allow us to do what we are doing

Therefore, if you are a happy ORCA user, please consider citing a few of the papers listed below in the main body of your paper

In addition to the list printed below, the program has created the file /home/nmrbox/aojoawo/Documents/ERDOS/inputs/CHEMBL3682540.bibtex that contains the list in bibtex format
You can import this file easily into all common literature databanks and citation aid programs


List of essential papers. We consider these as the minimum necessary citations

  1. Neese,F.
     Software update: the ORCA program system, version 5.0
     WIRES Comput. Molec. Sci., 2022 12(1)e1606
     doi.org/10.1002/wcms.1606

List of papers to cite with high priority. The work reported in these papers was absolutely
necessary for this run to complete.
Our perspective: the developers of density functionals and basis sets usually get cited in chemistry papers
Good! But without the algorithms to do something with them, the functionals or basis sets would not do anything.
Hence, in our opinion, the algorithm design and method developments papers are equally worthy of getting cited

  1. Neese,F.
     An improvement of the resolution of the identity approximation for the formation of the Coulomb matrix
     J. Comp. Chem., 2003 24(14)1740-1747
     doi.org/10.1002/jcc.10318
  2. Neese,F.; Wennmohs,F.; Hansen,A.; Becker,U.
     Efficient, approximate and parallel Hartree-Fock and hybrid DFT calculations. A 'chain-of-spheres' algorithm for the Hartree-Fock exchange
     Chem. Phys., 2009 356(1-3)98-109
     doi.org/10.1016/j.chemphys.2008.10.036
  3. Helmich-Paris,B.; de Souza,B.; Neese,F.; Izsák,R.
     An improved chain of spheres for exchange algorithm
     J. Chem. Phys., 2021 155 104109
     doi.org/doi: 10.1063/5.0058766.
  4. Neese,F.
     The SHARK Integral Generation and Digestion System
     J. Comp. Chem., 2022  1-16
     doi.org/10.1002/jcc.26942

List of suggested additional citations. These are papers that are important in the 'surrounding' of 
of this run, or papers that preceded the highly important papers. If you like your results we are grateful for a citation.

  1. Izsak,R.; Neese,F.
     An overlap fitted chain of spheres exchange method
     J. Chem. Phys., 2011 135 144105
     doi.org/10.1063/1.3646921
  2. Izsak,R.; Hansen,A.; Neese,F.
     The resolution of identity and chain of spheres approximations for the LPNO-CCSD singles Fock term
     Molec. Phys., 2012 110 2413-2417
     doi.org/10.1080/00268976.2012.687466
  3. Neese,F.
     The ORCA program system
     WIRES Comput. Molec. Sci., 2012 2(1)73-78
     doi.org/10.1002/wcms.81
  4. Izsak,R.; Neese,F.; Klopper,W.
     Robust fitting techniques in the chain of spheres approximation to the Fock exchange: The role of the complementary space
     J. Chem. Phys., 2013 139 
     doi.org/10.1063/1.4819264
  5. Neese,F.
     Software update: the ORCA program system, version 4.0
     WIRES Comput. Molec. Sci., 2018 8(1)1-6
     doi.org/10.1002/wcms.1327
  6. Neese,F.; Wennmohs,F.; Becker,U.; Riplinger,C.
     The ORCA quantum chemistry program package
     J. Chem. Phys., 2020 152 Art. No. L224108
     doi.org/10.1063/5.0004608

List of optional additional citations

  1. Neese,F.
     Approximate second-order SCF convergence for spin unrestricted wavefunctions
     Chem. Phys. Lett., 2000 325(1-3)93-98
     doi.org/10.1016/s0009-2614(00)00662-x

Timings for individual modules:

Sum of individual times          ...      513.615 sec (=   8.560 min)
Startup calculation              ...       10.917 sec (=   0.182 min)   2.1 %
SCF iterations                   ...      502.331 sec (=   8.372 min)  97.8 %
Property calculations            ...        0.368 sec (=   0.006 min)   0.1 %
                             ****ORCA TERMINATED NORMALLY****
TOTAL RUN TIME: 0 days 0 hours 8 minutes 34 seconds 719 msec
