
                                 *****************
                                 * O   R   C   A *
                                 *****************

                                            #,                                       
                                            ###                                      
                                            ####                                     
                                            #####                                    
                                            ######                                   
                                           ########,                                 
                                     ,,################,,,,,                         
                               ,,#################################,,                 
                          ,,##########################################,,             
                       ,#########################################, ''#####,          
                    ,#############################################,,   '####,        
                  ,##################################################,,,,####,       
                ,###########''''           ''''###############################       
              ,#####''   ,,,,##########,,,,          '''####'''          '####       
            ,##' ,,,,###########################,,,                        '##       
           ' ,,###''''                  '''############,,,                           
         ,,##''                                '''############,,,,        ,,,,,,###''
      ,#''                                            '''#######################'''  
     '                                                          ''''####''''         
             ,#######,   #######,   ,#######,      ##                                
            ,#'     '#,  ##    ##  ,#'     '#,    #''#        ,####,   ,####,        
            ##       ##  ##   ,#'  ##            #'  '#       #'       #'  '#        
            ##       ##  #######   ##           ,######,      #####,   #    #        
            '#,     ,#'  ##    ##  '#,     ,#' ,#      #,     #,   #   #,  ,#        
             '#######'   ##     ##  '#######'  #'      '#     '####' # '####'        



                #########################################################
                #                        -***-                          #
                #          Department of theory and spectroscopy        #
                #                                                       #
                #                      Frank Neese                      #
                #                                                       #
                #     Directorship, Architecture, Infrastructure        #
                #                    SHARK, DRIVERS                     #
                #        Core code/Algorithms in most modules           #
                #                                                       #
                #        Max Planck Institute fuer Kohlenforschung      #
                #                Kaiser Wilhelm Platz 1                 #
                #                 D-45470 Muelheim/Ruhr                 #
                #                      Germany                          #
                #                                                       #
                #                  All rights reserved                  #
                #                        -***-                          #
                #########################################################


                         Program Version 6.0.0  -   RELEASE  -


 With contributions from (in alphabetic order):
   Daniel Aravena         : Magnetic Suceptibility
   Michael Atanasov       : Ab Initio Ligand Field Theory (pilot matlab implementation)
   Alexander A. Auer      : GIAO ZORA, VPT2 properties, NMR spectrum
   Ute Becker             : All parallelization in ORCA, NUMFREQ, NUMCALC
   Giovanni Bistoni       : ED, misc. LED, open-shell LED, HFLD
   Martin Brehm           : Molecular dynamics
   Dmytro Bykov           : pre 5.0 version of the SCF Hessian
   Marcos Casanova-Páez   : Triplet and SCS-CIS(D). UHF-(DLPNO)-IP/EA/STEOM-CCSD. UHF-CVS-IP/STEOM-CCSD
   Vijay G. Chilkuri      : MRCI spin determinant printing, contributions to CSF-ICE
   Pauline Colinet        : FMM embedding
   Dipayan Datta          : RHF DLPNO-CCSD density
   Achintya Kumar Dutta   : EOM-CC, STEOM-CC
   Nicolas Foglia         : Exact transition moments, OPA infrastructure, MCD improvements
   Dmitry Ganyushin       : Spin-Orbit,Spin-Spin,Magnetic field MRCI
   Miquel Garcia          : C-PCM and meta-GGA Hessian, CCSD/C-PCM, Gaussian charge scheme
   Tiago L. C. Gouveia    : GS-ROHF, GS-ROCIS
   Yang Guo               : DLPNO-NEVPT2, F12-NEVPT2, CIM, IAO-localization
   Andreas Hansen         : Spin unrestricted coupled pair/coupled cluster methods
   Ingolf Harden          : AUTO-CI MPn and infrastructure 
   Benjamin Helmich-Paris : MC-RPA, TRAH-(SCF,CASSCF), AVAS, COSX integrals, SCF dyn. polar.
   Lee Huntington         : MR-EOM, pCC
   Robert Izsak           : Overlap fitted RIJCOSX, COSX-SCS-MP3, EOM
   Riya Kayal             : Wick's Theorem for AUTO-CI, AUTO-CI UHF-CCSDT
   Emily Kempfer          : AUTO-CI, RHF CISDT and CCSDT
   Christian Kollmar      : KDIIS, OOCD, Brueckner-CCSD(T), CCSD density, CASPT2, CASPT2-K, improved NEVPT2
   Axel Koslowski         : Symmetry handling
   Simone Kossmann        : Meta GGA functionals, TD-DFT gradient, OOMP2, (MP2 Hessian; deprecated post 5.0)
   Lucas Lang             : DCDCAS
   Marvin Lechner         : AUTO-CI (C++ implementation), FIC-MRCC
   Spencer Leger          : CASSCF response
   Dagmar Lenk            : GEPOL surface, SMD, ORCA-2-JSON
   Dimitrios Liakos       : Extrapolation schemes; Compound Job, initial MDCI parallelization
   Dimitrios Manganas     : Further ROCIS development; embedding schemes. LFT, Crystal Embedding
   Dimitrios Pantazis     : SARC Basis sets
   Anastasios Papadopoulos: AUTO-CI, single reference methods and gradients
   Taras Petrenko         : pre 6.0 DFT Hessian and TD-DFT gradient, (ASA, deprecated), ECA, 1-Electron XAS/XES, NRVS
   Peter Pinski           : DLPNO-MP2, DLPNO-MP2 Gradient
   Christoph Reimann      : Effective Core Potentials
   Marius Retegan         : Local ZFS, SOC
   Christoph Riplinger    : Optimizer, TS searches, QM/MM, DLPNO-CCSD(T), (RO)-DLPNO pert. Triples
   Michael Roemelt        : Original ROCIS implementation
   Masaaki Saitow         : Open-shell DLPNO-CCSD energy and density
   Barbara Sandhoefer     : DKH picture change effects
   Kantharuban Sivalingam : CASSCF convergence/infrastructure, NEVPT2 and variants, FIC-MRCI
   Bernardo de Souza      : ESD, SOC TD-DFT
   Georgi Stoychev        : AutoAux, RI-MP2 NMR, DLPNO-MP2 response, X2C
   Van Anh Tran           : RI-MP2 g-tensors
   Willem Van den Heuvel  : Paramagnetic NMR
   Zikuan Wang            : NOTCH, Electric field optimization 
   Frank Wennmohs         : Technical directorship and infrastructure
   Hang Xu                : AUTO-CI-Response properties 


 We gratefully acknowledge several colleagues who have allowed us to
 interface, adapt or use parts of their codes:
   Stefan Grimme, W. Hujo, H. Kruse, P. Pracht,  : VdW corrections, initial TS optimization,
                  C. Bannwarth, S. Ehlert,         DFT functionals, gCP, sTDA/sTD-DF
                  L. Wittmann, M. Mueller
   Ed Valeev, F. Pavosevic, A. Kumar             : LibInt (2-el integral package), F12 methods
   Garnet Chan, S. Sharma, J. Yang, R. Olivares  : DMRG
   Ulf Ekstrom                                   : XCFun DFT Library
   Mihaly Kallay                                 : mrcc  (arbitrary order and MRCC methods)
   Frank Weinhold                                : gennbo (NPA and NBO analysis)
   Simon Mueller                                 : openCOSMO-RS
   Christopher J. Cramer and Donald G. Truhlar   : smd solvation model
   Lars Goerigk                                  : TD-DFT with DH, B97 family of functionals
   V. Asgeirsson, H. Jonsson                     : NEB implementation
   FAccTs GmbH                                   : IRC, NEB, NEB-TS, DLPNO-Multilevel, CI-OPT
                                                   MM, QMMM, 2- and 3-layer-ONIOM, Crystal-QMMM,
                                                   LR-CPCM, SF, NACMEs, symmetry and pop. for TD-DFT,
                                                   nearIR, NL-DFT gradient (VV10), updates on ESD,
                                                   ML-optimized integration grids, MBIS, APM,
                                                   GOAT, DOCKER, SOLVATOR, interface openCOSMO-RS
   S Lehtola, MJT Oliveira, MAL Marques          : LibXC Library
   Liviu Ungur et al                             : ANISO software


 Your calculation uses the libint2 library for the computation of 2-el integrals
 For citations please refer to: http://libint.valeyev.net

 Your ORCA version has been built with support for libXC version: 6.2.2
 For citations please refer to: https://libxc.gitlab.io

 This ORCA versions uses:
   CBLAS   interface :  Fast vector & matrix operations
   LAPACKE interface :  Fast linear algebra routines
   SCALAPACK package :  Parallel linear algebra routines
   Shared memory     :  Shared parallel matrices
   BLAS/LAPACK       :  OpenBLAS 0.3.27  USE64BITINT DYNAMIC_ARCH NO_AFFINITY SkylakeX SINGLE_THREADED
        Core in use  :  SkylakeX
   Copyright (c) 2011-2014, The OpenBLAS Project


Warning: RI is on but no J-basis has been assigned. Assigning Def2/J (nothing to worry about!)
================================================================================

----- Orbital basis set information -----
Your calculation utilizes the basis: 6-31G*
   H-He, Li-Ne : W. J. Hehre, R. Ditchfield and J.A. Pople, J. Chem. Phys. 56, 2257 (1972).
                 Note: He and Ne are unpublished basis sets taken from the Gaussian program.
                 Note: Li and B from J. D. Dill and J. A. Pople, J. Chem. Phys. 62, 2921 (1975).
   Na - Ar     : M. M. Francl, W. J. Pietro, W. J. Hehre, J. S. Binkley, M. S. Gordon, 
                 D. J. DeFrees and J. A. Pople, J. Chem. Phys. 77, 3654 (1982).
   K - Zn      : V. A. Rassolov, J. A. Pople, M. A. Ratner, and T. L. Windus, J. Chem. Phys. 109, 1223 (1998).

----- AuxJ basis set information -----
Your calculation utilizes the auxiliary basis: def2/J
   F. Weigend, Phys. Chem. Chem. Phys. 8, 1057 (2006).

================================================================================
                                        WARNINGS
                       Please study these warnings very carefully!
================================================================================


================================================================================
                                       INPUT FILE
================================================================================
NAME = /home/nmrbox/aojoawo/Documents/ERDOS/inputs/CHEMBL3577890.inp
|  1> ! B3LYP 6-31G* SP
|  2> 
|  3> * xyz 0 1
|  4> C -0.0558 -1.1929 -3.5804
|  5> C -0.2030 -1.0540 -2.0588
|  6> C -1.2414 -1.9980 -1.4624
|  7> C -1.0416 -2.5094 -0.1663
|  8> C -2.0028 -3.3277 0.4336
|  9> C -3.1742 -3.6522 -0.2527
| 10> F -4.1062 -4.4446 0.3318
| 11> C -3.3848 -3.1607 -1.5422
| 12> C -2.4294 -2.3371 -2.1451
| 13> N -0.4624 0.3560 -1.6994
| 14> C -1.8180 0.9284 -1.7353
| 15> C -2.4310 0.8747 -0.3662
| 16> C -3.6497 0.2196 -0.1419
| 17> C -4.1656 0.1601 1.1529
| 18> C -3.4734 0.7571 2.2078
| 19> C -2.2621 1.4180 1.9499
| 20> C -1.4872 2.0533 3.0289
| 21> O -1.9087 2.0415 4.2172
| 22> O -0.2738 2.6687 2.7351
| 23> N -1.7829 1.4604 0.6773
| 24> C 0.6560 1.2549 -1.5765
| 25> O 0.7504 2.2313 -2.3690
| 26> C 1.6967 1.0528 -0.5421
| 27> C 1.4172 0.3344 0.6316
| 28> N 2.3730 0.1672 1.5832
| 29> C 3.6224 0.6821 1.4425
| 30> C 4.5813 0.4851 2.4429
| 31> C 5.8651 1.0197 2.2959
| 32> C 6.1945 1.7531 1.1512
| 33> C 5.2422 1.9558 0.1469
| 34> C 3.9520 1.4221 0.2864
| 35> C 2.9773 1.6068 -0.7019
| 36> H 0.8516 -0.6487 -3.9185
| 37> H 0.0553 -2.2619 -3.8619
| 38> H -0.9289 -0.7597 -4.1109
| 39> H 0.7834 -1.3554 -1.6395
| 40> H -0.1377 -2.2823 0.3820
| 41> H -1.8370 -3.7111 1.4321
| 42> H -4.2945 -3.4094 -2.0739
| 43> H -2.6327 -1.9599 -3.1374
| 44> H -2.4454 0.3920 -2.4766
| 45> H -1.7898 1.9877 -2.0702
| 46> H -4.1901 -0.2466 -0.9558
| 47> H -5.1011 -0.3513 1.3396
| 48> H -3.8792 0.7024 3.2103
| 49> H 0.2780 3.1058 3.4636
| 50> H 0.4337 -0.0744 0.8051
| 51> H 4.3344 -0.0803 3.3330
| 52> H 6.6060 0.8657 3.0698
| 53> H 7.1896 2.1647 1.0422
| 54> H 5.5125 2.5262 -0.7337
| 55> H 3.2179 2.1700 -1.5964
| 56> *
| 57> 
| 58>                          ****END OF INPUT****
================================================================================

                       ****************************
                       * Single Point Calculation *
                       ****************************

---------------------------------
CARTESIAN COORDINATES (ANGSTROEM)
---------------------------------
  C     -0.055800   -1.192900   -3.580400
  C     -0.203000   -1.054000   -2.058800
  C     -1.241400   -1.998000   -1.462400
  C     -1.041600   -2.509400   -0.166300
  C     -2.002800   -3.327700    0.433600
  C     -3.174200   -3.652200   -0.252700
  F     -4.106200   -4.444600    0.331800
  C     -3.384800   -3.160700   -1.542200
  C     -2.429400   -2.337100   -2.145100
  N     -0.462400    0.356000   -1.699400
  C     -1.818000    0.928400   -1.735300
  C     -2.431000    0.874700   -0.366200
  C     -3.649700    0.219600   -0.141900
  C     -4.165600    0.160100    1.152900
  C     -3.473400    0.757100    2.207800
  C     -2.262100    1.418000    1.949900
  C     -1.487200    2.053300    3.028900
  O     -1.908700    2.041500    4.217200
  O     -0.273800    2.668700    2.735100
  N     -1.782900    1.460400    0.677300
  C      0.656000    1.254900   -1.576500
  O      0.750400    2.231300   -2.369000
  C      1.696700    1.052800   -0.542100
  C      1.417200    0.334400    0.631600
  N      2.373000    0.167200    1.583200
  C      3.622400    0.682100    1.442500
  C      4.581300    0.485100    2.442900
  C      5.865100    1.019700    2.295900
  C      6.194500    1.753100    1.151200
  C      5.242200    1.955800    0.146900
  C      3.952000    1.422100    0.286400
  C      2.977300    1.606800   -0.701900
  H      0.851600   -0.648700   -3.918500
  H      0.055300   -2.261900   -3.861900
  H     -0.928900   -0.759700   -4.110900
  H      0.783400   -1.355400   -1.639500
  H     -0.137700   -2.282300    0.382000
  H     -1.837000   -3.711100    1.432100
  H     -4.294500   -3.409400   -2.073900
  H     -2.632700   -1.959900   -3.137400
  H     -2.445400    0.392000   -2.476600
  H     -1.789800    1.987700   -2.070200
  H     -4.190100   -0.246600   -0.955800
  H     -5.101100   -0.351300    1.339600
  H     -3.879200    0.702400    3.210300
  H      0.278000    3.105800    3.463600
  H      0.433700   -0.074400    0.805100
  H      4.334400   -0.080300    3.333000
  H      6.606000    0.865700    3.069800
  H      7.189600    2.164700    1.042200
  H      5.512500    2.526200   -0.733700
  H      3.217900    2.170000   -1.596400

----------------------------
CARTESIAN COORDINATES (A.U.)
----------------------------
  NO LB      ZA    FRAG     MASS         X           Y           Z
   0 C     6.0000    0    12.011   -0.105447   -2.254254   -6.765975
   1 C     6.0000    0    12.011   -0.383614   -1.991771   -3.890568
   2 C     6.0000    0    12.011   -2.345906   -3.775673   -2.763535
   3 C     6.0000    0    12.011   -1.968339   -4.742079   -0.314261
   4 C     6.0000    0    12.011   -3.784744   -6.288442    0.819385
   5 C     6.0000    0    12.011   -5.998369   -6.901658   -0.477534
   6 F     9.0000    0    18.998   -7.759593   -8.399077    0.627011
   7 C     6.0000    0    12.011   -6.396345   -5.972857   -2.914336
   8 C     6.0000    0    12.011   -4.590901   -4.416479   -4.053652
   9 N     7.0000    0    14.007   -0.873809    0.672743   -3.211401
  10 C     6.0000    0    12.011   -3.435522    1.754422   -3.279242
  11 C     6.0000    0    12.011   -4.593924    1.652943   -0.692018
  12 C     6.0000    0    12.011   -6.896933    0.414984   -0.268152
  13 C     6.0000    0    12.011   -7.871843    0.302545    2.178665
  14 C     6.0000    0    12.011   -6.563775    1.430712    4.172137
  15 C     6.0000    0    12.011   -4.274749    2.679632    3.684777
  16 C     6.0000    0    12.011   -2.810401    3.880175    5.723791
  17 O     8.0000    0    15.999   -3.606920    3.857876    7.969353
  18 O     8.0000    0    15.999   -0.517407    5.043112    5.168590
  19 N     7.0000    0    14.007   -3.369193    2.759756    1.279912
  20 C     6.0000    0    12.011    1.239660    2.371417   -2.979153
  21 O     8.0000    0    15.999    1.418050    4.216546   -4.476761
  22 C     6.0000    0    12.011    3.206298    1.989504   -1.024421
  23 C     6.0000    0    12.011    2.678120    0.631924    1.193551
  24 N     7.0000    0    14.007    4.484320    0.315962    2.991814
  25 C     6.0000    0    12.011    6.845344    1.288982    2.725930
  26 C     6.0000    0    12.011    8.657402    0.916706    4.616412
  27 C     6.0000    0    12.011   11.083433    1.926954    4.338622
  28 C     6.0000    0    12.011   11.705909    3.312879    2.175453
  29 C     6.0000    0    12.011    9.906322    3.695926    0.277601
  30 C     6.0000    0    12.011    7.468198    2.687380    0.541218
  31 C     6.0000    0    12.011    5.626282    3.036412   -1.326399
  32 H     1.0000    0     1.008    1.609291   -1.225865   -7.404892
  33 H     1.0000    0     1.008    0.104502   -4.274372   -7.297933
  34 H     1.0000    0     1.008   -1.755367   -1.435625   -7.768475
  35 H     1.0000    0     1.008    1.480411   -2.561335   -3.098206
  36 H     1.0000    0     1.008   -0.260215   -4.312922    0.721875
  37 H     1.0000    0     1.008   -3.471427   -7.012963    2.706277
  38 H     1.0000    0     1.008   -8.115429   -6.442832   -3.919103
  39 H     1.0000    0     1.008   -4.975082   -3.703674   -5.928827
  40 H     1.0000    0     1.008   -4.621136    0.740773   -4.680096
  41 H     1.0000    0     1.008   -3.382232    3.756209   -3.912111
  42 H     1.0000    0     1.008   -7.918141   -0.466006   -1.806200
  43 H     1.0000    0     1.008   -9.639682   -0.663861    2.531477
  44 H     1.0000    0     1.008   -7.330626    1.327344    6.066588
  45 H     1.0000    0     1.008    0.525344    5.869111    6.545255
  46 H     1.0000    0     1.008    0.819574   -0.140596    1.521419
  47 H     1.0000    0     1.008    8.190829   -0.151745    6.298457
  48 H     1.0000    0     1.008   12.483531    1.635936    5.801081
  49 H     1.0000    0     1.008   13.586375    4.090690    1.969473
  50 H     1.0000    0     1.008   10.417115    4.773826   -1.386492
  51 H     1.0000    0     1.008    6.080950    4.100706   -3.016759

--------------------------------
INTERNAL COORDINATES (ANGSTROEM)
--------------------------------
 C      0   0   0     0.000000000000     0.00000000     0.00000000
 C      1   0   0     1.535000850163     0.00000000     0.00000000
 C      2   1   0     1.524829013365   113.39048551     0.00000000
 C      3   2   1     1.407595542050   119.23576703   147.08849809
 C      4   3   2     1.397640991099   120.68521362   177.05234362
 C      5   4   3     1.395881764334   120.14612663     0.27245424
 F      6   5   4     1.355788335250   120.05161703   180.09389914
 C      6   5   4     1.395970938093   119.92817485     0.13937418
 C      8   6   5     1.398068142116   120.17644777   359.58858249
 N      2   1   3     1.478024600607   110.13257638   233.49762585
 C     10   2   1     1.471931360492   121.78156719    84.10643826
 C     11  10   2     1.501028813847   109.87396102    95.76400483
 C     12  11  10     1.401676207260   121.18169129   236.92561487
 C     13  12  11     1.395062758445   119.33959151   178.17208416
 C     14  13  12     1.395838045763   119.98696123     0.41808839
 C     15  14  13     1.403762412234   119.36883660     0.23509572
 C     16  15  14     1.472520661994   121.50622151   180.56168099
 O     17  16  15     1.260895864059   120.70488884   358.62105651
 O     17  16  15     1.391896246133   119.65903960   178.35581109
 N     16  15  14     1.360492984179   119.37067526   359.77274971
 C     10   2   1     1.440119501986   118.67960032   276.87340281
 O     21  10   2     1.261080715101   119.19491724   116.23728277
 C     21  10   2     1.481176647129   121.33796977   296.40675413
 C     23  21  10     1.404204579112   120.90920295   336.05411657
 N     24  23  21     1.359062927167   120.54446728   180.79798422
 C     25  24  23     1.358645965658   121.84305382     0.07393799
 C     26  25  24     1.399677952245   120.17496434   180.20143515
 C     27  26  25     1.398409310610   119.99998242   180.16845436
 C     28  27  26     1.398827369621   120.17479693     0.06585588
 C     29  28  27     1.398778420623   120.21223264     0.00000000
 C     30  29  28     1.403179240154   119.96657424     0.00000000
 C     31  30  29     1.400318203124   121.31071397   180.05705009
 H      1   2   3     1.110783511761   109.61676385   192.08839761
 H      1   2   3     1.111011458087   110.35385393   311.17759522
 H      1   2   3     1.109682882629   111.29161965    72.91097524
 H      2   1   3     1.113390951104   105.29897488   116.36760946
 H      4   3   2     1.081315176070   120.61413466   356.61351303
 H      5   4   3     1.082352738251   119.86884412   180.19813892
 H      8   6   5     1.082640600569   119.96964687   180.19298250
 H      9   8   6     1.080865403276   118.22599791   181.07659911
 H     11  10   2     1.109450949795   110.43182791   332.77201901
 H     11  10   2     1.111336915611   110.77190926   215.78148873
 H     13  12  11     1.082500720554   120.99824112   358.69674255
 H     14  13  12     1.082380293612   119.99113632   180.58552385
 H     15  14  13     1.082899801459   119.48529841   180.25643065
 H     19  17  16     1.013040917239   120.91867978   180.43632256
 H     24  23  21     1.079116277331   120.63763922   359.32394287
 H     27  26  25     1.083011902058   120.31270550     0.15215132
 H     28  27  26     1.082390881336   119.92410498   180.06597319
 H     29  28  27     1.082367576196   119.88658259   180.00602036
 H     30  29  28     1.083454941380   119.34051253   179.98945341
 H     32  31  30     1.084072345372   119.76151980     0.16192854

---------------------------
INTERNAL COORDINATES (A.U.)
---------------------------
 C      0   0   0     0.000000000000     0.00000000     0.00000000
 C      1   0   0     2.900731222144     0.00000000     0.00000000
 C      2   1   0     2.881509236317   113.39048551     0.00000000
 C      3   2   1     2.659970081804   119.23576703   147.08849809
 C      4   3   2     2.641158706719   120.68521362   177.05234362
 C      5   4   3     2.637834249926   120.14612663     0.27245424
 F      6   5   4     2.562068649188   120.05161703   180.09389914
 C      6   5   4     2.638002763909   119.92817485     0.13937418
 C      8   6   5     2.641965905160   120.17644777   359.58858249
 N      2   1   3     2.793061714346   110.13257638   233.49762585
 C     10   2   1     2.781547159260   121.78156719    84.10643826
 C     11  10   2     2.836533377296   109.87396102    95.76400483
 C     12  11  10     2.648784160156   121.18169129   236.92561487
 C     13  12  11     2.636286553094   119.33959151   178.17208416
 C     14  13  12     2.637751633800   119.98696123     0.41808839
 C     15  14  13     2.652726516214   119.36883660     0.23509572
 C     16  15  14     2.782660777710   121.50622151   180.56168099
 O     17  16  15     2.382747866465   120.70488884   358.62105651
 O     17  16  15     2.630302712025   119.65903960   178.35581109
 N     16  15  14     2.570959147219   119.37067526   359.77274971
 C     10   2   1     2.721431458872   118.67960032   276.87340281
 O     21  10   2     2.383097184311   119.19491724   116.23728277
 C     21  10   2     2.799018219033   121.33796977   296.40675413
 C     23  21  10     2.653562090520   120.90920295   336.05411657
 N     24  23  21     2.568256731111   120.54446728   180.79798422
 C     25  24  23     2.567468788051   121.84305382     0.07393799
 C     26  25  24     2.645008005430   120.17496434   180.20143515
 C     27  26  25     2.642610620178   119.99998242   180.16845436
 C     28  27  26     2.643400637217   120.17479693     0.06585588
 C     29  28  27     2.643308137016   120.21223264     0.00000000
 C     30  29  28     2.651624480695   119.96657424     0.00000000
 C     31  30  29     2.646217904249   121.31071397   180.05705009
 H      1   2   3     2.099076631304   109.61676385   192.08839761
 H      1   2   3     2.099507387432   110.35385393   311.17759522
 H      1   2   3     2.096996743669   111.29161965    72.91097524
 H      2   1   3     2.104003977572   105.29897488   116.36760946
 H      4   3   2     2.043389547226   120.61413466   356.61351303
 H      5   4   3     2.045350255595   119.86884412   180.19813892
 H      8   6   5     2.045894236539   119.96964687   180.19298250
 H      9   8   6     2.042539599823   118.22599791   181.07659911
 H     11  10   2     2.096558454130   110.43182791   332.77201901
 H     11  10   2     2.100122413022   110.77190926   215.78148873
 H     13  12  11     2.045629901620   120.99824112   358.69674255
 H     14  13  12     2.045402327680   119.99113632   180.58552385
 H     15  14  13     2.046384055235   119.48529841   180.25643065
 H     19  17  16     1.914369896038   120.91867978   180.43632256
 H     24  23  21     2.039234230812   120.63763922   359.32394287
 H     27  26  25     2.046595894667   120.31270550     0.15215132
 H     28  27  26     2.045422335579   119.92410498   180.06597319
 H     29  28  27     2.045378295246   119.88658259   180.00602036
 H     30  29  28     2.047433117651   119.34051253   179.98945341
 H     32  31  30     2.048599842110   119.76151980     0.16192854

---------------------
BASIS SET INFORMATION
---------------------
There are 5 groups of distinct atoms

 Group   1 Type C   : 10s4p1d contracted to 3s2p1d pattern {631/31/1}
 Group   2 Type F   : 10s4p1d contracted to 3s2p1d pattern {631/31/1}
 Group   3 Type N   : 10s4p1d contracted to 3s2p1d pattern {631/31/1}
 Group   4 Type O   : 10s4p1d contracted to 3s2p1d pattern {631/31/1}
 Group   5 Type H   : 4s contracted to 2s pattern {31}

Atom   0C    basis set group =>   1
Atom   1C    basis set group =>   1
Atom   2C    basis set group =>   1
Atom   3C    basis set group =>   1
Atom   4C    basis set group =>   1
Atom   5C    basis set group =>   1
Atom   6F    basis set group =>   2
Atom   7C    basis set group =>   1
Atom   8C    basis set group =>   1
Atom   9N    basis set group =>   3
Atom  10C    basis set group =>   1
Atom  11C    basis set group =>   1
Atom  12C    basis set group =>   1
Atom  13C    basis set group =>   1
Atom  14C    basis set group =>   1
Atom  15C    basis set group =>   1
Atom  16C    basis set group =>   1
Atom  17O    basis set group =>   4
Atom  18O    basis set group =>   4
Atom  19N    basis set group =>   3
Atom  20C    basis set group =>   1
Atom  21O    basis set group =>   4
Atom  22C    basis set group =>   1
Atom  23C    basis set group =>   1
Atom  24N    basis set group =>   3
Atom  25C    basis set group =>   1
Atom  26C    basis set group =>   1
Atom  27C    basis set group =>   1
Atom  28C    basis set group =>   1
Atom  29C    basis set group =>   1
Atom  30C    basis set group =>   1
Atom  31C    basis set group =>   1
Atom  32H    basis set group =>   5
Atom  33H    basis set group =>   5
Atom  34H    basis set group =>   5
Atom  35H    basis set group =>   5
Atom  36H    basis set group =>   5
Atom  37H    basis set group =>   5
Atom  38H    basis set group =>   5
Atom  39H    basis set group =>   5
Atom  40H    basis set group =>   5
Atom  41H    basis set group =>   5
Atom  42H    basis set group =>   5
Atom  43H    basis set group =>   5
Atom  44H    basis set group =>   5
Atom  45H    basis set group =>   5
Atom  46H    basis set group =>   5
Atom  47H    basis set group =>   5
Atom  48H    basis set group =>   5
Atom  49H    basis set group =>   5
Atom  50H    basis set group =>   5
Atom  51H    basis set group =>   5
---------------------------------
AUXILIARY/J BASIS SET INFORMATION
---------------------------------
There are 5 groups of distinct atoms

 Group   1 Type C   : 12s5p4d2f1g contracted to 6s4p3d1f1g pattern {711111/2111/211/2/1}
 Group   2 Type F   : 12s5p4d2f1g contracted to 6s4p3d1f1g pattern {711111/2111/211/2/1}
 Group   3 Type N   : 12s5p4d2f1g contracted to 6s4p3d1f1g pattern {711111/2111/211/2/1}
 Group   4 Type O   : 12s5p4d2f1g contracted to 6s4p3d1f1g pattern {711111/2111/211/2/1}
 Group   5 Type H   : 5s2p1d contracted to 3s1p1d pattern {311/2/1}

Atom   0C    basis set group =>   1
Atom   1C    basis set group =>   1
Atom   2C    basis set group =>   1
Atom   3C    basis set group =>   1
Atom   4C    basis set group =>   1
Atom   5C    basis set group =>   1
Atom   6F    basis set group =>   2
Atom   7C    basis set group =>   1
Atom   8C    basis set group =>   1
Atom   9N    basis set group =>   3
Atom  10C    basis set group =>   1
Atom  11C    basis set group =>   1
Atom  12C    basis set group =>   1
Atom  13C    basis set group =>   1
Atom  14C    basis set group =>   1
Atom  15C    basis set group =>   1
Atom  16C    basis set group =>   1
Atom  17O    basis set group =>   4
Atom  18O    basis set group =>   4
Atom  19N    basis set group =>   3
Atom  20C    basis set group =>   1
Atom  21O    basis set group =>   4
Atom  22C    basis set group =>   1
Atom  23C    basis set group =>   1
Atom  24N    basis set group =>   3
Atom  25C    basis set group =>   1
Atom  26C    basis set group =>   1
Atom  27C    basis set group =>   1
Atom  28C    basis set group =>   1
Atom  29C    basis set group =>   1
Atom  30C    basis set group =>   1
Atom  31C    basis set group =>   1
Atom  32H    basis set group =>   5
Atom  33H    basis set group =>   5
Atom  34H    basis set group =>   5
Atom  35H    basis set group =>   5
Atom  36H    basis set group =>   5
Atom  37H    basis set group =>   5
Atom  38H    basis set group =>   5
Atom  39H    basis set group =>   5
Atom  40H    basis set group =>   5
Atom  41H    basis set group =>   5
Atom  42H    basis set group =>   5
Atom  43H    basis set group =>   5
Atom  44H    basis set group =>   5
Atom  45H    basis set group =>   5
Atom  46H    basis set group =>   5
Atom  47H    basis set group =>   5
Atom  48H    basis set group =>   5
Atom  49H    basis set group =>   5
Atom  50H    basis set group =>   5
Atom  51H    basis set group =>   5
------------------------------------------------------------------------------
                             ORCA STARTUP CALCULATIONS
                           -- RI-GTO INTEGRALS CHOSEN --
------------------------------------------------------------------------------
------------------------------------------------------------------------------
                   ___                                                        
                  /   \      - P O W E R E D   B Y -                         
                 /     \                                                     
                 |  |  |   _    _      __       _____    __    __             
                 |  |  |  | |  | |    /  \     |  _  \  |  |  /  |          
                  \  \/   | |  | |   /    \    | | | |  |  | /  /          
                 / \  \   | |__| |  /  /\  \   | |_| |  |  |/  /          
                |  |  |   |  __  | /  /__\  \  |    /   |      \           
                |  |  |   | |  | | |   __   |  |    \   |  |\   \          
                \     /   | |  | | |  |  |  |  | |\  \  |  | \   \       
                 \___/    |_|  |_| |__|  |__|  |_| \__\ |__|  \__/        
                                                                              
                      - O R C A' S   B I G   F R I E N D -                    
                                      &                                       
                       - I N T E G R A L  F E E D E R -                       
                                                                              
 v1 FN, 2020, v2 2021, v3 2022-2024                                           
------------------------------------------------------------------------------


----------------------
SHARK INTEGRAL PACKAGE
----------------------

Number of atoms                             ...     52
Number of basis functions                   ...    488
Number of shells                            ...    232
Maximum angular momentum                    ...      2
Integral batch strategy                     ... SHARK/LIBINT Hybrid
RI-J (if used) integral strategy            ... SPLIT-RIJ (Revised 2003 algorithm where possible)
Printlevel                                  ...      1
Contraction scheme used                     ... SEGMENTED contraction
Prescreening option                         ... SCHWARTZ
   Thresh                                   ... 1.000e-10
   Tcut                                     ... 1.000e-11
   Tpresel                                  ... 1.000e-11 
Coulomb Range Separation                    ... NOT USED
Exchange Range Separation                   ... NOT USED
Multipole approximations                    ... NOT USED
Finite Nucleus Model                        ... NOT USED
CABS basis                                  ... NOT available
Auxiliary Coulomb fitting basis             ... AVAILABLE
   # of basis functions in Aux-J            ...   1788
   # of shells in Aux-J                     ...    580
   Maximum angular momentum in Aux-J        ...      4
Auxiliary J/K fitting basis                 ... NOT available
Auxiliary Correlation fitting basis         ... NOT available
Auxiliary 'external' fitting basis          ... NOT available

Checking pre-screening integrals            ... done (  0.0 sec) Dimension = 232
Check shell pair data                       ... done (  0.0 sec)
Shell pair information
Shell pair cut-off parameter TPreSel        ...   1.0e-11
Total number of shell pairs                 ...     27028
Shell pairs after pre-screening             ...     16843
Total number of primitive shell pairs       ...    157812
Primitive shell pairs kept                  ...     50342
          la=0 lb=0:   5407 shell pairs
          la=1 lb=0:   5951 shell pairs
          la=1 lb=1:   1634 shell pairs
          la=2 lb=0:   2269 shell pairs
          la=2 lb=1:   1336 shell pairs
          la=2 lb=2:    246 shell pairs

Calculating one electron integrals          ... done (  0.2 sec)
Calculating RI/J V-Matrix + Cholesky decomp.... done (  0.4 sec)
Calculating Nuclear repulsion               ... done (  0.0 sec) ENN=   3129.821935944295 Eh

Diagonalization of the overlap matrix:
Smallest eigenvalue                        ... 3.911e-04
Time for diagonalization                   ...    0.034 sec
Threshold for overlap eigenvalues          ... 1.000e-07
Number of eigenvalues below threshold      ... 0
Time for construction of square roots      ...    0.030 sec
Total time needed                          ...    0.072 sec

-------------------
DFT GRID GENERATION
-------------------

General Integration Accuracy     IntAcc      ... 4.388
Radial Grid Type                 RadialGrid  ... OptM3 with GC (2021)
Angular Grid (max. ang.)         AngularGrid ... 4 (Lebedev-302)
Angular grid pruning method      GridPruning ... 4 (adaptive)
Weight generation scheme         WeightScheme... mBecke (2022)
Basis function cutoff            BFCut       ... 1.0000e-10
Integration weight cutoff        WCut        ... 1.0000e-14
Partially contracted basis set               ... off
Rotationally invariant grid construction     ... off
Angular grids for H and He will be reduced by one unit

Total number of grid points                  ...   254138
Total number of batches                      ...     3997
Average number of points per batch           ...       63
Average number of grid points per atom       ...     4887

--------------------
COSX GRID GENERATION
--------------------

GRIDX 1
-------
General Integration Accuracy     IntAcc      ... 3.816
Radial Grid Type                 RadialGrid  ... OptM3 with GC (2021)
Angular Grid (max. ang.)         AngularGrid ... 1 (Lebedev-50)
Angular grid pruning method      GridPruning ... 4 (adaptive)
Weight generation scheme         WeightScheme... mBecke (2022)
Basis function cutoff            BFCut       ... 1.0000e-10
Integration weight cutoff        WCut        ... 1.0000e-14
Partially contracted basis set               ... on
Rotationally invariant grid construction     ... off
Angular grids for H and He will be reduced by one unit

Total number of grid points                  ...    32215
Total number of batches                      ...      279
Average number of points per batch           ...      115
Average number of grid points per atom       ...      620
UseSFitting                                  ... on

GRIDX 2
-------
General Integration Accuracy     IntAcc      ... 4.020
Radial Grid Type                 RadialGrid  ... OptM3 with GC (2021)
Angular Grid (max. ang.)         AngularGrid ... 2 (Lebedev-110)
Angular grid pruning method      GridPruning ... 4 (adaptive)
Weight generation scheme         WeightScheme... mBecke (2022)
Basis function cutoff            BFCut       ... 1.0000e-10
Integration weight cutoff        WCut        ... 1.0000e-14
Partially contracted basis set               ... on
Rotationally invariant grid construction     ... off
Angular grids for H and He will be reduced by one unit

Total number of grid points                  ...    70368
Total number of batches                      ...      580
Average number of points per batch           ...      121
Average number of grid points per atom       ...     1353
UseSFitting                                  ... on

GRIDX 3
-------
General Integration Accuracy     IntAcc      ... 4.338
Radial Grid Type                 RadialGrid  ... OptM3 with GC (2021)
Angular Grid (max. ang.)         AngularGrid ... 3 (Lebedev-194)
Angular grid pruning method      GridPruning ... 4 (adaptive)
Weight generation scheme         WeightScheme... mBecke (2022)
Basis function cutoff            BFCut       ... 1.0000e-10
Integration weight cutoff        WCut        ... 1.0000e-14
Partially contracted basis set               ... on
Rotationally invariant grid construction     ... off
Angular grids for H and He will be reduced by one unit

Total number of grid points                  ...   153652
Total number of batches                      ...     1223
Average number of points per batch           ...      125
Average number of grid points per atom       ...     2955
UseSFitting                                  ... on
Initializing property integral containers    ... done (  0.0 sec)

SHARK setup successfully completed in  11.2 seconds

Maximum memory used throughout the entire STARTUP-calculation: 111.6 MB
-------------------------------------------------------------------------------
                                 ORCA GUESS
                   Start orbitals & Density for SCF / CASSCF
-------------------------------------------------------------------------------

------------
SCF SETTINGS
------------
Hamiltonian:
 Density Functional     Method          .... DFT(GTOs)
 Exchange Functional    Exchange        .... B88
   X-Alpha parameter    XAlpha          ....  0.666667
   Becke's b parameter  XBeta           ....  0.004200
 Correlation Functional Correlation     .... LYP
 LDA part of GGA corr.  LDAOpt          .... VWN-5
 Gradients option       PostSCFGGA      .... off
 Hybrid DFT is turned on
   Fraction HF Exchange ScalHFX         ....  0.200000
   Scaling of DF-GGA-X  ScalDFX         ....  0.720000
   Scaling of DF-GGA-C  ScalDFC         ....  0.810000
   Scaling of DF-LDA-C  ScalLDAC        ....  1.000000
   Perturbative correction              ....  0.000000
   NL short-range parameter             ....  4.800000
 RI-approximation to the Coulomb term is turned on
   Number of AuxJ basis functions       .... 1788
   RIJ-COSX (HFX calculated with COS-X)).... on


General Settings:
 Integral files         IntName         .... /home/nmrbox/aojoawo/Documents/ERDOS/inputs/CHEMBL3577890
 Hartree-Fock type      HFTyp           .... RHF
 Total Charge           Charge          ....    0
 Multiplicity           Mult            ....    1
 Number of Electrons    NEL             ....  224
 Basis Dimension        Dim             ....  488
 Nuclear Repulsion      ENuc            ....   3129.8219359443 Eh

Convergence Acceleration:
 AO-DIIS                CNVDIIS         .... on
   Start iteration      DIISMaxIt       ....    12
   Startup error        DIISStart       ....  0.200000
   # of expansion vecs  DIISMaxEq       ....     5
   Bias factor          DIISBfac        ....   1.050
   Max. coefficient     DIISMaxC        ....  10.000
 MO-DIIS                CNVKDIIS        .... off
 Trust-Rad. Augm. Hess. CNVTRAH         .... auto
   Auto Start mean grad. ratio tolernc. ....  1.125000
   Auto Start start iteration           ....    50
   Auto Start num. interpolation iter.  ....    10
   Max. Number of Micro iterations      ....    24
   Max. Number of Macro iterations      .... Maxiter - #DIIS iter
   Number of Davidson start vectors     ....     2
   Converg. threshold    (grad. norm)   ....   5.000e-05
   Grad. Scal. Fac. for Micro threshold ....   0.100
   Minimum threshold for Micro iter.    ....   1.000e-02
   NR start threshold (gradient norm)   ....   1.000e-04
   Initial trust radius                 ....   0.400
   Minimum AH scaling param. (alpha)    ....   1.000
   Maximum AH scaling param. (alpha)    .... 1000.000
   Quad. conv. algorithm                .... NR
   White noise on init. David. guess    .... on
   Maximum white noise                  ....   0.010
   Pseudo random numbers                .... off
   Inactive MOs                         .... canonical
   Orbital update algorithm             .... Taylor
   Preconditioner                       .... Diag
   Full preconditioner red. dimension   ....   250
 SOSCF                  CNVSOSCF        .... on
   Start iteration      SOSCFMaxIt      ....   150
   Startup grad/error   SOSCFStart      ....  0.003300
   Hessian update       SOSCFHessUp     .... L-BFGS
 Level Shifting         CNVShift        .... on
   Level shift para.    LevelShift      ....    0.2500
   Turn off err/grad.   ShiftErr        ....    0.0010
 Zerner damping         CNVZerner       .... off
 Static damping         CNVDamp         .... on
   Fraction old density DampFac         ....    0.7000
   Max. Damping (<1)    DampMax         ....    0.9800
   Min. Damping (>=0)   DampMin         ....    0.0000
   Turn off err/grad.   DampErr         ....    0.1000

SCF Procedure:
 Maximum # iterations   MaxIter         ....   125
 SCF integral mode      SCFMode         .... Direct
   Integral package                     .... SHARK and LIBINT hybrid scheme
 Reset frequency        DirectResetFreq ....    20
 Integral Threshold     Thresh          ....  1.000e-10 Eh
 Primitive CutOff       TCut            ....  1.000e-11 Eh

Convergence Tolerance:
 Convergence Check Mode ConvCheckMode   .... Total+1el-Energy
 Convergence forced     ConvForced      .... 0
 Energy Change          TolE            ....  1.000e-06 Eh
 1-El. energy change                    ....  1.000e-03 Eh
 Orbital Gradient       TolG            ....  5.000e-05
 Orbital Rotation angle TolX            ....  5.000e-05
 DIIS Error             TolErr          ....  1.000e-06

------------------------------
INITIAL GUESS: MODEL POTENTIAL
------------------------------
Loading Hartree-Fock densities                     ... done
Calculating cut-offs                               ... done
Initializing the effective Hamiltonian             ... done
Setting up the integral package (SHARK)            ... done
Starting the Coulomb interaction                   ... done (   2.9 sec)
Making the grid                                    ... done (   1.3 sec)
Mapping shells                                     ... done
Starting the XC term evaluation                    ... done (   1.1 sec)
  promolecular density results
     # of electrons  =    223.983079858
     EX              =   -188.747843782
     EC              =     -7.697697124
     EX+EC           =   -196.445540905
Transforming the Hamiltonian                       ... done (   0.0 sec)
Diagonalizing the Hamiltonian                      ... done (   0.0 sec)
Back transforming the eigenvectors                 ... done (   0.0 sec)
Now organizing SCF variables                       ... done
                      ------------------
                      INITIAL GUESS DONE (   5.4 sec)
                      ------------------
             **** ENERGY FILE WAS UPDATED (/home/nmrbox/aojoawo/Documents/ERDOS/inputs/CHEMBL3577890.en.tmp) ****
Finished Guess after   5.7 sec
Maximum memory used throughout the entire GUESS-calculation: 61.8 MB

-------------------------------------------------------------------------------------------
                                      ORCA LEAN-SCF
                              memory conserving SCF solver
-------------------------------------------------------------------------------------------

----------------------------------------D-I-I-S--------------------------------------------
Iteration    Energy (Eh)           Delta-E    RMSDP     MaxDP     DIISErr   Damp  Time(sec)
-------------------------------------------------------------------------------------------
               ***  Starting incremental Fock matrix formation  ***
    1    -1452.8687789920836622     0.00e+00  2.11e-03  1.03e-01  2.71e-01  0.700  60.1
    2    -1453.2055146856014289    -3.37e-01  1.41e-03  5.67e-02  9.85e-02  0.700  26.7
                               ***Turning on AO-DIIS***
    3    -1453.3341509036313255    -1.29e-01  6.02e-04  1.67e-02  3.48e-02  0.700  26.4
    4    -1453.4144281129524643    -8.03e-02  9.99e-04  2.68e-02  1.57e-02  0.000  24.0
    5    -1453.5907490765189323    -1.76e-01  2.32e-04  7.18e-03  6.01e-03  0.000  25.3
                              *** Initializing SOSCF ***
---------------------------------------S-O-S-C-F--------------------------------------
Iteration    Energy (Eh)           Delta-E    RMSDP     MaxDP     MaxGrad    Time(sec)
--------------------------------------------------------------------------------------
    6    -1453.5919410641422473    -1.19e-03  7.90e-05  2.76e-03  3.22e-03    21.2
               *** Restarting incremental Fock matrix formation ***
    7    -1453.5919350674325869     6.00e-06  5.71e-05  3.09e-03  4.04e-04    60.6
    8    -1453.5918805714331938     5.45e-05  3.73e-05  2.28e-03  1.16e-03    34.2
    9    -1453.5919515993814457    -7.10e-05  6.48e-06  2.94e-04  5.51e-05    31.3
   10    -1453.5919509739601381     6.25e-07  4.11e-06  2.18e-04  8.61e-05    21.9
                 **** Energy Check signals convergence ****

               *****************************************************
               *                     SUCCESS                       *
               *           SCF CONVERGED AFTER  10 CYCLES          *
               *****************************************************

Recomputing exchange energy using gridx3       ... done (  108.488 sec)
Old exchange energy                            :    -38.249040470 Eh
New exchange energy                            :    -38.249134698 Eh
Exchange energy change after final integration :     -0.000094228 Eh
Total energy after final integration           :  -1453.592045202 Eh
             **** ENERGY FILE WAS UPDATED (/home/nmrbox/aojoawo/Documents/ERDOS/inputs/CHEMBL3577890.en.tmp) ****

----------------
TOTAL SCF ENERGY
----------------

Total Energy       :      -1453.59204520181265 Eh          -39554.25045 eV

Components:
Nuclear Repulsion  :       3129.82193594429509 Eh           85166.78467 eV
Electronic Energy  :      -4583.41388691825523 Eh         -124721.03256 eV
One Electron Energy:      -8206.09796243814162 Eh         -223299.27787 eV
Two Electron Energy:       3622.68407551988685 Eh           98578.24532 eV

Virial components:
Potential Energy   :      -2897.97563272777688 Eh          -78857.92603 eV
Kinetic Energy     :       1444.38358752596423 Eh           39303.67558 eV
Virial Ratio       :          2.00637535468789

DFT components:
N(Alpha)           :      112.000139916219 electrons
N(Beta)            :      112.000139916219 electrons
N(Total)           :      224.000279832437 electrons
E(X)               :     -152.014340089552 Eh       
E(C)               :       -9.056409119107 Eh       
E(XC)              :     -161.070749208659 Eh       

---------------
SCF CONVERGENCE
---------------

  Last Energy change         ...   -6.2542e-07  Tolerance :   1.0000e-06
  Last MAX-Density change    ...    2.1763e-04  Tolerance :   1.0000e-05
  Last RMS-Density change    ...    4.1057e-06  Tolerance :   1.0000e-06
  Last DIIS Error            ...    3.2169e-03  Tolerance :   1.0000e-06
  Last Orbital Gradient      ...    8.6135e-05  Tolerance :   5.0000e-05
  Last Orbital Rotation      ...    1.5406e-04  Tolerance :   5.0000e-05


----------------
ORBITAL ENERGIES
----------------

  NO   OCC          E(Eh)            E(eV) 
   0   2.0000     -24.705080      -672.2594 
   1   2.0000     -19.176119      -521.8087 
   2   2.0000     -19.125927      -520.4429 
   3   2.0000     -19.118028      -520.2280 
   4   2.0000     -14.341140      -390.2423 
   5   2.0000     -14.336957      -390.1284 
   6   2.0000     -14.320886      -389.6911 
   7   2.0000     -10.320818      -280.8437 
   8   2.0000     -10.289334      -279.9870 
   9   2.0000     -10.276355      -279.6338 
  10   2.0000     -10.243094      -278.7288 
  11   2.0000     -10.235681      -278.5270 
  12   2.0000     -10.233768      -278.4750 
  13   2.0000     -10.224634      -278.2264 
  14   2.0000     -10.220343      -278.1097 
  15   2.0000     -10.219096      -278.0757 
  16   2.0000     -10.207817      -277.7688 
  17   2.0000     -10.204193      -277.6702 
  18   2.0000     -10.202987      -277.6374 
  19   2.0000     -10.202745      -277.6308 
  20   2.0000     -10.202123      -277.6139 
  21   2.0000     -10.201525      -277.5976 
  22   2.0000     -10.200153      -277.5603 
  23   2.0000     -10.199080      -277.5311 
  24   2.0000     -10.199012      -277.5292 
  25   2.0000     -10.197157      -277.4787 
  26   2.0000     -10.195538      -277.4347 
  27   2.0000     -10.193743      -277.3858 
  28   2.0000     -10.192764      -277.3592 
  29   2.0000     -10.191261      -277.3183 
  30   2.0000     -10.186008      -277.1754 
  31   2.0000     -10.178106      -276.9603 
  32   2.0000      -1.218243       -33.1501 
  33   2.0000      -1.063630       -28.9428 
  34   2.0000      -1.014604       -27.6088 
  35   2.0000      -0.980442       -26.6792 
  36   2.0000      -0.945546       -25.7296 
  37   2.0000      -0.933690       -25.4070 
  38   2.0000      -0.917310       -24.9613 
  39   2.0000      -0.865688       -23.5566 
  40   2.0000      -0.848724       -23.0949 
  41   2.0000      -0.810560       -22.0565 
  42   2.0000      -0.805974       -21.9317 
  43   2.0000      -0.801510       -21.8102 
  44   2.0000      -0.779023       -21.1983 
  45   2.0000      -0.762909       -20.7598 
  46   2.0000      -0.761583       -20.7237 
  47   2.0000      -0.739991       -20.1362 
  48   2.0000      -0.731761       -19.9122 
  49   2.0000      -0.705190       -19.1892 
  50   2.0000      -0.676821       -18.4172 
  51   2.0000      -0.658390       -17.9157 
  52   2.0000      -0.645120       -17.5546 
  53   2.0000      -0.636481       -17.3195 
  54   2.0000      -0.627000       -17.0615 
  55   2.0000      -0.618527       -16.8310 
  56   2.0000      -0.605123       -16.4662 
  57   2.0000      -0.597015       -16.2456 
  58   2.0000      -0.593086       -16.1387 
  59   2.0000      -0.558696       -15.2029 
  60   2.0000      -0.546945       -14.8831 
  61   2.0000      -0.536547       -14.6002 
  62   2.0000      -0.525017       -14.2864 
  63   2.0000      -0.524094       -14.2613 
  64   2.0000      -0.510407       -13.8889 
  65   2.0000      -0.506966       -13.7953 
  66   2.0000      -0.496151       -13.5010 
  67   2.0000      -0.492295       -13.3960 
  68   2.0000      -0.480961       -13.0876 
  69   2.0000      -0.472697       -12.8627 
  70   2.0000      -0.461445       -12.5566 
  71   2.0000      -0.460693       -12.5361 
  72   2.0000      -0.456621       -12.4253 
  73   2.0000      -0.449764       -12.2387 
  74   2.0000      -0.447909       -12.1882 
  75   2.0000      -0.444084       -12.0841 
  76   2.0000      -0.436494       -11.8776 
  77   2.0000      -0.434016       -11.8102 
  78   2.0000      -0.430215       -11.7067 
  79   2.0000      -0.427541       -11.6340 
  80   2.0000      -0.419789       -11.4230 
  81   2.0000      -0.416784       -11.3413 
  82   2.0000      -0.412320       -11.2198 
  83   2.0000      -0.410825       -11.1791 
  84   2.0000      -0.401404       -10.9227 
  85   2.0000      -0.399966       -10.8836 
  86   2.0000      -0.397125       -10.8063 
  87   2.0000      -0.388611       -10.5746 
  88   2.0000      -0.386126       -10.5070 
  89   2.0000      -0.377813       -10.2808 
  90   2.0000      -0.369973       -10.0675 
  91   2.0000      -0.364456        -9.9173 
  92   2.0000      -0.362886        -9.8746 
  93   2.0000      -0.361881        -9.8473 
  94   2.0000      -0.359650        -9.7866 
  95   2.0000      -0.353218        -9.6116 
  96   2.0000      -0.350030        -9.5248 
  97   2.0000      -0.345330        -9.3969 
  98   2.0000      -0.330921        -9.0048 
  99   2.0000      -0.301491        -8.2040 
 100   2.0000      -0.299939        -8.1618 
 101   2.0000      -0.289680        -7.8826 
 102   2.0000      -0.270874        -7.3709 
 103   2.0000      -0.267523        -7.2797 
 104   2.0000      -0.266037        -7.2392 
 105   2.0000      -0.262290        -7.1373 
 106   2.0000      -0.254667        -6.9298 
 107   2.0000      -0.250567        -6.8183 
 108   2.0000      -0.247280        -6.7288 
 109   2.0000      -0.237843        -6.4720 
 110   2.0000      -0.225852        -6.1457 
 111   2.0000      -0.218120        -5.9353 
 112   0.0000      -0.069592        -1.8937 
 113   0.0000      -0.063513        -1.7283 
 114   0.0000      -0.036891        -1.0039 
 115   0.0000      -0.028375        -0.7721 
 116   0.0000      -0.019555        -0.5321 
 117   0.0000      -0.011423        -0.3108 
 118   0.0000       0.015866         0.4317 
 119   0.0000       0.026705         0.7267 
 120   0.0000       0.048949         1.3320 
 121   0.0000       0.059821         1.6278 
 122   0.0000       0.070739         1.9249 
*Only the first 10 virtual orbitals were printed.

                    ********************************
                    * MULLIKEN POPULATION ANALYSIS *
                    ********************************

-----------------------
MULLIKEN ATOMIC CHARGES
-----------------------
   0 C :   -0.435765
   1 C :   -0.062760
   2 C :    0.140877
   3 C :   -0.163080
   4 C :   -0.206943
   5 C :    0.412139
   6 F :   -0.317415
   7 C :   -0.215730
   8 C :   -0.169330
   9 N :   -0.420257
  10 C :   -0.225923
  11 C :    0.282945
  12 C :   -0.150875
  13 C :   -0.100640
  14 C :   -0.147703
  15 C :    0.194687
  16 C :    0.548691
  17 O :   -0.450693
  18 O :   -0.602329
  19 N :   -0.433577
  20 C :    0.459357
  21 O :   -0.452381
  22 C :    0.058393
  23 C :   -0.004499
  24 N :   -0.443292
  25 C :    0.215246
  26 C :   -0.146362
  27 C :   -0.128312
  28 C :   -0.132814
  29 C :   -0.197391
  30 C :    0.160440
  31 C :   -0.181695
  32 H :    0.160234
  33 H :    0.147539
  34 H :    0.146715
  35 H :    0.151557
  36 H :    0.153275
  37 H :    0.152009
  38 H :    0.145585
  39 H :    0.138617
  40 H :    0.146409
  41 H :    0.197879
  42 H :    0.140403
  43 H :    0.150456
  44 H :    0.170021
  45 H :    0.429352
  46 H :    0.167118
  47 H :    0.143608
  48 H :    0.137269
  49 H :    0.134721
  50 H :    0.138433
  51 H :    0.165792
Sum of atomic charges:    0.0000000

--------------------------------
MULLIKEN REDUCED ORBITAL CHARGES
--------------------------------
  0 C s       :     3.302625  s :     3.302625
      pz      :     0.963843  p :     3.099494
      px      :     1.077779
      py      :     1.057872
      dz2     :     0.008311  d :     0.033646
      dxz     :     0.007603
      dyz     :     0.004534
      dx2y2   :     0.007269
      dxy     :     0.005929

  1 C s       :     3.201311  s :     3.201311
      pz      :     0.963937  p :     2.801050
      px      :     1.027326
      py      :     0.809787
      dz2     :     0.013656  d :     0.060399
      dxz     :     0.009120
      dyz     :     0.013962
      dx2y2   :     0.014326
      dxy     :     0.009335

  2 C s       :     3.132902  s :     3.132902
      pz      :     0.882459  p :     2.687151
      px      :     0.871441
      py      :     0.933251
      dz2     :     0.009693  d :     0.039070
      dxz     :     0.009282
      dyz     :     0.007097
      dx2y2   :     0.006269
      dxy     :     0.006729

  3 C s       :     3.201453  s :     3.201453
      pz      :     0.963686  p :     2.925411
      px      :     0.989473
      py      :     0.972252
      dz2     :     0.007863  d :     0.036216
      dxz     :     0.011011
      dyz     :     0.006212
      dx2y2   :     0.006453
      dxy     :     0.004678

  4 C s       :     3.205570  s :     3.205570
      pz      :     0.989686  p :     2.966819
      px      :     0.961555
      py      :     1.015578
      dz2     :     0.008457  d :     0.034555
      dxz     :     0.007546
      dyz     :     0.006088
      dx2y2   :     0.006732
      dxy     :     0.005733

  5 C s       :     3.082126  s :     3.082126
      pz      :     0.842865  p :     2.433096
      px      :     0.753352
      py      :     0.836879
      dz2     :     0.014999  d :     0.072640
      dxz     :     0.018000
      dyz     :     0.011998
      dx2y2   :     0.013510
      dxy     :     0.014133

  6 F s       :     3.971312  s :     3.971312
      pz      :     1.845116  p :     5.328966
      px      :     1.720607
      py      :     1.763243
      dz2     :     0.002393  d :     0.017136
      dxz     :     0.003575
      dyz     :     0.002731
      dx2y2   :     0.003776
      dxy     :     0.004661

  7 C s       :     3.206014  s :     3.206014
      pz      :     0.957730  p :     2.975027
      px      :     1.002148
      py      :     1.015149
      dz2     :     0.008447  d :     0.034689
      dxz     :     0.009046
      dyz     :     0.006311
      dx2y2   :     0.006203
      dxy     :     0.004683

  8 C s       :     3.205942  s :     3.205942
      pz      :     0.984803  p :     2.927190
      px      :     0.954002
      py      :     0.988385
      dz2     :     0.008968  d :     0.036198
      dxz     :     0.008260
      dyz     :     0.005729
      dx2y2   :     0.006818
      dxy     :     0.006423

  9 N s       :     3.540549  s :     3.540549
      pz      :     1.695063  p :     3.847134
      px      :     1.068884
      py      :     1.083187
      dz2     :     0.003502  d :     0.032575
      dxz     :     0.004259
      dyz     :     0.004211
      dx2y2   :     0.009258
      dxy     :     0.011345

 10 C s       :     3.249686  s :     3.249686
      pz      :     0.986519  p :     2.922362
      px      :     0.850992
      py      :     1.084851
      dz2     :     0.009207  d :     0.053876
      dxz     :     0.016685
      dyz     :     0.007415
      dx2y2   :     0.011791
      dxy     :     0.008777

 11 C s       :     3.074219  s :     3.074219
      pz      :     0.801810  p :     2.585590
      px      :     0.879212
      py      :     0.904568
      dz2     :     0.016761  d :     0.057246
      dxz     :     0.014836
      dyz     :     0.010269
      dx2y2   :     0.007324
      dxy     :     0.008055

 12 C s       :     3.196658  s :     3.196658
      pz      :     0.980805  p :     2.918944
      px      :     0.961464
      py      :     0.976675
      dz2     :     0.008453  d :     0.035273
      dxz     :     0.010870
      dyz     :     0.006711
      dx2y2   :     0.004098
      dxy     :     0.005141

 13 C s       :     3.191509  s :     3.191509
      pz      :     0.930929  p :     2.872812
      px      :     0.983051
      py      :     0.958832
      dz2     :     0.010583  d :     0.036320
      dxz     :     0.009284
      dyz     :     0.006978
      dx2y2   :     0.003770
      dxy     :     0.005705

 14 C s       :     3.210058  s :     3.210058
      pz      :     0.994557  p :     2.902788
      px      :     0.958561
      py      :     0.949670
      dz2     :     0.010553  d :     0.034858
      dxz     :     0.009328
      dyz     :     0.004526
      dx2y2   :     0.005266
      dxy     :     0.005184

 15 C s       :     3.104306  s :     3.104306
      pz      :     0.763466  p :     2.645216
      px      :     0.917207
      py      :     0.964543
      dz2     :     0.014380  d :     0.055791
      dxz     :     0.018376
      dyz     :     0.011357
      dx2y2   :     0.005815
      dxy     :     0.005862

 16 C s       :     2.994820  s :     2.994820
      pz      :     0.835161  p :     2.346348
      px      :     0.717510
      py      :     0.793677
      dz2     :     0.028380  d :     0.110141
      dxz     :     0.031248
      dyz     :     0.021056
      dx2y2   :     0.015164
      dxy     :     0.014293

 17 O s       :     3.875590  s :     3.875590
      pz      :     1.380991  p :     4.549619
      px      :     1.660315
      py      :     1.508314
      dz2     :     0.008994  d :     0.025484
      dxz     :     0.007134
      dyz     :     0.007602
      dx2y2   :     0.000787
      dxy     :     0.000968

 18 O s       :     3.877660  s :     3.877660
      pz      :     1.640603  p :     4.703061
      px      :     1.406875
      py      :     1.655583
      dz2     :     0.003687  d :     0.021608
      dxz     :     0.006999
      dyz     :     0.004719
      dx2y2   :     0.002779
      dxy     :     0.003424

 19 N s       :     3.732911  s :     3.732911
      pz      :     1.007943  p :     3.665304
      px      :     1.450672
      py      :     1.206689
      dz2     :     0.006562  d :     0.035362
      dxz     :     0.011214
      dyz     :     0.007552
      dx2y2   :     0.005088
      dxy     :     0.004946

 20 C s       :     3.055170  s :     3.055170
      pz      :     0.825510  p :     2.385521
      px      :     0.806576
      py      :     0.753435
      dz2     :     0.018895  d :     0.099953
      dxz     :     0.020075
      dyz     :     0.020549
      dx2y2   :     0.014594
      dxy     :     0.025840

 21 O s       :     3.889209  s :     3.889209
      pz      :     1.446575  p :     4.537899
      px      :     1.665531
      py      :     1.425793
      dz2     :     0.005847  d :     0.025273
      dxz     :     0.003109
      dyz     :     0.007373
      dx2y2   :     0.004900
      dxy     :     0.004044

 22 C s       :     3.176245  s :     3.176245
      pz      :     0.893979  p :     2.727935
      px      :     0.878979
      py      :     0.954976
      dz2     :     0.007901  d :     0.037428
      dxz     :     0.011210
      dyz     :     0.005622
      dx2y2   :     0.006852
      dxy     :     0.005843

 23 C s       :     3.169272  s :     3.169272
      pz      :     0.923882  p :     2.781905
      px      :     0.931287
      py      :     0.926735
      dz2     :     0.015023  d :     0.053323
      dxz     :     0.012785
      dyz     :     0.008355
      dx2y2   :     0.008930
      dxy     :     0.008229

 24 N s       :     3.689098  s :     3.689098
      pz      :     1.430983  p :     3.718441
      px      :     1.028100
      py      :     1.259357
      dz2     :     0.007673  d :     0.035752
      dxz     :     0.009439
      dyz     :     0.005105
      dx2y2   :     0.005546
      dxy     :     0.007990

 25 C s       :     3.074707  s :     3.074707
      pz      :     0.913381  p :     2.649732
      px      :     0.807119
      py      :     0.929232
      dz2     :     0.011219  d :     0.060315
      dxz     :     0.018072
      dyz     :     0.007808
      dx2y2   :     0.011279
      dxy     :     0.011937

 26 C s       :     3.209049  s :     3.209049
      pz      :     0.983337  p :     2.902645
      px      :     0.943466
      py      :     0.975843
      dz2     :     0.006668  d :     0.034668
      dxz     :     0.009751
      dyz     :     0.006182
      dx2y2   :     0.005750
      dxy     :     0.006318

 27 C s       :     3.199998  s :     3.199998
      pz      :     0.957523  p :     2.891852
      px      :     0.974220
      py      :     0.960109
      dz2     :     0.006873  d :     0.036462
      dxz     :     0.012517
      dyz     :     0.004695
      dx2y2   :     0.006802
      dxy     :     0.005576

 28 C s       :     3.196354  s :     3.196354
      pz      :     0.940175  p :     2.900360
      px      :     0.984971
      py      :     0.975214
      dz2     :     0.009667  d :     0.036100
      dxz     :     0.008250
      dyz     :     0.005915
      dx2y2   :     0.006202
      dxy     :     0.006067

 29 C s       :     3.209999  s :     3.209999
      pz      :     0.978867  p :     2.951163
      px      :     0.984474
      py      :     0.987822
      dz2     :     0.007532  d :     0.036229
      dxz     :     0.008963
      dyz     :     0.006663
      dx2y2   :     0.006180
      dxy     :     0.006891

 30 C s       :     3.116670  s :     3.116670
      pz      :     0.857951  p :     2.681300
      px      :     0.890106
      py      :     0.933242
      dz2     :     0.008857  d :     0.041590
      dxz     :     0.011239
      dyz     :     0.006228
      dx2y2   :     0.007796
      dxy     :     0.007469

 31 C s       :     3.238621  s :     3.238621
      pz      :     0.974675  p :     2.906576
      px      :     1.003735
      py      :     0.928166
      dz2     :     0.007372  d :     0.036497
      dxz     :     0.009402
      dyz     :     0.006436
      dx2y2   :     0.006314
      dxy     :     0.006973

 32 H s       :     0.839766  s :     0.839766

 33 H s       :     0.852461  s :     0.852461

 34 H s       :     0.853285  s :     0.853285

 35 H s       :     0.848443  s :     0.848443

 36 H s       :     0.846725  s :     0.846725

 37 H s       :     0.847991  s :     0.847991

 38 H s       :     0.854415  s :     0.854415

 39 H s       :     0.861383  s :     0.861383

 40 H s       :     0.853591  s :     0.853591

 41 H s       :     0.802121  s :     0.802121

 42 H s       :     0.859597  s :     0.859597

 43 H s       :     0.849544  s :     0.849544

 44 H s       :     0.829979  s :     0.829979

 45 H s       :     0.570648  s :     0.570648

 46 H s       :     0.832882  s :     0.832882

 47 H s       :     0.856392  s :     0.856392

 48 H s       :     0.862731  s :     0.862731

 49 H s       :     0.865279  s :     0.865279

 50 H s       :     0.861567  s :     0.861567

 51 H s       :     0.834208  s :     0.834208



                     *******************************
                     * LOEWDIN POPULATION ANALYSIS *
                     *******************************

----------------------
LOEWDIN ATOMIC CHARGES
----------------------
   0 C :   -0.361004
   1 C :   -0.050842
   2 C :   -0.030952
   3 C :   -0.117043
   4 C :   -0.151910
   5 C :    0.116050
   6 F :   -0.103711
   7 C :   -0.160817
   8 C :   -0.130003
   9 N :   -0.121310
  10 C :   -0.147649
  11 C :    0.022555
  12 C :   -0.124277
  13 C :   -0.102497
  14 C :   -0.106604
  15 C :   -0.008437
  16 C :    0.178070
  17 O :   -0.265262
  18 O :   -0.316579
  19 N :   -0.111610
  20 C :    0.151289
  21 O :   -0.255952
  22 C :   -0.073748
  23 C :   -0.049779
  24 N :   -0.135446
  25 C :    0.019676
  26 C :   -0.118138
  27 C :   -0.117837
  28 C :   -0.129962
  29 C :   -0.114030
  30 C :   -0.032572
  31 C :   -0.055674
  32 H :    0.134430
  33 H :    0.127931
  34 H :    0.124421
  35 H :    0.134043
  36 H :    0.142629
  37 H :    0.146730
  38 H :    0.143088
  39 H :    0.136183
  40 H :    0.127093
  41 H :    0.158358
  42 H :    0.138964
  43 H :    0.142426
  44 H :    0.155186
  45 H :    0.346776
  46 H :    0.143880
  47 H :    0.144121
  48 H :    0.136366
  49 H :    0.134828
  50 H :    0.136172
  51 H :    0.152382

-------------------------------
LOEWDIN REDUCED ORBITAL CHARGES
-------------------------------
  0 C s       :     2.991459  s :     2.991459
      pz      :     1.054927  p :     3.303523
      px      :     1.127919
      py      :     1.120676
      dz2     :     0.018515  d :     0.066022
      dxz     :     0.014845
      dyz     :     0.009276
      dx2y2   :     0.013015
      dxy     :     0.010371

  1 C s       :     2.886471  s :     2.886471
      pz      :     1.048008  p :     3.031621
      px      :     1.068816
      py      :     0.914797
      dz2     :     0.033398  d :     0.132750
      dxz     :     0.018064
      dyz     :     0.029182
      dx2y2   :     0.031284
      dxy     :     0.020822

  2 C s       :     2.882487  s :     2.882487
      pz      :     1.038853  p :     3.051181
      px      :     1.024204
      py      :     0.988124
      dz2     :     0.024801  d :     0.097284
      dxz     :     0.025511
      dyz     :     0.016965
      dx2y2   :     0.014162
      dxy     :     0.015845

  3 C s       :     2.919080  s :     2.919080
      pz      :     1.048499  p :     3.113157
      px      :     1.057978
      py      :     1.006680
      dz2     :     0.019794  d :     0.084806
      dxz     :     0.025010
      dyz     :     0.015860
      dx2y2   :     0.013148
      dxy     :     0.010994

  4 C s       :     2.921839  s :     2.921839
      pz      :     1.068125  p :     3.148298
      px      :     1.046091
      py      :     1.034082
      dz2     :     0.018125  d :     0.081773
      dxz     :     0.019982
      dyz     :     0.012345
      dx2y2   :     0.016285
      dxy     :     0.015036

  5 C s       :     2.865408  s :     2.865408
      pz      :     1.014858  p :     2.838969
      px      :     0.918233
      py      :     0.905878
      dz2     :     0.038171  d :     0.179574
      dxz     :     0.044422
      dyz     :     0.030390
      dx2y2   :     0.031371
      dxy     :     0.035219

  6 F s       :     3.734952  s :     3.734952
      pz      :     1.843025  p :     5.334410
      px      :     1.726228
      py      :     1.765157
      dz2     :     0.004718  d :     0.034350
      dxz     :     0.007182
      dyz     :     0.005462
      dx2y2   :     0.007504
      dxy     :     0.009484

  7 C s       :     2.921420  s :     2.921420
      pz      :     1.051183  p :     3.157242
      px      :     1.068625
      py      :     1.037435
      dz2     :     0.021654  d :     0.082155
      dxz     :     0.021235
      dyz     :     0.016056
      dx2y2   :     0.012482
      dxy     :     0.010727

  8 C s       :     2.918161  s :     2.918161
      pz      :     1.063134  p :     3.127336
      px      :     1.044896
      py      :     1.019305
      dz2     :     0.019488  d :     0.084506
      dxz     :     0.020481
      dyz     :     0.011807
      dx2y2   :     0.016150
      dxy     :     0.016579

  9 N s       :     3.112397  s :     3.112397
      pz      :     1.643282  p :     3.926936
      px      :     1.132654
      py      :     1.151000
      dz2     :     0.006541  d :     0.081976
      dxz     :     0.008928
      dyz     :     0.008952
      dx2y2   :     0.026037
      dxy     :     0.031518

 10 C s       :     2.921632  s :     2.921632
      pz      :     1.059821  p :     3.111787
      px      :     0.940971
      py      :     1.110995
      dz2     :     0.020543  d :     0.114230
      dxz     :     0.036860
      dyz     :     0.014360
      dx2y2   :     0.023992
      dxy     :     0.018474

 11 C s       :     2.877409  s :     2.877409
      pz      :     1.005290  p :     2.960491
      px      :     1.013690
      py      :     0.941511
      dz2     :     0.042618  d :     0.139545
      dxz     :     0.037158
      dyz     :     0.023142
      dx2y2   :     0.015982
      dxy     :     0.020645

 12 C s       :     2.926696  s :     2.926696
      pz      :     1.075735  p :     3.113524
      px      :     1.046181
      py      :     0.991609
      dz2     :     0.021651  d :     0.084057
      dxz     :     0.027099
      dyz     :     0.014206
      dx2y2   :     0.009315
      dxy     :     0.011785

 13 C s       :     2.920698  s :     2.920698
      pz      :     1.070716  p :     3.096331
      px      :     1.046197
      py      :     0.979417
      dz2     :     0.028387  d :     0.085469
      dxz     :     0.023740
      dyz     :     0.016862
      dx2y2   :     0.006471
      dxy     :     0.010009

 14 C s       :     2.925285  s :     2.925285
      pz      :     1.088154  p :     3.098526
      px      :     1.032634
      py      :     0.977738
      dz2     :     0.023419  d :     0.082792
      dxz     :     0.023321
      dyz     :     0.010658
      dx2y2   :     0.012068
      dxy     :     0.013326

 15 C s       :     2.872950  s :     2.872950
      pz      :     0.981069  p :     2.996206
      px      :     1.029097
      py      :     0.986039
      dz2     :     0.038391  d :     0.139281
      dxz     :     0.047691
      dyz     :     0.026230
      dx2y2   :     0.013073
      dxy     :     0.013896

 16 C s       :     2.865353  s :     2.865353
      pz      :     1.007510  p :     2.703563
      px      :     0.867110
      py      :     0.828943
      dz2     :     0.067505  d :     0.253014
      dxz     :     0.074765
      dyz     :     0.045483
      dx2y2   :     0.032975
      dxy     :     0.032286

 17 O s       :     3.592588  s :     3.592588
      pz      :     1.461682  p :     4.622938
      px      :     1.662649
      py      :     1.498607
      dz2     :     0.021666  d :     0.049736
      dxz     :     0.014340
      dyz     :     0.010745
      dx2y2   :     0.001458
      dxy     :     0.001527

 18 O s       :     3.542914  s :     3.542914
      pz      :     1.648065  p :     4.730965
      px      :     1.432038
      py      :     1.650862
      dz2     :     0.006681  d :     0.042699
      dxz     :     0.013361
      dyz     :     0.007246
      dx2y2   :     0.006782
      dxy     :     0.008629

 19 N s       :     3.238061  s :     3.238061
      pz      :     1.119633  p :     3.794813
      px      :     1.465389
      py      :     1.209791
      dz2     :     0.020979  d :     0.078736
      dxz     :     0.026033
      dyz     :     0.018451
      dx2y2   :     0.006359
      dxy     :     0.006915

 20 C s       :     2.866447  s :     2.866447
      pz      :     0.925084  p :     2.749855
      px      :     0.916957
      py      :     0.907815
      dz2     :     0.042189  d :     0.232409
      dxz     :     0.045480
      dyz     :     0.049719
      dx2y2   :     0.033072
      dxy     :     0.061950

 21 O s       :     3.590800  s :     3.590800
      pz      :     1.477815  p :     4.615087
      px      :     1.659784
      py      :     1.477488
      dz2     :     0.009120  d :     0.050065
      dxz     :     0.004886
      dyz     :     0.018680
      dx2y2   :     0.010212
      dxy     :     0.007167

 22 C s       :     2.886083  s :     2.886083
      pz      :     1.034102  p :     3.088801
      px      :     1.040719
      py      :     1.013980
      dz2     :     0.021236  d :     0.098865
      dxz     :     0.030765
      dyz     :     0.014609
      dx2y2   :     0.017016
      dxy     :     0.015239

 23 C s       :     2.920116  s :     2.920116
      pz      :     1.006223  p :     3.007457
      px      :     1.046530
      py      :     0.954705
      dz2     :     0.035854  d :     0.122206
      dxz     :     0.031528
      dyz     :     0.020308
      dx2y2   :     0.018875
      dxy     :     0.015640

 24 N s       :     3.238719  s :     3.238719
      pz      :     1.441320  p :     3.817518
      px      :     1.133315
      py      :     1.242882
      dz2     :     0.014980  d :     0.079209
      dxz     :     0.023880
      dyz     :     0.007249
      dx2y2   :     0.014724
      dxy     :     0.018376

 25 C s       :     2.846951  s :     2.846951
      pz      :     1.030207  p :     2.984087
      px      :     0.991337
      py      :     0.962543
      dz2     :     0.028217  d :     0.149287
      dxz     :     0.046711
      dyz     :     0.019074
      dx2y2   :     0.027103
      dxy     :     0.028183

 26 C s       :     2.922032  s :     2.922032
      pz      :     1.053847  p :     3.114197
      px      :     1.052435
      py      :     1.007916
      dz2     :     0.015886  d :     0.081909
      dxz     :     0.024447
      dyz     :     0.011545
      dx2y2   :     0.014967
      dxy     :     0.015063

 27 C s       :     2.920195  s :     2.920195
      pz      :     1.050723  p :     3.112351
      px      :     1.066614
      py      :     0.995014
      dz2     :     0.016616  d :     0.085291
      dxz     :     0.028168
      dyz     :     0.011287
      dx2y2   :     0.015367
      dxy     :     0.013853

 28 C s       :     2.918475  s :     2.918475
      pz      :     1.051740  p :     3.126586
      px      :     1.067362
      py      :     1.007485
      dz2     :     0.023641  d :     0.084900
      dxz     :     0.021856
      dyz     :     0.014800
      dx2y2   :     0.012478
      dxy     :     0.012126

 29 C s       :     2.918220  s :     2.918220
      pz      :     1.056913  p :     3.111352
      px      :     1.050410
      py      :     1.004029
      dz2     :     0.016916  d :     0.084458
      dxz     :     0.024005
      dyz     :     0.012341
      dx2y2   :     0.015482
      dxy     :     0.015714

 30 C s       :     2.856559  s :     2.856559
      pz      :     1.035614  p :     3.067042
      px      :     1.040358
      py      :     0.991071
      dz2     :     0.023634  d :     0.108971
      dxz     :     0.031567
      dyz     :     0.015669
      dx2y2   :     0.019169
      dxy     :     0.018932

 31 C s       :     2.922175  s :     2.922175
      pz      :     1.050261  p :     3.049578
      px      :     1.043776
      py      :     0.955541
      dz2     :     0.016710  d :     0.083922
      dxz     :     0.023630
      dyz     :     0.011875
      dx2y2   :     0.015643
      dxy     :     0.016064

 32 H s       :     0.865570  s :     0.865570

 33 H s       :     0.872069  s :     0.872069

 34 H s       :     0.875579  s :     0.875579

 35 H s       :     0.865957  s :     0.865957

 36 H s       :     0.857371  s :     0.857371

 37 H s       :     0.853270  s :     0.853270

 38 H s       :     0.856912  s :     0.856912

 39 H s       :     0.863817  s :     0.863817

 40 H s       :     0.872907  s :     0.872907

 41 H s       :     0.841642  s :     0.841642

 42 H s       :     0.861036  s :     0.861036

 43 H s       :     0.857574  s :     0.857574

 44 H s       :     0.844814  s :     0.844814

 45 H s       :     0.653224  s :     0.653224

 46 H s       :     0.856120  s :     0.856120

 47 H s       :     0.855879  s :     0.855879

 48 H s       :     0.863634  s :     0.863634

 49 H s       :     0.865172  s :     0.865172

 50 H s       :     0.863828  s :     0.863828

 51 H s       :     0.847618  s :     0.847618



                      *****************************
                      * MAYER POPULATION ANALYSIS *
                      *****************************

  NA   - Mulliken gross atomic population
  ZA   - Total nuclear charge
  QA   - Mulliken gross atomic charge
  VA   - Mayer's total valence
  BVA  - Mayer's bonded valence
  FA   - Mayer's free valence

  ATOM       NA         ZA         QA         VA         BVA        FA
  0 C      6.4358     6.0000    -0.4358     3.8090     3.8090     0.0000
  1 C      6.0628     6.0000    -0.0628     3.9163     3.9163    -0.0000
  2 C      5.8591     6.0000     0.1409     3.9256     3.9256     0.0000
  3 C      6.1631     6.0000    -0.1631     3.9211     3.9211    -0.0000
  4 C      6.2069     6.0000    -0.2069     3.8837     3.8837     0.0000
  5 C      5.5879     6.0000     0.4121     3.8327     3.8327     0.0000
  6 F      9.3174     9.0000    -0.3174     1.0460     1.0460     0.0000
  7 C      6.2157     6.0000    -0.2157     3.8829     3.8829    -0.0000
  8 C      6.1693     6.0000    -0.1693     3.9112     3.9112     0.0000
  9 N      7.4203     7.0000    -0.4203     2.9543     2.9543     0.0000
 10 C      6.2259     6.0000    -0.2259     3.8203     3.8203     0.0000
 11 C      5.7171     6.0000     0.2829     3.8744     3.8744     0.0000
 12 C      6.1509     6.0000    -0.1509     3.9091     3.9091     0.0000
 13 C      6.1006     6.0000    -0.1006     3.9169     3.9169    -0.0000
 14 C      6.1477     6.0000    -0.1477     3.9003     3.9003    -0.0000
 15 C      5.8053     6.0000     0.1947     3.8751     3.8751    -0.0000
 16 C      5.4513     6.0000     0.5487     3.9253     3.9253     0.0000
 17 O      8.4507     8.0000    -0.4507     2.0672     2.0672     0.0000
 18 O      8.6023     8.0000    -0.6023     1.8927     1.8927     0.0000
 19 N      7.4336     7.0000    -0.4336     2.9234     2.9234     0.0000
 20 C      5.5406     6.0000     0.4594     3.9380     3.9380     0.0000
 21 O      8.4524     8.0000    -0.4524     2.0501     2.0501     0.0000
 22 C      5.9416     6.0000     0.0584     3.8429     3.8429     0.0000
 23 C      6.0045     6.0000    -0.0045     3.8576     3.8576     0.0000
 24 N      7.4433     7.0000    -0.4433     2.9547     2.9547     0.0000
 25 C      5.7848     6.0000     0.2152     3.9791     3.9791     0.0000
 26 C      6.1464     6.0000    -0.1464     3.8847     3.8847     0.0000
 27 C      6.1283     6.0000    -0.1283     3.9228     3.9228     0.0000
 28 C      6.1328     6.0000    -0.1328     3.9229     3.9229     0.0000
 29 C      6.1974     6.0000    -0.1974     3.8981     3.8981    -0.0000
 30 C      5.8396     6.0000     0.1604     3.9453     3.9453     0.0000
 31 C      6.1817     6.0000    -0.1817     3.8313     3.8313     0.0000
 32 H      0.8398     1.0000     0.1602     0.9374     0.9374     0.0000
 33 H      0.8525     1.0000     0.1475     0.9376     0.9376    -0.0000
 34 H      0.8533     1.0000     0.1467     0.9400     0.9400     0.0000
 35 H      0.8484     1.0000     0.1516     0.9343     0.9343     0.0000
 36 H      0.8467     1.0000     0.1533     0.9400     0.9400     0.0000
 37 H      0.8480     1.0000     0.1520     0.9352     0.9352     0.0000
 38 H      0.8544     1.0000     0.1456     0.9364     0.9364    -0.0000
 39 H      0.8614     1.0000     0.1386     0.9415     0.9415     0.0000
 40 H      0.8536     1.0000     0.1464     0.9413     0.9413     0.0000
 41 H      0.8021     1.0000     0.1979     0.9332     0.9332     0.0000
 42 H      0.8596     1.0000     0.1404     0.9451     0.9451     0.0000
 43 H      0.8495     1.0000     0.1505     0.9332     0.9332    -0.0000
 44 H      0.8300     1.0000     0.1700     0.9413     0.9413    -0.0000
 45 H      0.5706     1.0000     0.4294     0.7984     0.7984    -0.0000
 46 H      0.8329     1.0000     0.1671     0.9491     0.9491     0.0000
 47 H      0.8564     1.0000     0.1436     0.9424     0.9424    -0.0000
 48 H      0.8627     1.0000     0.1373     0.9360     0.9360    -0.0000
 49 H      0.8653     1.0000     0.1347     0.9371     0.9371     0.0000
 50 H      0.8616     1.0000     0.1384     0.9370     0.9370    -0.0000
 51 H      0.8342     1.0000     0.1658     0.9416     0.9416     0.0000

  Mayer bond orders larger than 0.100000
B(  0-C ,  1-C ) :   0.9885 B(  0-C , 32-H ) :   0.9416 B(  0-C , 33-H ) :   0.9396 
B(  0-C , 34-H ) :   0.9407 B(  1-C ,  2-C ) :   0.9731 B(  1-C ,  9-N ) :   0.9550 
B(  1-C , 35-H ) :   0.9152 B(  2-C ,  3-C ) :   1.4218 B(  2-C ,  8-C ) :   1.4203 
B(  3-C ,  4-C ) :   1.4238 B(  3-C , 36-H ) :   0.9156 B(  4-C ,  5-C ) :   1.3907 
B(  4-C , 37-H ) :   0.9191 B(  5-C ,  6-F ) :   0.9185 B(  5-C ,  7-C ) :   1.3934 
B(  7-C ,  8-C ) :   1.4115 B(  7-C , 38-H ) :   0.9206 B(  8-C , 39-H ) :   0.9192 
B(  9-N , 10-C ) :   0.9629 B(  9-N , 20-C ) :   0.9862 B( 10-C , 11-C ) :   0.9525 
B( 10-C , 40-H ) :   0.9251 B( 10-C , 41-H ) :   0.9051 B( 11-C , 12-C ) :   1.3954 
B( 11-C , 19-N ) :   1.3901 B( 12-C , 13-C ) :   1.4376 B( 12-C , 42-H ) :   0.9146 
B( 13-C , 14-C ) :   1.4316 B( 13-C , 43-H ) :   0.9274 B( 14-C , 15-C ) :   1.3932 
B( 14-C , 44-H ) :   0.9106 B( 15-C , 16-C ) :   0.9847 B( 15-C , 19-N ) :   1.3463 
B( 16-C , 17-O ) :   1.8596 B( 16-C , 18-O ) :   1.0454 B( 18-O , 45-H ) :   0.7455 
B( 20-C , 21-O ) :   1.8467 B( 20-C , 22-C ) :   0.9807 B( 22-C , 23-C ) :   1.2666 
B( 22-C , 31-C ) :   1.4336 B( 23-C , 24-N ) :   1.4935 B( 23-C , 46-H ) :   0.9046 
B( 24-N , 25-C ) :   1.2526 B( 25-C , 26-C ) :   1.3116 B( 25-C , 30-C ) :   1.2489 
B( 26-C , 27-C ) :   1.5124 B( 26-C , 29-C ) :   0.1071 B( 26-C , 47-H ) :   0.9175 
B( 27-C , 28-C ) :   1.3462 B( 27-C , 48-H ) :   0.9294 B( 28-C , 29-C ) :   1.5152 
B( 28-C , 49-H ) :   0.9298 B( 29-C , 30-C ) :   1.2762 B( 29-C , 50-H ) :   0.9239 
B( 30-C , 31-C ) :   1.2692 B( 31-C , 51-H ) :   0.9110 

-------
TIMINGS
-------

Total SCF time: 0 days 0 hours 7 min 21 sec 

Total time                  ....     441.076 sec
Sum of individual times     ....     440.791 sec  ( 99.9%)

SCF preparation             ....       0.368 sec  (  0.1%)
Fock matrix formation       ....     438.477 sec  ( 99.4%)
  Startup                   ....       0.084 sec  (  0.0% of F)
  Split-RI-J                ....      52.279 sec  ( 11.9% of F)
  Chain of spheres X        ....     347.095 sec  ( 79.2% of F)
  XC integration            ....      38.405 sec  (  8.8% of F)
    XC Preparation          ....       0.000 sec  (  0.0% of XC)
    Basis function eval.    ....      14.101 sec  ( 36.7% of XC)
    Density eval.           ....       9.935 sec  ( 25.9% of XC)
    XC-Functional eval.     ....       1.603 sec  (  4.2% of XC)
    XC-Potential eval.      ....      11.166 sec  ( 29.1% of XC)
Diagonalization             ....       0.000 sec  (  0.0%)
Density matrix formation    ....       0.269 sec  (  0.1%)
Total Energy calculation    ....       0.060 sec  (  0.0%)
Population analysis         ....       0.126 sec  (  0.0%)
Orbital Transformation      ....       0.274 sec  (  0.1%)
Orbital Orthonormalization  ....       0.000 sec  (  0.0%)
DIIS solution               ....       0.824 sec  (  0.2%)
SOSCF solution              ....       0.392 sec  (  0.1%)
Finished LeanSCF after 441.3 sec

Maximum memory used throughout the entire LEANSCF-calculation: 86.8 MB

-------------------------   --------------------
FINAL SINGLE POINT ENERGY     -1453.592045201813
-------------------------   --------------------


------------------------------------------------------------------------------
                              ORCA PROPERTY CALCULATIONS
------------------------------------------------------------------------------

GBWName                                 ... /home/nmrbox/aojoawo/Documents/ERDOS/inputs/CHEMBL3577890.gbw
Number of atoms                         ...     52
Number of basis functions               ...    488
Max core memory                         ...   1024 MB

Electric properties:
Dipole moment                           ... YES
Quadrupole moment                       ...  NO
Static polarizability (Dipole/Dipole)   ...  NO
Static polarizability (Dipole/Quad.)    ...  NO
Static polarizability (Quad./Quad.)     ...  NO
Static polarizability (Velocity)        ...  NO

Atomic electric properties:
Dipole moment                           ...  NO
Quadrupole moment                       ...  NO
Static polarizability                   ...  NO

Choice of electric origin               ... Center of mass
Position of electric origin             ...    -0.248342     0.158802     0.394799

General magnetic properties:
Magnetizability                         ...  NO

EPR properties:
g-Tensor (aka g-matrix)                 ...  NO
Zero-Field splitting spin-orbit         ...  NO
Zero-field splitting spin-spin          ...  NO
Hyperfine couplings                     ...  NO (   0 nuclei)
Quadrupole couplings                    ...  NO (   0 nuclei)
Contact density                         ...  NO (   0 nuclei)

NMR properties:
Chemical shifts                         ...  NO (   0 nuclei)
Spin-rotation constants                 ...  NO (   0 nuclei)
Spin-spin couplings                     ...  NO (   0 nuclei,    0 pairs)

Choice of magnetic origin               ... GIAO
Position of magnetic origin             ...     0.000000     0.000000     0.000000

Properties with geometric perturbations:
SCF Hessian                             ...  NO
IR spectrum                             ...  NO
VCD spectrum                            ...  NO
X-ray spectroscopy properties:
SCF XES/XAS/RIXS spectra                ...  NO


-------------
DIPOLE MOMENT
-------------

Method             : SCF
Type of density    : Electron Density
Multiplicity       :   1
Irrep              :   0
Energy             : -1453.5920452018126525 Eh
Relativity type    : 
Basis              : AO
                                X                 Y                 Z
Electronic contribution:     -7.796458131      -0.376341673      11.204522271
Nuclear contribution   :      8.036890369      -0.299411988     -11.947529197
                        -----------------------------------------
Total Dipole Moment    :      0.240432237      -0.675753661      -0.743006927
                        -----------------------------------------
Magnitude (a.u.)       :      1.032719693
Magnitude (Debye)      :      2.624964850



--------------------
Rotational spectrum 
--------------------
 
Rotational constants in cm-1:             0.006592             0.003164             0.002741 
Rotational constants in MHz :           197.616790            94.842042            82.173091 

Dipole components along the rotational axes: 
x,y,z [a.u.] :     0.187047     1.002739     0.161363 
x,y,z [Debye]:     0.475436     2.548760     0.410151 

 

Dipole moment calculation done in   0.1 sec 

Maximum memory used throughout the entire PROP-calculation: 42.3 MB

--------------------------------
SUGGESTED CITATIONS FOR THIS RUN
--------------------------------

Below you find a list of papers that are relevant to this ORCA run
We neither can nor want to force you to cite these papers, but we appreciate if you do
You receive ORCA, which is the product of decades of hard work by many enthusiastic individuals, for free
The only thing we kindly ask in return is that you cite our papers,
We deeply appreciate it, if you show your appreciation for ORCA by not just citing the generic ORCA reference.

Please note that relegating all ORCA citations to the supporting information does *not* help us.
SI sections are not indexed - citations you put there will not count into any citation statistics
But we need these citations in order to attract the funding resources that allow us to do what we are doing

Therefore, if you are a happy ORCA user, please consider citing a few of the papers listed below in the main body of your paper

In addition to the list printed below, the program has created the file /home/nmrbox/aojoawo/Documents/ERDOS/inputs/CHEMBL3577890.bibtex that contains the list in bibtex format
You can import this file easily into all common literature databanks and citation aid programs


List of essential papers. We consider these as the minimum necessary citations

  1. Neese,F.
     Software update: the ORCA program system, version 5.0
     WIRES Comput. Molec. Sci., 2022 12(1)e1606
     doi.org/10.1002/wcms.1606

List of papers to cite with high priority. The work reported in these papers was absolutely
necessary for this run to complete.
Our perspective: the developers of density functionals and basis sets usually get cited in chemistry papers
Good! But without the algorithms to do something with them, the functionals or basis sets would not do anything.
Hence, in our opinion, the algorithm design and method developments papers are equally worthy of getting cited

  1. Neese,F.
     An improvement of the resolution of the identity approximation for the formation of the Coulomb matrix
     J. Comp. Chem., 2003 24(14)1740-1747
     doi.org/10.1002/jcc.10318
  2. Neese,F.; Wennmohs,F.; Hansen,A.; Becker,U.
     Efficient, approximate and parallel Hartree-Fock and hybrid DFT calculations. A 'chain-of-spheres' algorithm for the Hartree-Fock exchange
     Chem. Phys., 2009 356(1-3)98-109
     doi.org/10.1016/j.chemphys.2008.10.036
  3. Helmich-Paris,B.; de Souza,B.; Neese,F.; Izsák,R.
     An improved chain of spheres for exchange algorithm
     J. Chem. Phys., 2021 155 104109
     doi.org/doi: 10.1063/5.0058766.
  4. Neese,F.
     The SHARK Integral Generation and Digestion System
     J. Comp. Chem., 2022  1-16
     doi.org/10.1002/jcc.26942

List of suggested additional citations. These are papers that are important in the 'surrounding' of 
of this run, or papers that preceded the highly important papers. If you like your results we are grateful for a citation.

  1. Izsak,R.; Neese,F.
     An overlap fitted chain of spheres exchange method
     J. Chem. Phys., 2011 135 144105
     doi.org/10.1063/1.3646921
  2. Izsak,R.; Hansen,A.; Neese,F.
     The resolution of identity and chain of spheres approximations for the LPNO-CCSD singles Fock term
     Molec. Phys., 2012 110 2413-2417
     doi.org/10.1080/00268976.2012.687466
  3. Neese,F.
     The ORCA program system
     WIRES Comput. Molec. Sci., 2012 2(1)73-78
     doi.org/10.1002/wcms.81
  4. Izsak,R.; Neese,F.; Klopper,W.
     Robust fitting techniques in the chain of spheres approximation to the Fock exchange: The role of the complementary space
     J. Chem. Phys., 2013 139 
     doi.org/10.1063/1.4819264
  5. Neese,F.
     Software update: the ORCA program system, version 4.0
     WIRES Comput. Molec. Sci., 2018 8(1)1-6
     doi.org/10.1002/wcms.1327
  6. Neese,F.; Wennmohs,F.; Becker,U.; Riplinger,C.
     The ORCA quantum chemistry program package
     J. Chem. Phys., 2020 152 Art. No. L224108
     doi.org/10.1063/5.0004608

List of optional additional citations

  1. Neese,F.
     Approximate second-order SCF convergence for spin unrestricted wavefunctions
     Chem. Phys. Lett., 2000 325(1-3)93-98
     doi.org/10.1016/s0009-2614(00)00662-x

Timings for individual modules:

Sum of individual times          ...      458.821 sec (=   7.647 min)
Startup calculation              ...       11.388 sec (=   0.190 min)   2.5 %
SCF iterations                   ...      447.118 sec (=   7.452 min)  97.4 %
Property calculations            ...        0.315 sec (=   0.005 min)   0.1 %
                             ****ORCA TERMINATED NORMALLY****
TOTAL RUN TIME: 0 days 0 hours 7 minutes 40 seconds 11 msec
