
                                 *****************
                                 * O   R   C   A *
                                 *****************

                                            #,                                       
                                            ###                                      
                                            ####                                     
                                            #####                                    
                                            ######                                   
                                           ########,                                 
                                     ,,################,,,,,                         
                               ,,#################################,,                 
                          ,,##########################################,,             
                       ,#########################################, ''#####,          
                    ,#############################################,,   '####,        
                  ,##################################################,,,,####,       
                ,###########''''           ''''###############################       
              ,#####''   ,,,,##########,,,,          '''####'''          '####       
            ,##' ,,,,###########################,,,                        '##       
           ' ,,###''''                  '''############,,,                           
         ,,##''                                '''############,,,,        ,,,,,,###''
      ,#''                                            '''#######################'''  
     '                                                          ''''####''''         
             ,#######,   #######,   ,#######,      ##                                
            ,#'     '#,  ##    ##  ,#'     '#,    #''#        ,####,   ,####,        
            ##       ##  ##   ,#'  ##            #'  '#       #'       #'  '#        
            ##       ##  #######   ##           ,######,      #####,   #    #        
            '#,     ,#'  ##    ##  '#,     ,#' ,#      #,     #,   #   #,  ,#        
             '#######'   ##     ##  '#######'  #'      '#     '####' # '####'        



                #########################################################
                #                        -***-                          #
                #          Department of theory and spectroscopy        #
                #                                                       #
                #                      Frank Neese                      #
                #                                                       #
                #     Directorship, Architecture, Infrastructure        #
                #                    SHARK, DRIVERS                     #
                #        Core code/Algorithms in most modules           #
                #                                                       #
                #        Max Planck Institute fuer Kohlenforschung      #
                #                Kaiser Wilhelm Platz 1                 #
                #                 D-45470 Muelheim/Ruhr                 #
                #                      Germany                          #
                #                                                       #
                #                  All rights reserved                  #
                #                        -***-                          #
                #########################################################


                         Program Version 6.0.0  -   RELEASE  -


 With contributions from (in alphabetic order):
   Daniel Aravena         : Magnetic Suceptibility
   Michael Atanasov       : Ab Initio Ligand Field Theory (pilot matlab implementation)
   Alexander A. Auer      : GIAO ZORA, VPT2 properties, NMR spectrum
   Ute Becker             : All parallelization in ORCA, NUMFREQ, NUMCALC
   Giovanni Bistoni       : ED, misc. LED, open-shell LED, HFLD
   Martin Brehm           : Molecular dynamics
   Dmytro Bykov           : pre 5.0 version of the SCF Hessian
   Marcos Casanova-Páez   : Triplet and SCS-CIS(D). UHF-(DLPNO)-IP/EA/STEOM-CCSD. UHF-CVS-IP/STEOM-CCSD
   Vijay G. Chilkuri      : MRCI spin determinant printing, contributions to CSF-ICE
   Pauline Colinet        : FMM embedding
   Dipayan Datta          : RHF DLPNO-CCSD density
   Achintya Kumar Dutta   : EOM-CC, STEOM-CC
   Nicolas Foglia         : Exact transition moments, OPA infrastructure, MCD improvements
   Dmitry Ganyushin       : Spin-Orbit,Spin-Spin,Magnetic field MRCI
   Miquel Garcia          : C-PCM and meta-GGA Hessian, CCSD/C-PCM, Gaussian charge scheme
   Tiago L. C. Gouveia    : GS-ROHF, GS-ROCIS
   Yang Guo               : DLPNO-NEVPT2, F12-NEVPT2, CIM, IAO-localization
   Andreas Hansen         : Spin unrestricted coupled pair/coupled cluster methods
   Ingolf Harden          : AUTO-CI MPn and infrastructure 
   Benjamin Helmich-Paris : MC-RPA, TRAH-(SCF,CASSCF), AVAS, COSX integrals, SCF dyn. polar.
   Lee Huntington         : MR-EOM, pCC
   Robert Izsak           : Overlap fitted RIJCOSX, COSX-SCS-MP3, EOM
   Riya Kayal             : Wick's Theorem for AUTO-CI, AUTO-CI UHF-CCSDT
   Emily Kempfer          : AUTO-CI, RHF CISDT and CCSDT
   Christian Kollmar      : KDIIS, OOCD, Brueckner-CCSD(T), CCSD density, CASPT2, CASPT2-K, improved NEVPT2
   Axel Koslowski         : Symmetry handling
   Simone Kossmann        : Meta GGA functionals, TD-DFT gradient, OOMP2, (MP2 Hessian; deprecated post 5.0)
   Lucas Lang             : DCDCAS
   Marvin Lechner         : AUTO-CI (C++ implementation), FIC-MRCC
   Spencer Leger          : CASSCF response
   Dagmar Lenk            : GEPOL surface, SMD, ORCA-2-JSON
   Dimitrios Liakos       : Extrapolation schemes; Compound Job, initial MDCI parallelization
   Dimitrios Manganas     : Further ROCIS development; embedding schemes. LFT, Crystal Embedding
   Dimitrios Pantazis     : SARC Basis sets
   Anastasios Papadopoulos: AUTO-CI, single reference methods and gradients
   Taras Petrenko         : pre 6.0 DFT Hessian and TD-DFT gradient, (ASA, deprecated), ECA, 1-Electron XAS/XES, NRVS
   Peter Pinski           : DLPNO-MP2, DLPNO-MP2 Gradient
   Christoph Reimann      : Effective Core Potentials
   Marius Retegan         : Local ZFS, SOC
   Christoph Riplinger    : Optimizer, TS searches, QM/MM, DLPNO-CCSD(T), (RO)-DLPNO pert. Triples
   Michael Roemelt        : Original ROCIS implementation
   Masaaki Saitow         : Open-shell DLPNO-CCSD energy and density
   Barbara Sandhoefer     : DKH picture change effects
   Kantharuban Sivalingam : CASSCF convergence/infrastructure, NEVPT2 and variants, FIC-MRCI
   Bernardo de Souza      : ESD, SOC TD-DFT
   Georgi Stoychev        : AutoAux, RI-MP2 NMR, DLPNO-MP2 response, X2C
   Van Anh Tran           : RI-MP2 g-tensors
   Willem Van den Heuvel  : Paramagnetic NMR
   Zikuan Wang            : NOTCH, Electric field optimization 
   Frank Wennmohs         : Technical directorship and infrastructure
   Hang Xu                : AUTO-CI-Response properties 


 We gratefully acknowledge several colleagues who have allowed us to
 interface, adapt or use parts of their codes:
   Stefan Grimme, W. Hujo, H. Kruse, P. Pracht,  : VdW corrections, initial TS optimization,
                  C. Bannwarth, S. Ehlert,         DFT functionals, gCP, sTDA/sTD-DF
                  L. Wittmann, M. Mueller
   Ed Valeev, F. Pavosevic, A. Kumar             : LibInt (2-el integral package), F12 methods
   Garnet Chan, S. Sharma, J. Yang, R. Olivares  : DMRG
   Ulf Ekstrom                                   : XCFun DFT Library
   Mihaly Kallay                                 : mrcc  (arbitrary order and MRCC methods)
   Frank Weinhold                                : gennbo (NPA and NBO analysis)
   Simon Mueller                                 : openCOSMO-RS
   Christopher J. Cramer and Donald G. Truhlar   : smd solvation model
   Lars Goerigk                                  : TD-DFT with DH, B97 family of functionals
   V. Asgeirsson, H. Jonsson                     : NEB implementation
   FAccTs GmbH                                   : IRC, NEB, NEB-TS, DLPNO-Multilevel, CI-OPT
                                                   MM, QMMM, 2- and 3-layer-ONIOM, Crystal-QMMM,
                                                   LR-CPCM, SF, NACMEs, symmetry and pop. for TD-DFT,
                                                   nearIR, NL-DFT gradient (VV10), updates on ESD,
                                                   ML-optimized integration grids, MBIS, APM,
                                                   GOAT, DOCKER, SOLVATOR, interface openCOSMO-RS
   S Lehtola, MJT Oliveira, MAL Marques          : LibXC Library
   Liviu Ungur et al                             : ANISO software


 Your calculation uses the libint2 library for the computation of 2-el integrals
 For citations please refer to: http://libint.valeyev.net

 Your ORCA version has been built with support for libXC version: 6.2.2
 For citations please refer to: https://libxc.gitlab.io

 This ORCA versions uses:
   CBLAS   interface :  Fast vector & matrix operations
   LAPACKE interface :  Fast linear algebra routines
   SCALAPACK package :  Parallel linear algebra routines
   Shared memory     :  Shared parallel matrices
   BLAS/LAPACK       :  OpenBLAS 0.3.27  USE64BITINT DYNAMIC_ARCH NO_AFFINITY SkylakeX SINGLE_THREADED
        Core in use  :  SkylakeX
   Copyright (c) 2011-2014, The OpenBLAS Project


Warning: RI is on but no J-basis has been assigned. Assigning Def2/J (nothing to worry about!)
================================================================================

----- Orbital basis set information -----
Your calculation utilizes the basis: 6-31G*
   H-He, Li-Ne : W. J. Hehre, R. Ditchfield and J.A. Pople, J. Chem. Phys. 56, 2257 (1972).
                 Note: He and Ne are unpublished basis sets taken from the Gaussian program.
                 Note: Li and B from J. D. Dill and J. A. Pople, J. Chem. Phys. 62, 2921 (1975).
   Na - Ar     : M. M. Francl, W. J. Pietro, W. J. Hehre, J. S. Binkley, M. S. Gordon, 
                 D. J. DeFrees and J. A. Pople, J. Chem. Phys. 77, 3654 (1982).
   K - Zn      : V. A. Rassolov, J. A. Pople, M. A. Ratner, and T. L. Windus, J. Chem. Phys. 109, 1223 (1998).

----- AuxJ basis set information -----
Your calculation utilizes the auxiliary basis: def2/J
   F. Weigend, Phys. Chem. Chem. Phys. 8, 1057 (2006).

================================================================================
                                        WARNINGS
                       Please study these warnings very carefully!
================================================================================


================================================================================
                                       INPUT FILE
================================================================================
NAME = /home/nmrbox/aojoawo/Documents/ERDOS/inputs/CHEMBL3682548.inp
|  1> ! B3LYP 6-31G* SP
|  2> 
|  3> * xyz -1 1
|  4> C -1.0558 -1.8502 -1.9032
|  5> C -1.9707 -1.1863 -0.8973
|  6> C -1.4401 -0.3619 0.1239
|  7> N -0.0405 -0.0567 0.1861
|  8> C 0.5462 0.8698 -0.7867
|  9> C 0.5114 2.2772 -0.2571
| 10> C 1.6630 2.8584 0.3003
| 11> C 1.6135 4.1522 0.8276
| 12> C 0.4160 4.8729 0.8038
| 13> C -0.7343 4.3003 0.2534
| 14> C -0.6894 3.0061 -0.2733
| 15> S 0.8319 -0.4567 1.6344
| 16> O 0.7436 0.6924 2.6002
| 17> O 0.2260 -1.6764 2.2713
| 18> C 2.5116 -0.8107 1.2430
| 19> C 3.5525 -0.0557 1.7989
| 20> C 4.8806 -0.3338 1.4633
| 21> C 5.1868 -1.3738 0.5684
| 22> C 6.5933 -1.6651 0.2141
| 23> O 6.8741 -2.6166 -0.5631
| 24> O 7.6259 -0.8928 0.7349
| 25> C 4.1365 -2.1301 0.0170
| 26> C 2.8096 -1.8489 0.3535
| 27> N -2.2620 0.1648 1.0698
| 28> C -3.6008 -0.0411 1.0683
| 29> C -4.1919 -0.8071 0.0609
| 30> C -5.5817 -1.0012 0.0435
| 31> C -6.1712 -1.7598 -0.9679
| 32> C -5.3813 -2.3267 -1.9678
| 33> C -3.9959 -2.1439 -1.9614
| 34> C -3.3756 -1.3859 -0.9434
| 35> H -1.2034 -1.3906 -2.9025
| 36> H -1.2758 -2.9368 -1.9569
| 37> H 0.0149 -1.7642 -1.6310
| 38> H -0.0129 0.8286 -1.7470
| 39> H 1.5877 0.5608 -1.0182
| 40> H 2.5964 2.3109 0.3292
| 41> H 2.5029 4.5953 1.2568
| 42> H 0.3791 5.8741 1.2129
| 43> H -1.6618 4.8582 0.2377
| 44> H -1.5892 2.5711 -0.6911
| 45> H 3.3402 0.7523 2.4864
| 46> H 5.6662 0.2661 1.9041
| 47> H 4.3394 -2.9367 -0.6761
| 48> H 2.0130 -2.4376 -0.0833
| 49> H -4.2032 0.4073 1.8488
| 50> H -6.2111 -0.5643 0.8101
| 51> H -7.2436 -1.9054 -0.9787
| 52> H -5.8445 -2.9095 -2.7536
| 53> H -3.4255 -2.5923 -2.7632
| 54> *
| 55> 
| 56>                          ****END OF INPUT****
================================================================================

                       ****************************
                       * Single Point Calculation *
                       ****************************

---------------------------------
CARTESIAN COORDINATES (ANGSTROEM)
---------------------------------
  C     -1.055800   -1.850200   -1.903200
  C     -1.970700   -1.186300   -0.897300
  C     -1.440100   -0.361900    0.123900
  N     -0.040500   -0.056700    0.186100
  C      0.546200    0.869800   -0.786700
  C      0.511400    2.277200   -0.257100
  C      1.663000    2.858400    0.300300
  C      1.613500    4.152200    0.827600
  C      0.416000    4.872900    0.803800
  C     -0.734300    4.300300    0.253400
  C     -0.689400    3.006100   -0.273300
  S      0.831900   -0.456700    1.634400
  O      0.743600    0.692400    2.600200
  O      0.226000   -1.676400    2.271300
  C      2.511600   -0.810700    1.243000
  C      3.552500   -0.055700    1.798900
  C      4.880600   -0.333800    1.463300
  C      5.186800   -1.373800    0.568400
  C      6.593300   -1.665100    0.214100
  O      6.874100   -2.616600   -0.563100
  O      7.625900   -0.892800    0.734900
  C      4.136500   -2.130100    0.017000
  C      2.809600   -1.848900    0.353500
  N     -2.262000    0.164800    1.069800
  C     -3.600800   -0.041100    1.068300
  C     -4.191900   -0.807100    0.060900
  C     -5.581700   -1.001200    0.043500
  C     -6.171200   -1.759800   -0.967900
  C     -5.381300   -2.326700   -1.967800
  C     -3.995900   -2.143900   -1.961400
  C     -3.375600   -1.385900   -0.943400
  H     -1.203400   -1.390600   -2.902500
  H     -1.275800   -2.936800   -1.956900
  H      0.014900   -1.764200   -1.631000
  H     -0.012900    0.828600   -1.747000
  H      1.587700    0.560800   -1.018200
  H      2.596400    2.310900    0.329200
  H      2.502900    4.595300    1.256800
  H      0.379100    5.874100    1.212900
  H     -1.661800    4.858200    0.237700
  H     -1.589200    2.571100   -0.691100
  H      3.340200    0.752300    2.486400
  H      5.666200    0.266100    1.904100
  H      4.339400   -2.936700   -0.676100
  H      2.013000   -2.437600   -0.083300
  H     -4.203200    0.407300    1.848800
  H     -6.211100   -0.564300    0.810100
  H     -7.243600   -1.905400   -0.978700
  H     -5.844500   -2.909500   -2.753600
  H     -3.425500   -2.592300   -2.763200

----------------------------
CARTESIAN COORDINATES (A.U.)
----------------------------
  NO LB      ZA    FRAG     MASS         X           Y           Z
   0 C     6.0000    0    12.011   -1.995173   -3.496371   -3.596527
   1 C     6.0000    0    12.011   -3.724083   -2.241782   -1.695651
   2 C     6.0000    0    12.011   -2.721395   -0.683892    0.234137
   3 N     7.0000    0    14.007   -0.076534   -0.107147    0.351678
   4 C     6.0000    0    12.011    1.032168    1.643684   -1.486648
   5 C     6.0000    0    12.011    0.966406    4.303284   -0.485849
   6 C     6.0000    0    12.011    3.142615    5.401593    0.567485
   7 C     6.0000    0    12.011    3.049073    7.846521    1.563937
   8 C     6.0000    0    12.011    0.786126    9.208446    1.518962
   9 C     6.0000    0    12.011   -1.387626    8.126389    0.478857
  10 C     6.0000    0    12.011   -1.302777    5.680706   -0.516462
  11 S    16.0000    0    32.060    1.572063   -0.863038    3.088568
  12 O     8.0000    0    15.999    1.405200    1.308446    4.913666
  13 O     8.0000    0    15.999    0.427078   -3.167937    4.292135
  14 C     6.0000    0    12.011    4.746236   -1.532001    2.348930
  15 C     6.0000    0    12.011    6.713252   -0.105258    3.399428
  16 C     6.0000    0    12.011    9.222997   -0.630791    2.765236
  17 C     6.0000    0    12.011    9.801632   -2.596106    1.074120
  18 C     6.0000    0    12.011   12.459531   -3.146583    0.404590
  19 O     8.0000    0    15.999   12.990166   -4.944657   -1.064105
  20 O     8.0000    0    15.999   14.410863   -1.687147    1.388760
  21 C     6.0000    0    12.011    7.816852   -4.025306    0.032125
  22 C     6.0000    0    12.011    5.309375   -3.493915    0.668018
  23 N     7.0000    0    14.007   -4.274561    0.311427    2.021629
  24 C     6.0000    0    12.011   -6.804526   -0.077668    2.018794
  25 C     6.0000    0    12.011   -7.921543   -1.525198    0.115084
  26 C     6.0000    0    12.011  -10.547884   -1.891994    0.082203
  27 C     6.0000    0    12.011  -11.661878   -3.325540   -1.829066
  28 C     6.0000    0    12.011  -10.169183   -4.396826   -3.718603
  29 C     6.0000    0    12.011   -7.551157   -4.051384   -3.706509
  30 C     6.0000    0    12.011   -6.378960   -2.618971   -1.782768
  31 H     1.0000    0     1.008   -2.274096   -2.627853   -5.484930
  32 H     1.0000    0     1.008   -2.410913   -5.549748   -3.698005
  33 H     1.0000    0     1.008    0.028157   -3.333855   -3.082143
  34 H     1.0000    0     1.008   -0.024377    1.565827   -3.301352
  35 H     1.0000    0     1.008    3.000318    1.059758   -1.924119
  36 H     1.0000    0     1.008    4.906485    4.366968    0.622098
  37 H     1.0000    0     1.008    4.729796    8.683859    2.375008
  38 H     1.0000    0     1.008    0.716395   11.100440    2.292049
  39 H     1.0000    0     1.008   -3.140347    9.180668    0.449188
  40 H     1.0000    0     1.008   -3.003153    4.858675   -1.305990
  41 H     1.0000    0     1.008    6.312063    1.421641    4.698615
  42 H     1.0000    0     1.008   10.707566    0.502856    3.598228
  43 H     1.0000    0     1.008    8.200278   -5.549559   -1.277644
  44 H     1.0000    0     1.008    3.804019   -4.606396   -0.157414
  45 H     1.0000    0     1.008   -7.942897    0.769685    3.493726
  46 H     1.0000    0     1.008  -11.737278   -1.066372    1.530867
  47 H     1.0000    0     1.008  -13.688420   -3.600684   -1.849475
  48 H     1.0000    0     1.008  -11.044504   -5.498158   -5.203550
  49 H     1.0000    0     1.008   -6.473257   -4.898737   -5.221691

--------------------------------
INTERNAL COORDINATES (ANGSTROEM)
--------------------------------
 C      0   0   0     0.000000000000     0.00000000     0.00000000
 C      1   0   0     1.513155652932     0.00000000     0.00000000
 C      2   1   0     1.415634543235   120.55939934     0.00000000
 N      3   2   1     1.433839614462   121.40699914     4.25478633
 C      4   3   2     1.465932802007   119.76259969    72.78129034
 C      5   4   3     1.504148250672   110.39305755    91.32934557
 C      6   5   4     1.405229789038   120.51049683   100.65082970
 C      7   6   5     1.398003569380   120.22289946   181.94657332
 C      8   7   6     1.397848768644   120.07008394     0.08183150
 C      9   8   7     1.397855861668   120.03099912     0.04725832
 C     10   9   8     1.397992324729   120.07485652     0.03809645
 S      4   3   2     1.737427595614   118.50840033   237.15856939
 O     12   4   3     1.503661311599   109.26806325   271.67819328
 O     12   4   3     1.503470821134   109.72713063    31.03251457
 C     12   4   3     1.760653870015   109.87772510   150.11635797
 C     15  12   4     1.400900646013   120.81612376   120.14621269
 C     16  15  12     1.397789891221   120.23040017   181.01187984
 C     17  16  15     1.405775391021   120.46327656   359.86059444
 C     18  17  16     1.479400699608   120.34521566   179.94561406
 O     19  18  17     1.260254232288   120.54330611   178.31918392
 O     19  18  17     1.390662680164   120.45730486   358.35831894
 C     18  17  16     1.406826833693   118.98670071   359.96386818
 C     22  18  17     1.397486779902   120.41865121     0.09443060
 N      3   2   1     1.359286323774   120.06665738   183.93987022
 C     24   3   2     1.354541435320   122.54473453   358.51798919
 C     25  24   3     1.396785584834   120.16074527   359.25056396
 C     26  25  24     1.403396455033   120.25677611   181.17877514
 C     27  26  25     1.394960275420   120.17888756   179.61296720
 C     28  27  26     1.394674739859   120.10020619   359.88493741
 C     29  28  27     1.397422613242   120.33404386     0.24573882
 C     30  29  28     1.412678339184   120.58442815     0.10591860
 H      1   2   3     1.109783046365   109.66205061   249.25992130
 H      1   2   3     1.109947408664   109.98917482   128.65724990
 H      1   2   3     1.108100776103   112.76010068    10.29761301
 H      5   4   3     1.111965080387   110.39207231   330.63170750
 H      5   4   3     1.110763476173   109.73995822   213.75487754
 H      7   6   5     1.082509593491   120.53282485     1.78795833
 H      8   7   6     1.082396697149   119.95530097   179.93862990
 H      9   8   7     1.082185686470   119.98469588   179.96332378
 H     10   9   8     1.082476396971   119.97892777   179.84348716
 H     11  10   9     1.083245992377   119.36619840   179.59963350
 H     16  15  12     1.081938787548   120.58637921     0.59790842
 H     17  16  15     1.082290169040   118.79078871   179.81216875
 H     22  18  17     1.082663188623   120.76490601   179.91817742
 H     23  22  18     1.082558769767   119.47886409   179.72102786
 H     25  24   3     1.083110599154   119.07699933   180.10886964
 H     27  26  25     1.083836486745   120.70159984   359.77221439
 H     28  27  26     1.082292825441   119.94205582   180.12104086
 H     29  28  27     1.082447098014   119.79853671   180.36634653
 H     30  29  28     1.081342665393   117.73056838   180.70775939

---------------------------
INTERNAL COORDINATES (A.U.)
---------------------------
 C      0   0   0     0.000000000000     0.00000000     0.00000000
 C      1   0   0     2.859449782036     0.00000000     0.00000000
 C      2   1   0     2.675161592433   120.55939934     0.00000000
 N      3   2   1     2.709564191300   121.40699914     4.25478633
 C      4   3   2     2.770211526525   119.76259969    72.78129034
 C      5   4   3     2.842428258587   110.39305755    91.32934557
 C      6   5   4     2.655499456510   120.51049683   100.65082970
 C      7   6   5     2.641843880373   120.22289946   181.94657332
 C      8   7   6     2.641551349377   120.07008394     0.08183150
 C      9   8   7     2.641564753249   120.03099912     0.04725832
 C     10   9   8     2.641822631061   120.07485652     0.03809645
 S      4   3   2     3.283262333227   118.50840033   237.15856939
 O     12   4   3     2.841508077095   109.26806325   271.67819328
 O     12   4   3     2.841148102284   109.72713063    31.03251457
 C     12   4   3     3.327153630958   109.87772510   150.11635797
 C     15  12   4     2.647318561798   120.81612376   120.14621269
 C     16  15  12     2.641440087172   120.23040017   181.01187984
 C     17  16  15     2.656530494836   120.46327656   359.86059444
 C     18  17  16     2.795662164590   120.34521566   179.94561406
 O     19  18  17     2.381535358140   120.54330611   178.31918392
 O     19  18  17     2.627971610174   120.45730486   358.35831894
 C     18  17  16     2.658517433532   118.98670071   359.96386818
 C     22  18  17     2.640867289790   120.41865121     0.09443060
 N      3   2   1     2.568678889518   120.06665738   183.93987022
 C     24   3   2     2.559712349804   122.54473453   358.51798919
 C     25  24   3     2.639542223145   120.16074527   359.25056396
 C     26  25  24     2.652034957329   120.25677611   181.17877514
 C     27  26  25     2.636092888243   120.17888756   179.61296720
 C     28  27  26     2.635553304231   120.10020619   359.88493741
 C     29  28  27     2.640746032376   120.33404386     0.24573882
 C     30  29  28     2.669575176381   120.58442815     0.10591860
 H      1   2   3     2.097186025699   109.66205061   249.25992130
 H      1   2   3     2.097496625431   109.98917482   128.65724990
 H      1   2   3     2.094006995620   112.76010068    10.29761301
 H      5   4   3     2.101309472415   110.39207231   330.63170750
 H      5   4   3     2.099038769529   109.73995822   213.75487754
 H      7   6   5     2.045646669040   120.53282485     1.78795833
 H      8   7   6     2.045433325873   119.95530097   179.93862990
 H      9   8   7     2.045034573477   119.98469588   179.96332378
 H     10   9   8     2.045583936710   119.97892777   179.84348716
 H     11  10   9     2.047038261260   119.36619840   179.59963350
 H     16  15  12     2.044568002132   120.58637921     0.59790842
 H     17  16  15     2.045232016920   118.79078871   179.81216875
 H     22  18  17     2.045936921776   120.76490601   179.91817742
 H     23  22  18     2.045739598735   119.47886409   179.72102786
 H     25  24   3     2.046782405149   119.07699933   180.10886964
 H     27  26  25     2.048154133900   120.70159984   359.77221439
 H     28  27  26     2.045237036790   119.94205582   180.12104086
 H     29  28  27     2.045528569705   119.79853671   180.36634653
 H     30  29  28     2.043441494518   117.73056838   180.70775939

---------------------
BASIS SET INFORMATION
---------------------
There are 5 groups of distinct atoms

 Group   1 Type C   : 10s4p1d contracted to 3s2p1d pattern {631/31/1}
 Group   2 Type N   : 10s4p1d contracted to 3s2p1d pattern {631/31/1}
 Group   3 Type S   : 16s10p1d contracted to 4s3p1d pattern {6631/631/1}
 Group   4 Type O   : 10s4p1d contracted to 3s2p1d pattern {631/31/1}
 Group   5 Type H   : 4s contracted to 2s pattern {31}

Atom   0C    basis set group =>   1
Atom   1C    basis set group =>   1
Atom   2C    basis set group =>   1
Atom   3N    basis set group =>   2
Atom   4C    basis set group =>   1
Atom   5C    basis set group =>   1
Atom   6C    basis set group =>   1
Atom   7C    basis set group =>   1
Atom   8C    basis set group =>   1
Atom   9C    basis set group =>   1
Atom  10C    basis set group =>   1
Atom  11S    basis set group =>   3
Atom  12O    basis set group =>   4
Atom  13O    basis set group =>   4
Atom  14C    basis set group =>   1
Atom  15C    basis set group =>   1
Atom  16C    basis set group =>   1
Atom  17C    basis set group =>   1
Atom  18C    basis set group =>   1
Atom  19O    basis set group =>   4
Atom  20O    basis set group =>   4
Atom  21C    basis set group =>   1
Atom  22C    basis set group =>   1
Atom  23N    basis set group =>   2
Atom  24C    basis set group =>   1
Atom  25C    basis set group =>   1
Atom  26C    basis set group =>   1
Atom  27C    basis set group =>   1
Atom  28C    basis set group =>   1
Atom  29C    basis set group =>   1
Atom  30C    basis set group =>   1
Atom  31H    basis set group =>   5
Atom  32H    basis set group =>   5
Atom  33H    basis set group =>   5
Atom  34H    basis set group =>   5
Atom  35H    basis set group =>   5
Atom  36H    basis set group =>   5
Atom  37H    basis set group =>   5
Atom  38H    basis set group =>   5
Atom  39H    basis set group =>   5
Atom  40H    basis set group =>   5
Atom  41H    basis set group =>   5
Atom  42H    basis set group =>   5
Atom  43H    basis set group =>   5
Atom  44H    basis set group =>   5
Atom  45H    basis set group =>   5
Atom  46H    basis set group =>   5
Atom  47H    basis set group =>   5
Atom  48H    basis set group =>   5
Atom  49H    basis set group =>   5
---------------------------------
AUXILIARY/J BASIS SET INFORMATION
---------------------------------
There are 5 groups of distinct atoms

 Group   1 Type C   : 12s5p4d2f1g contracted to 6s4p3d1f1g pattern {711111/2111/211/2/1}
 Group   2 Type N   : 12s5p4d2f1g contracted to 6s4p3d1f1g pattern {711111/2111/211/2/1}
 Group   3 Type S   : 14s5p5d2f1g contracted to 8s4p3d1f1g pattern {71111111/2111/311/2/1}
 Group   4 Type O   : 12s5p4d2f1g contracted to 6s4p3d1f1g pattern {711111/2111/211/2/1}
 Group   5 Type H   : 5s2p1d contracted to 3s1p1d pattern {311/2/1}

Atom   0C    basis set group =>   1
Atom   1C    basis set group =>   1
Atom   2C    basis set group =>   1
Atom   3N    basis set group =>   2
Atom   4C    basis set group =>   1
Atom   5C    basis set group =>   1
Atom   6C    basis set group =>   1
Atom   7C    basis set group =>   1
Atom   8C    basis set group =>   1
Atom   9C    basis set group =>   1
Atom  10C    basis set group =>   1
Atom  11S    basis set group =>   3
Atom  12O    basis set group =>   4
Atom  13O    basis set group =>   4
Atom  14C    basis set group =>   1
Atom  15C    basis set group =>   1
Atom  16C    basis set group =>   1
Atom  17C    basis set group =>   1
Atom  18C    basis set group =>   1
Atom  19O    basis set group =>   4
Atom  20O    basis set group =>   4
Atom  21C    basis set group =>   1
Atom  22C    basis set group =>   1
Atom  23N    basis set group =>   2
Atom  24C    basis set group =>   1
Atom  25C    basis set group =>   1
Atom  26C    basis set group =>   1
Atom  27C    basis set group =>   1
Atom  28C    basis set group =>   1
Atom  29C    basis set group =>   1
Atom  30C    basis set group =>   1
Atom  31H    basis set group =>   5
Atom  32H    basis set group =>   5
Atom  33H    basis set group =>   5
Atom  34H    basis set group =>   5
Atom  35H    basis set group =>   5
Atom  36H    basis set group =>   5
Atom  37H    basis set group =>   5
Atom  38H    basis set group =>   5
Atom  39H    basis set group =>   5
Atom  40H    basis set group =>   5
Atom  41H    basis set group =>   5
Atom  42H    basis set group =>   5
Atom  43H    basis set group =>   5
Atom  44H    basis set group =>   5
Atom  45H    basis set group =>   5
Atom  46H    basis set group =>   5
Atom  47H    basis set group =>   5
Atom  48H    basis set group =>   5
Atom  49H    basis set group =>   5
------------------------------------------------------------------------------
                             ORCA STARTUP CALCULATIONS
                           -- RI-GTO INTEGRALS CHOSEN --
------------------------------------------------------------------------------
------------------------------------------------------------------------------
                   ___                                                        
                  /   \      - P O W E R E D   B Y -                         
                 /     \                                                     
                 |  |  |   _    _      __       _____    __    __             
                 |  |  |  | |  | |    /  \     |  _  \  |  |  /  |          
                  \  \/   | |  | |   /    \    | | | |  |  | /  /          
                 / \  \   | |__| |  /  /\  \   | |_| |  |  |/  /          
                |  |  |   |  __  | /  /__\  \  |    /   |      \           
                |  |  |   | |  | | |   __   |  |    \   |  |\   \          
                \     /   | |  | | |  |  |  |  | |\  \  |  | \   \       
                 \___/    |_|  |_| |__|  |__|  |_| \__\ |__|  \__/        
                                                                              
                      - O R C A' S   B I G   F R I E N D -                    
                                      &                                       
                       - I N T E G R A L  F E E D E R -                       
                                                                              
 v1 FN, 2020, v2 2021, v3 2022-2024                                           
------------------------------------------------------------------------------


----------------------
SHARK INTEGRAL PACKAGE
----------------------

Number of atoms                             ...     50
Number of basis functions                   ...    476
Number of shells                            ...    226
Maximum angular momentum                    ...      2
Integral batch strategy                     ... SHARK/LIBINT Hybrid
RI-J (if used) integral strategy            ... SPLIT-RIJ (Revised 2003 algorithm where possible)
Printlevel                                  ...      1
Contraction scheme used                     ... SEGMENTED contraction
Prescreening option                         ... SCHWARTZ
   Thresh                                   ... 1.000e-10
   Tcut                                     ... 1.000e-11
   Tpresel                                  ... 1.000e-11 
Coulomb Range Separation                    ... NOT USED
Exchange Range Separation                   ... NOT USED
Multipole approximations                    ... NOT USED
Finite Nucleus Model                        ... NOT USED
CABS basis                                  ... NOT available
Auxiliary Coulomb fitting basis             ... AVAILABLE
   # of basis functions in Aux-J            ...   1730
   # of shells in Aux-J                     ...    562
   Maximum angular momentum in Aux-J        ...      4
Auxiliary J/K fitting basis                 ... NOT available
Auxiliary Correlation fitting basis         ... NOT available
Auxiliary 'external' fitting basis          ... NOT available

Checking pre-screening integrals            ... done (  0.0 sec) Dimension = 226
Check shell pair data                       ... done (  0.0 sec)
Shell pair information
Shell pair cut-off parameter TPreSel        ...   1.0e-11
Total number of shell pairs                 ...     25651
Shell pairs after pre-screening             ...     15298
Total number of primitive shell pairs       ...    153919
Primitive shell pairs kept                  ...     47366
          la=0 lb=0:   4920 shell pairs
          la=1 lb=0:   5405 shell pairs
          la=1 lb=1:   1491 shell pairs
          la=2 lb=0:   2058 shell pairs
          la=2 lb=1:   1200 shell pairs
          la=2 lb=2:    224 shell pairs

Calculating one electron integrals          ... done (  0.2 sec)
Calculating RI/J V-Matrix + Cholesky decomp.... done (  0.5 sec)
Calculating Nuclear repulsion               ... done (  0.1 sec) ENN=   3126.856020848853 Eh

Diagonalization of the overlap matrix:
Smallest eigenvalue                        ... 3.521e-04
Time for diagonalization                   ...    0.030 sec
Threshold for overlap eigenvalues          ... 1.000e-07
Number of eigenvalues below threshold      ... 0
Time for construction of square roots      ...    0.036 sec
Total time needed                          ...    0.079 sec

-------------------
DFT GRID GENERATION
-------------------

General Integration Accuracy     IntAcc      ... 4.388
Radial Grid Type                 RadialGrid  ... OptM3 with GC (2021)
Angular Grid (max. ang.)         AngularGrid ... 4 (Lebedev-302)
Angular grid pruning method      GridPruning ... 4 (adaptive)
Weight generation scheme         WeightScheme... mBecke (2022)
Basis function cutoff            BFCut       ... 1.0000e-10
Integration weight cutoff        WCut        ... 1.0000e-14
Partially contracted basis set               ... off
Rotationally invariant grid construction     ... off
Angular grids for H and He will be reduced by one unit

Total number of grid points                  ...   246634
Total number of batches                      ...     3878
Average number of points per batch           ...       63
Average number of grid points per atom       ...     4933

--------------------
COSX GRID GENERATION
--------------------

GRIDX 1
-------
General Integration Accuracy     IntAcc      ... 3.816
Radial Grid Type                 RadialGrid  ... OptM3 with GC (2021)
Angular Grid (max. ang.)         AngularGrid ... 1 (Lebedev-50)
Angular grid pruning method      GridPruning ... 4 (adaptive)
Weight generation scheme         WeightScheme... mBecke (2022)
Basis function cutoff            BFCut       ... 1.0000e-10
Integration weight cutoff        WCut        ... 1.0000e-14
Partially contracted basis set               ... on
Rotationally invariant grid construction     ... off
Angular grids for H and He will be reduced by one unit

Total number of grid points                  ...    32250
Total number of batches                      ...      276
Average number of points per batch           ...      116
Average number of grid points per atom       ...      645
UseSFitting                                  ... on

GRIDX 2
-------
General Integration Accuracy     IntAcc      ... 4.020
Radial Grid Type                 RadialGrid  ... OptM3 with GC (2021)
Angular Grid (max. ang.)         AngularGrid ... 2 (Lebedev-110)
Angular grid pruning method      GridPruning ... 4 (adaptive)
Weight generation scheme         WeightScheme... mBecke (2022)
Basis function cutoff            BFCut       ... 1.0000e-10
Integration weight cutoff        WCut        ... 1.0000e-14
Partially contracted basis set               ... on
Rotationally invariant grid construction     ... off
Angular grids for H and He will be reduced by one unit

Total number of grid points                  ...    68303
Total number of batches                      ...      560
Average number of points per batch           ...      121
Average number of grid points per atom       ...     1366
UseSFitting                                  ... on

GRIDX 3
-------
General Integration Accuracy     IntAcc      ... 4.338
Radial Grid Type                 RadialGrid  ... OptM3 with GC (2021)
Angular Grid (max. ang.)         AngularGrid ... 3 (Lebedev-194)
Angular grid pruning method      GridPruning ... 4 (adaptive)
Weight generation scheme         WeightScheme... mBecke (2022)
Basis function cutoff            BFCut       ... 1.0000e-10
Integration weight cutoff        WCut        ... 1.0000e-14
Partially contracted basis set               ... on
Rotationally invariant grid construction     ... off
Angular grids for H and He will be reduced by one unit

Total number of grid points                  ...   149827
Total number of batches                      ...     1197
Average number of points per batch           ...      125
Average number of grid points per atom       ...     2997
UseSFitting                                  ... on
Initializing property integral containers    ... done (  0.0 sec)

SHARK setup successfully completed in   9.8 seconds

Maximum memory used throughout the entire STARTUP-calculation: 107.7 MB
-------------------------------------------------------------------------------
                                 ORCA GUESS
                   Start orbitals & Density for SCF / CASSCF
-------------------------------------------------------------------------------

------------
SCF SETTINGS
------------
Hamiltonian:
 Density Functional     Method          .... DFT(GTOs)
 Exchange Functional    Exchange        .... B88
   X-Alpha parameter    XAlpha          ....  0.666667
   Becke's b parameter  XBeta           ....  0.004200
 Correlation Functional Correlation     .... LYP
 LDA part of GGA corr.  LDAOpt          .... VWN-5
 Gradients option       PostSCFGGA      .... off
 Hybrid DFT is turned on
   Fraction HF Exchange ScalHFX         ....  0.200000
   Scaling of DF-GGA-X  ScalDFX         ....  0.720000
   Scaling of DF-GGA-C  ScalDFC         ....  0.810000
   Scaling of DF-LDA-C  ScalLDAC        ....  1.000000
   Perturbative correction              ....  0.000000
   NL short-range parameter             ....  4.800000
 RI-approximation to the Coulomb term is turned on
   Number of AuxJ basis functions       .... 1730
   RIJ-COSX (HFX calculated with COS-X)).... on


General Settings:
 Integral files         IntName         .... /home/nmrbox/aojoawo/Documents/ERDOS/inputs/CHEMBL3682548
 Hartree-Fock type      HFTyp           .... RHF
 Total Charge           Charge          ....   -1
 Multiplicity           Mult            ....    1
 Number of Electrons    NEL             ....  226
 Basis Dimension        Dim             ....  476
 Nuclear Repulsion      ENuc            ....   3126.8560208489 Eh

Convergence Acceleration:
 AO-DIIS                CNVDIIS         .... on
   Start iteration      DIISMaxIt       ....    12
   Startup error        DIISStart       ....  0.200000
   # of expansion vecs  DIISMaxEq       ....     5
   Bias factor          DIISBfac        ....   1.050
   Max. coefficient     DIISMaxC        ....  10.000
 MO-DIIS                CNVKDIIS        .... off
 Trust-Rad. Augm. Hess. CNVTRAH         .... auto
   Auto Start mean grad. ratio tolernc. ....  1.125000
   Auto Start start iteration           ....    50
   Auto Start num. interpolation iter.  ....    10
   Max. Number of Micro iterations      ....    24
   Max. Number of Macro iterations      .... Maxiter - #DIIS iter
   Number of Davidson start vectors     ....     2
   Converg. threshold    (grad. norm)   ....   5.000e-05
   Grad. Scal. Fac. for Micro threshold ....   0.100
   Minimum threshold for Micro iter.    ....   1.000e-02
   NR start threshold (gradient norm)   ....   1.000e-04
   Initial trust radius                 ....   0.400
   Minimum AH scaling param. (alpha)    ....   1.000
   Maximum AH scaling param. (alpha)    .... 1000.000
   Quad. conv. algorithm                .... NR
   White noise on init. David. guess    .... on
   Maximum white noise                  ....   0.010
   Pseudo random numbers                .... off
   Inactive MOs                         .... canonical
   Orbital update algorithm             .... Taylor
   Preconditioner                       .... Diag
   Full preconditioner red. dimension   ....   250
 SOSCF                  CNVSOSCF        .... on
   Start iteration      SOSCFMaxIt      ....   150
   Startup grad/error   SOSCFStart      ....  0.003300
   Hessian update       SOSCFHessUp     .... L-BFGS
 Level Shifting         CNVShift        .... on
   Level shift para.    LevelShift      ....    0.2500
   Turn off err/grad.   ShiftErr        ....    0.0010
 Zerner damping         CNVZerner       .... off
 Static damping         CNVDamp         .... on
   Fraction old density DampFac         ....    0.7000
   Max. Damping (<1)    DampMax         ....    0.9800
   Min. Damping (>=0)   DampMin         ....    0.0000
   Turn off err/grad.   DampErr         ....    0.1000

SCF Procedure:
 Maximum # iterations   MaxIter         ....   125
 SCF integral mode      SCFMode         .... Direct
   Integral package                     .... SHARK and LIBINT hybrid scheme
 Reset frequency        DirectResetFreq ....    20
 Integral Threshold     Thresh          ....  1.000e-10 Eh
 Primitive CutOff       TCut            ....  1.000e-11 Eh

Convergence Tolerance:
 Convergence Check Mode ConvCheckMode   .... Total+1el-Energy
 Convergence forced     ConvForced      .... 0
 Energy Change          TolE            ....  1.000e-06 Eh
 1-El. energy change                    ....  1.000e-03 Eh
 Orbital Gradient       TolG            ....  5.000e-05
 Orbital Rotation angle TolX            ....  5.000e-05
 DIIS Error             TolErr          ....  1.000e-06

------------------------------
INITIAL GUESS: MODEL POTENTIAL
------------------------------
Loading Hartree-Fock densities                     ... done
Calculating cut-offs                               ... done
Initializing the effective Hamiltonian             ... done
Setting up the integral package (SHARK)            ... done
Starting the Coulomb interaction                   ... done (   2.1 sec)
Making the grid                                    ... done (   1.2 sec)
Mapping shells                                     ... done
Starting the XC term evaluation                    ... done (   0.9 sec)
  promolecular density results
     # of electrons  =    224.993113715
     EX              =   -199.961914814
     EC              =     -7.831975014
     EX+EC           =   -207.793889828
Transforming the Hamiltonian                       ... done (   0.0 sec)
Diagonalizing the Hamiltonian                      ... done (   0.0 sec)
Back transforming the eigenvectors                 ... done (   0.0 sec)
Now organizing SCF variables                       ... done
                      ------------------
                      INITIAL GUESS DONE (   4.3 sec)
                      ------------------
             **** ENERGY FILE WAS UPDATED (/home/nmrbox/aojoawo/Documents/ERDOS/inputs/CHEMBL3682548.en.tmp) ****
Finished Guess after   5.0 sec
Maximum memory used throughout the entire GUESS-calculation: 59.0 MB

-------------------------------------------------------------------------------------------
                                      ORCA LEAN-SCF
                              memory conserving SCF solver
-------------------------------------------------------------------------------------------

----------------------------------------D-I-I-S--------------------------------------------
Iteration    Energy (Eh)           Delta-E    RMSDP     MaxDP     DIISErr   Damp  Time(sec)
-------------------------------------------------------------------------------------------
               ***  Starting incremental Fock matrix formation  ***
    1    -1732.6675770824440406     0.00e+00  3.03e-03  1.90e-01  3.20e-01  0.700  42.8
Warning: op=0 Small HOMO/LUMO gap (  -0.050) - skipping pre-diagonalization
         Will do a full diagonalization
    2    -1733.1437963402131572    -4.76e-01  1.83e-03  9.72e-02  1.18e-01  0.700  19.4
                               ***Turning on AO-DIIS***
    3    -1733.3168406483600847    -1.73e-01  7.23e-04  1.84e-02  3.38e-02  0.700  18.7
    4    -1733.4242629288728494    -1.07e-01  1.20e-03  2.77e-02  1.63e-02  0.000  17.2
    5    -1733.6641474559037306    -2.40e-01  3.02e-04  1.06e-02  6.66e-03  0.000  18.4
                              *** Initializing SOSCF ***
---------------------------------------S-O-S-C-F--------------------------------------
Iteration    Energy (Eh)           Delta-E    RMSDP     MaxDP     MaxGrad    Time(sec)
--------------------------------------------------------------------------------------
    6    -1733.6658466349354057    -1.70e-03  1.14e-04  3.68e-03  2.63e-03    16.1
               *** Restarting incremental Fock matrix formation ***
    7    -1733.6659766000657328    -1.30e-04  1.10e-04  4.91e-03  9.56e-04    41.1
    8    -1733.6659899133965155    -1.33e-05  7.21e-05  2.92e-03  1.29e-03    24.8
    9    -1733.6660790463083686    -8.91e-05  3.63e-05  1.82e-03  2.85e-04    23.0
   10    -1733.6660773919566054     1.65e-06  1.91e-05  1.21e-03  3.96e-04    20.7
   11    -1733.6660897198526072    -1.23e-05  1.42e-05  4.20e-04  9.96e-05    18.8
   12    -1733.6660902422909203    -5.22e-07  1.03e-05  2.68e-04  1.50e-04    18.0
                 **** Energy Check signals convergence ****

               *****************************************************
               *                     SUCCESS                       *
               *           SCF CONVERGED AFTER  12 CYCLES          *
               *****************************************************

Recomputing exchange energy using gridx3       ... done (   71.414 sec)
Old exchange energy                            :    -40.524488025 Eh
New exchange energy                            :    -40.524500138 Eh
Exchange energy change after final integration :     -0.000012114 Eh
Total energy after final integration           :  -1733.666102356 Eh
             **** ENERGY FILE WAS UPDATED (/home/nmrbox/aojoawo/Documents/ERDOS/inputs/CHEMBL3682548.en.tmp) ****

----------------
TOTAL SCF ENERGY
----------------

Total Energy       :      -1733.66610235581811 Eh          -47175.45300 eV

Components:
Nuclear Repulsion  :       3126.85602084885340 Eh           85086.07802 eV
Electronic Energy  :      -4860.52211109114432 Eh         -132261.53069 eV
One Electron Energy:      -8609.85540740935721 Eh         -234286.07651 eV
Two Electron Energy:       3749.33329631821289 Eh          102024.54582 eV

Virial components:
Potential Energy   :      -3457.91473214968710 Eh          -94094.64354 eV
Kinetic Energy     :       1724.24862979386899 Eh           46919.19054 eV
Virial Ratio       :          2.00546178341060

DFT components:
N(Alpha)           :      112.999999233880 electrons
N(Beta)            :      112.999999233880 electrons
N(Total)           :      225.999998467759 electrons
E(X)               :     -161.045339125815 Eh       
E(C)               :       -9.246116884283 Eh       
E(XC)              :     -170.291456010098 Eh       

---------------
SCF CONVERGENCE
---------------

  Last Energy change         ...    5.2244e-07  Tolerance :   1.0000e-06
  Last MAX-Density change    ...    2.6782e-04  Tolerance :   1.0000e-05
  Last RMS-Density change    ...    1.0287e-05  Tolerance :   1.0000e-06
  Last DIIS Error            ...    2.6320e-03  Tolerance :   1.0000e-06
  Last Orbital Gradient      ...    1.4957e-04  Tolerance :   5.0000e-05
  Last Orbital Rotation      ...    1.1153e-03  Tolerance :   5.0000e-05


----------------
ORBITAL ENERGIES
----------------

  NO   OCC          E(Eh)            E(eV) 
   0   2.0000     -88.994164     -2421.6543 
   1   2.0000     -19.021443      -517.5998 
   2   2.0000     -19.016168      -517.4562 
   3   2.0000     -18.907759      -514.5063 
   4   2.0000     -18.887010      -513.9417 
   5   2.0000     -14.281900      -388.6303 
   6   2.0000     -14.258279      -387.9875 
   7   2.0000     -10.189213      -277.2626 
   8   2.0000     -10.156274      -276.3663 
   9   2.0000     -10.152803      -276.2718 
  10   2.0000     -10.142747      -275.9982 
  11   2.0000     -10.140245      -275.9301 
  12   2.0000     -10.138928      -275.8942 
  13   2.0000     -10.137974      -275.8683 
  14   2.0000     -10.136476      -275.8275 
  15   2.0000     -10.135679      -275.8059 
  16   2.0000     -10.135602      -275.8038 
  17   2.0000     -10.120017      -275.3797 
  18   2.0000     -10.117532      -275.3120 
  19   2.0000     -10.110746      -275.1274 
  20   2.0000     -10.107317      -275.0341 
  21   2.0000     -10.106317      -275.0069 
  22   2.0000     -10.105632      -274.9882 
  23   2.0000     -10.104274      -274.9513 
  24   2.0000     -10.101850      -274.8853 
  25   2.0000     -10.096997      -274.7533 
  26   2.0000     -10.093033      -274.6454 
  27   2.0000     -10.092991      -274.6442 
  28   2.0000     -10.077267      -274.2164 
  29   2.0000     -10.075736      -274.1747 
  30   2.0000     -10.073948      -274.1261 
  31   2.0000      -8.029905      -218.5048 
  32   2.0000      -5.995532      -163.1467 
  33   2.0000      -5.992643      -163.0681 
  34   2.0000      -5.992195      -163.0559 
  35   2.0000      -0.979444       -26.6520 
  36   2.0000      -0.884274       -24.0623 
  37   2.0000      -0.856841       -23.3158 
  38   2.0000      -0.836923       -22.7738 
  39   2.0000      -0.816897       -22.2289 
  40   2.0000      -0.800939       -21.7946 
  41   2.0000      -0.771733       -20.9999 
  42   2.0000      -0.757950       -20.6249 
  43   2.0000      -0.741764       -20.1844 
  44   2.0000      -0.713771       -19.4227 
  45   2.0000      -0.697939       -18.9919 
  46   2.0000      -0.691098       -18.8057 
  47   2.0000      -0.678613       -18.4660 
  48   2.0000      -0.665108       -18.0985 
  49   2.0000      -0.663325       -18.0500 
  50   2.0000      -0.645231       -17.5576 
  51   2.0000      -0.634496       -17.2655 
  52   2.0000      -0.609619       -16.5886 
  53   2.0000      -0.586159       -15.9502 
  54   2.0000      -0.581129       -15.8133 
  55   2.0000      -0.544920       -14.8280 
  56   2.0000      -0.532651       -14.4942 
  57   2.0000      -0.527906       -14.3651 
  58   2.0000      -0.512547       -13.9471 
  59   2.0000      -0.503474       -13.7002 
  60   2.0000      -0.494939       -13.4680 
  61   2.0000      -0.468648       -12.7526 
  62   2.0000      -0.454123       -12.3573 
  63   2.0000      -0.443533       -12.0691 
  64   2.0000      -0.434502       -11.8234 
  65   2.0000      -0.428812       -11.6686 
  66   2.0000      -0.416267       -11.3272 
  67   2.0000      -0.411000       -11.1839 
  68   2.0000      -0.392726       -10.6866 
  69   2.0000      -0.387843       -10.5538 
  70   2.0000      -0.383157       -10.4262 
  71   2.0000      -0.375118       -10.2075 
  72   2.0000      -0.370709       -10.0875 
  73   2.0000      -0.365749        -9.9525 
  74   2.0000      -0.364800        -9.9267 
  75   2.0000      -0.353137        -9.6094 
  76   2.0000      -0.347121        -9.4456 
  77   2.0000      -0.343168        -9.3381 
  78   2.0000      -0.338839        -9.2203 
  79   2.0000      -0.337071        -9.1722 
  80   2.0000      -0.332785        -9.0556 
  81   2.0000      -0.323283        -8.7970 
  82   2.0000      -0.321341        -8.7441 
  83   2.0000      -0.317637        -8.6433 
  84   2.0000      -0.315758        -8.5922 
  85   2.0000      -0.306310        -8.3351 
  86   2.0000      -0.292025        -7.9464 
  87   2.0000      -0.290215        -7.8971 
  88   2.0000      -0.287320        -7.8184 
  89   2.0000      -0.281136        -7.6501 
  90   2.0000      -0.277504        -7.5513 
  91   2.0000      -0.269592        -7.3360 
  92   2.0000      -0.262437        -7.1413 
  93   2.0000      -0.245966        -6.6931 
  94   2.0000      -0.232194        -6.3183 
  95   2.0000      -0.229550        -6.2464 
  96   2.0000      -0.223498        -6.0817 
  97   2.0000      -0.211748        -5.7620 
  98   2.0000      -0.209848        -5.7102 
  99   2.0000      -0.199528        -5.4294 
 100   2.0000      -0.191480        -5.2104 
 101   2.0000      -0.186719        -5.0809 
 102   2.0000      -0.178985        -4.8704 
 103   2.0000      -0.174173        -4.7395 
 104   2.0000      -0.169818        -4.6210 
 105   2.0000      -0.165118        -4.4931 
 106   2.0000      -0.157493        -4.2856 
 107   2.0000      -0.151965        -4.1352 
 108   2.0000      -0.147326        -4.0089 
 109   2.0000      -0.130621        -3.5544 
 110   2.0000      -0.061841        -1.6828 
 111   2.0000      -0.040052        -1.0899 
 112   2.0000      -0.023468        -0.6386 
 113   0.0000       0.002895         0.0788 
 114   0.0000       0.036542         0.9944 
 115   0.0000       0.062660         1.7051 
 116   0.0000       0.073406         1.9975 
 117   0.0000       0.077482         2.1084 
 118   0.0000       0.085500         2.3266 
 119   0.0000       0.099276         2.7014 
 120   0.0000       0.123371         3.3571 
 121   0.0000       0.144690         3.9372 
 122   0.0000       0.151470         4.1217 
 123   0.0000       0.156652         4.2627 
*Only the first 10 virtual orbitals were printed.

                    ********************************
                    * MULLIKEN POPULATION ANALYSIS *
                    ********************************

-----------------------
MULLIKEN ATOMIC CHARGES
-----------------------
   0 C :   -0.546660
   1 C :    0.094013
   2 C :    0.335097
   3 N :   -0.609081
   4 C :   -0.276632
   5 C :    0.183953
   6 C :   -0.155037
   7 C :   -0.126607
   8 C :   -0.122794
   9 C :   -0.127768
  10 C :   -0.148878
  11 S :    1.202011
  12 O :   -0.550328
  13 O :   -0.554201
  14 C :   -0.161018
  15 C :   -0.155075
  16 C :   -0.152835
  17 C :    0.105976
  18 C :    0.411464
  19 O :   -0.551902
  20 O :   -0.656196
  21 C :   -0.157493
  22 C :   -0.155334
  23 N :   -0.354467
  24 C :   -0.054070
  25 C :    0.135991
  26 C :   -0.202848
  27 C :   -0.130711
  28 C :   -0.123311
  29 C :   -0.200020
  30 C :    0.121686
  31 H :    0.149979
  32 H :    0.160529
  33 H :    0.193013
  34 H :    0.156653
  35 H :    0.180132
  36 H :    0.146777
  37 H :    0.122406
  38 H :    0.109170
  39 H :    0.108792
  40 H :    0.114646
  41 H :    0.158644
  42 H :    0.154202
  43 H :    0.145622
  44 H :    0.136508
  45 H :    0.144108
  46 H :    0.128666
  47 H :    0.119259
  48 H :    0.122406
  49 H :    0.131564
Sum of atomic charges:   -1.0000000

--------------------------------
MULLIKEN REDUCED ORBITAL CHARGES
--------------------------------
  0 C s       :     3.317427  s :     3.317427
      pz      :     1.045855  p :     3.194949
      px      :     1.089874
      py      :     1.059221
      dz2     :     0.009249  d :     0.034284
      dxz     :     0.005347
      dyz     :     0.005564
      dx2y2   :     0.010752
      dxy     :     0.003371

  1 C s       :     3.178602  s :     3.178602
      pz      :     0.901022  p :     2.687982
      px      :     0.873362
      py      :     0.913597
      dz2     :     0.008122  d :     0.039403
      dxz     :     0.009453
      dyz     :     0.005397
      dx2y2   :     0.009016
      dxy     :     0.007415

  2 C s       :     3.043852  s :     3.043852
      pz      :     0.920166  p :     2.546406
      px      :     0.692552
      py      :     0.933689
      dz2     :     0.014834  d :     0.074645
      dxz     :     0.017425
      dyz     :     0.008783
      dx2y2   :     0.016881
      dxy     :     0.016721

  3 N s       :     3.596808  s :     3.596808
      pz      :     1.255777  p :     3.980091
      px      :     1.178416
      py      :     1.545898
      dz2     :     0.006742  d :     0.032182
      dxz     :     0.008209
      dyz     :     0.004700
      dx2y2   :     0.006739
      dxy     :     0.005792

  4 C s       :     3.270694  s :     3.270694
      pz      :     0.944506  p :     2.950267
      px      :     1.087909
      py      :     0.917852
      dz2     :     0.011127  d :     0.055671
      dxz     :     0.010052
      dyz     :     0.011844
      dx2y2   :     0.014905
      dxy     :     0.007744

  5 C s       :     3.110896  s :     3.110896
      pz      :     0.947393  p :     2.665323
      px      :     0.866109
      py      :     0.851822
      dz2     :     0.003984  d :     0.039827
      dxz     :     0.006894
      dyz     :     0.005755
      dx2y2   :     0.011701
      dxy     :     0.011493

  6 C s       :     3.188853  s :     3.188853
      pz      :     0.973294  p :     2.930281
      px      :     0.986501
      py      :     0.970486
      dz2     :     0.005248  d :     0.035903
      dxz     :     0.004085
      dyz     :     0.005162
      dx2y2   :     0.009459
      dxy     :     0.011949

  7 C s       :     3.188064  s :     3.188064
      pz      :     0.985059  p :     2.902445
      px      :     0.957329
      py      :     0.960056
      dz2     :     0.003301  d :     0.036098
      dxz     :     0.005885
      dyz     :     0.005659
      dx2y2   :     0.010153
      dxy     :     0.011098

  8 C s       :     3.180830  s :     3.180830
      pz      :     0.991385  p :     2.905821
      px      :     0.944057
      py      :     0.970379
      dz2     :     0.003408  d :     0.036144
      dxz     :     0.006585
      dyz     :     0.004837
      dx2y2   :     0.012432
      dxy     :     0.008882

  9 C s       :     3.184365  s :     3.184365
      pz      :     0.988004  p :     2.907204
      px      :     0.957924
      py      :     0.961276
      dz2     :     0.005392  d :     0.036199
      dxz     :     0.003992
      dyz     :     0.005179
      dx2y2   :     0.009327
      dxy     :     0.012310

 10 C s       :     3.188426  s :     3.188426
      pz      :     0.995886  p :     2.924593
      px      :     0.965243
      py      :     0.963464
      dz2     :     0.003194  d :     0.035859
      dxz     :     0.006006
      dyz     :     0.005596
      dx2y2   :     0.010186
      dxy     :     0.010877

 11 S s       :     5.221711  s :     5.221711
      pz      :     2.999629  p :     9.045234
      px      :     3.070044
      py      :     2.975562
      dz2     :     0.100001  d :     0.531044
      dxz     :     0.088419
      dyz     :     0.125481
      dx2y2   :     0.118014
      dxy     :     0.099129

 12 O s       :     3.920616  s :     3.920616
      pz      :     1.451082  p :     4.603424
      px      :     1.698811
      py      :     1.453531
      dz2     :     0.005964  d :     0.026288
      dxz     :     0.003603
      dyz     :     0.007947
      dx2y2   :     0.004261
      dxy     :     0.004513

 13 O s       :     3.917951  s :     3.917951
      pz      :     1.552997  p :     4.609986
      px      :     1.637779
      py      :     1.419210
      dz2     :     0.004307  d :     0.026264
      dxz     :     0.003016
      dyz     :     0.006823
      dx2y2   :     0.005948
      dxy     :     0.006171

 14 C s       :     3.217604  s :     3.217604
      pz      :     1.065754  p :     2.904714
      px      :     0.822676
      py      :     1.016283
      dz2     :     0.007464  d :     0.038701
      dxz     :     0.005907
      dyz     :     0.005555
      dx2y2   :     0.011382
      dxy     :     0.008393

 15 C s       :     3.210236  s :     3.210236
      pz      :     0.983861  p :     2.908271
      px      :     0.932942
      py      :     0.991468
      dz2     :     0.003546  d :     0.036568
      dxz     :     0.008717
      dyz     :     0.006411
      dx2y2   :     0.008281
      dxy     :     0.009612

 16 C s       :     3.220250  s :     3.220250
      pz      :     0.986189  p :     2.897032
      px      :     0.908622
      py      :     1.002221
      dz2     :     0.004597  d :     0.035552
      dxz     :     0.008025
      dyz     :     0.005096
      dx2y2   :     0.007831
      dxy     :     0.010004

 17 C s       :     3.210731  s :     3.210731
      pz      :     0.864383  p :     2.643323
      px      :     0.933436
      py      :     0.845503
      dz2     :     0.005981  d :     0.039970
      dxz     :     0.008631
      dyz     :     0.005445
      dx2y2   :     0.009861
      dxy     :     0.010052

 18 C s       :     3.003117  s :     3.003117
      pz      :     0.839866  p :     2.473117
      px      :     0.816414
      py      :     0.816837
      dz2     :     0.019641  d :     0.112303
      dxz     :     0.019005
      dyz     :     0.018088
      dx2y2   :     0.029388
      dxy     :     0.026181

 19 O s       :     3.843587  s :     3.843587
      pz      :     1.457941  p :     4.685334
      px      :     1.779578
      py      :     1.447815
      dz2     :     0.005531  d :     0.022981
      dxz     :     0.002791
      dyz     :     0.006225
      dx2y2   :     0.004531
      dxy     :     0.003902

 20 O s       :     3.911193  s :     3.911193
      pz      :     1.610391  p :     4.727894
      px      :     1.524999
      py      :     1.592503
      dz2     :     0.002249  d :     0.017109
      dxz     :     0.004192
      dyz     :     0.001688
      dx2y2   :     0.003363
      dxy     :     0.005617

 21 C s       :     3.215458  s :     3.215458
      pz      :     0.980792  p :     2.906610
      px      :     0.933029
      py      :     0.992789
      dz2     :     0.003679  d :     0.035425
      dxz     :     0.007289
      dyz     :     0.006635
      dx2y2   :     0.009392
      dxy     :     0.008430

 22 C s       :     3.197543  s :     3.197543
      pz      :     0.973413  p :     2.921072
      px      :     1.002934
      py      :     0.944725
      dz2     :     0.005556  d :     0.036718
      dxz     :     0.008087
      dyz     :     0.005176
      dx2y2   :     0.007748
      dxy     :     0.010151

 23 N s       :     3.700816  s :     3.700816
      pz      :     1.312595  p :     3.618235
      px      :     1.060787
      py      :     1.244853
      dz2     :     0.007484  d :     0.035417
      dxz     :     0.008039
      dyz     :     0.005447
      dx2y2   :     0.006244
      dxy     :     0.008203

 24 C s       :     3.161106  s :     3.161106
      pz      :     0.972701  p :     2.839001
      px      :     0.907062
      py      :     0.959238
      dz2     :     0.007528  d :     0.053963
      dxz     :     0.018582
      dyz     :     0.005101
      dx2y2   :     0.010403
      dxy     :     0.012349

 25 C s       :     3.138289  s :     3.138289
      pz      :     0.888953  p :     2.683961
      px      :     0.864395
      py      :     0.930613
      dz2     :     0.008341  d :     0.041759
      dxz     :     0.011157
      dyz     :     0.005701
      dx2y2   :     0.008081
      dxy     :     0.008479

 26 C s       :     3.209766  s :     3.209766
      pz      :     0.975372  p :     2.956626
      px      :     0.999501
      py      :     0.981753
      dz2     :     0.006160  d :     0.036456
      dxz     :     0.011177
      dyz     :     0.004873
      dx2y2   :     0.006878
      dxy     :     0.007368

 27 C s       :     3.188985  s :     3.188985
      pz      :     0.955117  p :     2.905330
      px      :     0.966893
      py      :     0.983320
      dz2     :     0.009221  d :     0.036396
      dxz     :     0.007560
      dyz     :     0.005557
      dx2y2   :     0.009207
      dxy     :     0.004850

 28 C s       :     3.192516  s :     3.192516
      pz      :     0.963268  p :     2.894151
      px      :     0.954953
      py      :     0.975930
      dz2     :     0.006035  d :     0.036645
      dxz     :     0.010648
      dyz     :     0.005906
      dx2y2   :     0.006144
      dxy     :     0.007912

 29 C s       :     3.207089  s :     3.207089
      pz      :     0.995425  p :     2.957284
      px      :     0.954568
      py      :     1.007290
      dz2     :     0.005893  d :     0.035647
      dxz     :     0.011140
      dyz     :     0.005161
      dx2y2   :     0.006090
      dxy     :     0.007364

 30 C s       :     3.136854  s :     3.136854
      pz      :     0.881016  p :     2.699893
      px      :     0.886641
      py      :     0.932237
      dz2     :     0.008238  d :     0.041567
      dxz     :     0.011489
      dyz     :     0.005561
      dx2y2   :     0.007924
      dxy     :     0.008355

 31 H s       :     0.850021  s :     0.850021

 32 H s       :     0.839471  s :     0.839471

 33 H s       :     0.806987  s :     0.806987

 34 H s       :     0.843347  s :     0.843347

 35 H s       :     0.819868  s :     0.819868

 36 H s       :     0.853223  s :     0.853223

 37 H s       :     0.877594  s :     0.877594

 38 H s       :     0.890830  s :     0.890830

 39 H s       :     0.891208  s :     0.891208

 40 H s       :     0.885354  s :     0.885354

 41 H s       :     0.841356  s :     0.841356

 42 H s       :     0.845798  s :     0.845798

 43 H s       :     0.854378  s :     0.854378

 44 H s       :     0.863492  s :     0.863492

 45 H s       :     0.855892  s :     0.855892

 46 H s       :     0.871334  s :     0.871334

 47 H s       :     0.880741  s :     0.880741

 48 H s       :     0.877594  s :     0.877594

 49 H s       :     0.868436  s :     0.868436



                     *******************************
                     * LOEWDIN POPULATION ANALYSIS *
                     *******************************

----------------------
LOEWDIN ATOMIC CHARGES
----------------------
   0 C :   -0.361026
   1 C :   -0.021238
   2 C :    0.049443
   3 N :   -0.285163
   4 C :   -0.152123
   5 C :   -0.027526
   6 C :   -0.119793
   7 C :   -0.125896
   8 C :   -0.134848
   9 C :   -0.132932
  10 C :   -0.123820
  11 S :    1.261187
  12 O :   -0.584180
  13 O :   -0.588951
  14 C :   -0.214922
  15 C :   -0.124440
  16 C :   -0.108834
  17 C :   -0.002367
  18 C :    0.071591
  19 O :   -0.377426
  20 O :   -0.504500
  21 C :   -0.113823
  22 C :   -0.128412
  23 N :   -0.104211
  24 C :   -0.062066
  25 C :   -0.032486
  26 C :   -0.114422
  27 C :   -0.138628
  28 C :   -0.126890
  29 C :   -0.127309
  30 C :   -0.007105
  31 H :    0.130692
  32 H :    0.136060
  33 H :    0.147182
  34 H :    0.133687
  35 H :    0.140285
  36 H :    0.139523
  37 H :    0.128968
  38 H :    0.122766
  39 H :    0.122549
  40 H :    0.126051
  41 H :    0.146607
  42 H :    0.151363
  43 H :    0.145957
  44 H :    0.132891
  45 H :    0.133629
  46 H :    0.132349
  47 H :    0.127635
  48 H :    0.129393
  49 H :    0.135528

-------------------------------
LOEWDIN REDUCED ORBITAL CHARGES
-------------------------------
  0 C s       :     2.972475  s :     2.972475
      pz      :     1.091081  p :     3.321833
      px      :     1.119415
      py      :     1.111337
      dz2     :     0.018170  d :     0.066718
      dxz     :     0.010826
      dyz     :     0.010765
      dx2y2   :     0.020598
      dxy     :     0.006359

  1 C s       :     2.887075  s :     2.887075
      pz      :     1.018496  p :     3.037354
      px      :     1.037521
      py      :     0.981337
      dz2     :     0.018332  d :     0.096809
      dxz     :     0.024863
      dyz     :     0.013759
      dx2y2   :     0.021215
      dxy     :     0.018640

  2 C s       :     2.848146  s :     2.848146
      pz      :     1.014073  p :     2.924508
      px      :     0.918814
      py      :     0.991622
      dz2     :     0.034950  d :     0.177903
      dxz     :     0.042590
      dyz     :     0.021692
      dx2y2   :     0.041285
      dxy     :     0.037385

  3 N s       :     3.174692  s :     3.174692
      pz      :     1.307847  p :     4.028271
      px      :     1.201024
      py      :     1.519399
      dz2     :     0.017907  d :     0.082200
      dxz     :     0.023433
      dyz     :     0.011009
      dx2y2   :     0.016029
      dxy     :     0.013821

  4 C s       :     2.921946  s :     2.921946
      pz      :     1.014527  p :     3.111561
      px      :     1.097868
      py      :     0.999166
      dz2     :     0.023179  d :     0.118616
      dxz     :     0.020194
      dyz     :     0.027117
      dx2y2   :     0.032730
      dxy     :     0.015396

  5 C s       :     2.879363  s :     2.879363
      pz      :     0.976952  p :     3.048260
      px      :     1.062630
      py      :     1.008679
      dz2     :     0.008614  d :     0.099902
      dxz     :     0.016145
      dyz     :     0.012679
      dx2y2   :     0.032425
      dxy     :     0.030039

  6 C s       :     2.919402  s :     2.919402
      pz      :     0.991531  p :     3.116461
      px      :     1.067133
      py      :     1.057797
      dz2     :     0.009880  d :     0.083930
      dxz     :     0.009223
      dyz     :     0.012812
      dx2y2   :     0.023870
      dxy     :     0.028145

  7 C s       :     2.917260  s :     2.917260
      pz      :     0.998538  p :     3.123710
      px      :     1.064308
      py      :     1.060864
      dz2     :     0.006729  d :     0.084926
      dxz     :     0.011737
      dyz     :     0.012814
      dx2y2   :     0.025520
      dxy     :     0.028125

  8 C s       :     2.916856  s :     2.916856
      pz      :     1.007094  p :     3.132962
      px      :     1.068955
      py      :     1.056914
      dz2     :     0.006974  d :     0.085030
      dxz     :     0.015731
      dyz     :     0.008747
      dx2y2   :     0.030117
      dxy     :     0.023460

  9 C s       :     2.916364  s :     2.916364
      pz      :     1.007560  p :     3.131323
      px      :     1.062747
      py      :     1.061016
      dz2     :     0.010344  d :     0.085245
      dxz     :     0.009395
      dyz     :     0.012847
      dx2y2   :     0.023742
      dxy     :     0.028917

 10 C s       :     2.916570  s :     2.916570
      pz      :     1.009126  p :     3.123099
      px      :     1.058703
      py      :     1.055270
      dz2     :     0.006557  d :     0.084150
      dxz     :     0.011667
      dyz     :     0.012726
      dx2y2   :     0.025665
      dxy     :     0.027535

 11 S s       :     5.106485  s :     5.106485
      pz      :     2.962400  p :     8.960079
      px      :     3.026313
      py      :     2.971366
      dz2     :     0.123071  d :     0.672249
      dxz     :     0.111485
      dyz     :     0.166224
      dx2y2   :     0.149780
      dxy     :     0.121690

 12 O s       :     3.710074  s :     3.710074
      pz      :     1.542837  p :     4.818737
      px      :     1.725355
      py      :     1.550545
      dz2     :     0.009012  d :     0.055369
      dxz     :     0.005211
      dyz     :     0.023844
      dx2y2   :     0.010563
      dxy     :     0.006739

 13 O s       :     3.710278  s :     3.710278
      pz      :     1.613038  p :     4.823585
      px      :     1.684625
      py      :     1.525922
      dz2     :     0.007008  d :     0.055089
      dxz     :     0.005803
      dyz     :     0.016055
      dx2y2   :     0.011874
      dxy     :     0.014349

 14 C s       :     2.925776  s :     2.925776
      pz      :     1.101387  p :     3.190271
      px      :     0.993786
      py      :     1.095098
      dz2     :     0.016751  d :     0.098875
      dxz     :     0.015734
      dyz     :     0.014495
      dx2y2   :     0.029591
      dxy     :     0.022304

 15 C s       :     2.920200  s :     2.920200
      pz      :     1.017913  p :     3.117470
      px      :     1.064227
      py      :     1.035330
      dz2     :     0.008378  d :     0.086771
      dxz     :     0.020869
      dyz     :     0.011154
      dx2y2   :     0.022452
      dxy     :     0.023917

 16 C s       :     2.924274  s :     2.924274
      pz      :     1.005394  p :     3.100774
      px      :     1.062649
      py      :     1.032732
      dz2     :     0.010005  d :     0.083786
      dxz     :     0.018897
      dyz     :     0.011264
      dx2y2   :     0.020275
      dxy     :     0.023345

 17 C s       :     2.902796  s :     2.902796
      pz      :     0.948885  p :     2.997475
      px      :     1.069185
      py      :     0.979404
      dz2     :     0.013725  d :     0.102096
      dxz     :     0.021195
      dyz     :     0.015001
      dx2y2   :     0.026232
      dxy     :     0.025944

 18 C s       :     2.864223  s :     2.864223
      pz      :     0.904369  p :     2.796972
      px      :     0.959620
      py      :     0.932982
      dz2     :     0.042073  d :     0.267214
      dxz     :     0.046167
      dyz     :     0.044812
      dx2y2   :     0.069135
      dxy     :     0.065027

 19 O s       :     3.585174  s :     3.585174
      pz      :     1.479702  p :     4.744700
      px      :     1.777792
      py      :     1.487207
      dz2     :     0.008748  d :     0.047552
      dxz     :     0.005438
      dyz     :     0.016475
      dx2y2   :     0.009090
      dxy     :     0.007802

 20 O s       :     3.677357  s :     3.677357
      pz      :     1.616323  p :     4.793459
      px      :     1.570169
      py      :     1.606967
      dz2     :     0.004295  d :     0.033683
      dxz     :     0.007696
      dyz     :     0.003873
      dx2y2   :     0.005926
      dxy     :     0.011893

 21 C s       :     2.921792  s :     2.921792
      pz      :     1.017777  p :     3.108444
      px      :     1.050779
      py      :     1.039889
      dz2     :     0.008407  d :     0.083587
      dxz     :     0.017674
      dyz     :     0.011617
      dx2y2   :     0.024964
      dxy     :     0.020925

 22 C s       :     2.916325  s :     2.916325
      pz      :     1.013845  p :     3.124370
      px      :     1.084489
      py      :     1.026037
      dz2     :     0.012240  d :     0.087717
      dxz     :     0.019504
      dyz     :     0.012145
      dx2y2   :     0.019450
      dxy     :     0.024377

 23 N s       :     3.240504  s :     3.240504
      pz      :     1.351725  p :     3.784371
      px      :     1.186918
      py      :     1.245729
      dz2     :     0.014791  d :     0.079335
      dxz     :     0.020774
      dyz     :     0.008947
      dx2y2   :     0.016241
      dxy     :     0.018582

 24 C s       :     2.911517  s :     2.911517
      pz      :     1.029468  p :     3.026743
      px      :     1.013649
      py      :     0.983626
      dz2     :     0.017241  d :     0.123806
      dxz     :     0.042822
      dyz     :     0.010394
      dx2y2   :     0.025296
      dxy     :     0.028053

 25 C s       :     2.858612  s :     2.858612
      pz      :     1.026856  p :     3.065032
      px      :     1.046120
      py      :     0.992056
      dz2     :     0.021335  d :     0.108842
      dxz     :     0.030034
      dyz     :     0.014496
      dx2y2   :     0.022062
      dxy     :     0.020915

 26 C s       :     2.915906  s :     2.915906
      pz      :     1.043572  p :     3.113493
      px      :     1.061972
      py      :     1.007949
      dz2     :     0.014124  d :     0.085023
      dxz     :     0.026577
      dyz     :     0.010388
      dx2y2   :     0.016371
      dxy     :     0.017563

 27 C s       :     2.915630  s :     2.915630
      pz      :     1.048536  p :     3.136905
      px      :     1.069400
      py      :     1.018969
      dz2     :     0.021719  d :     0.086093
      dxz     :     0.019749
      dyz     :     0.014831
      dx2y2   :     0.018541
      dxy     :     0.011253

 28 C s       :     2.917083  s :     2.917083
      pz      :     1.042533  p :     3.123449
      px      :     1.074650
      py      :     1.006266
      dz2     :     0.014313  d :     0.086358
      dxz     :     0.026307
      dyz     :     0.011074
      dx2y2   :     0.016455
      dxy     :     0.018210

 29 C s       :     2.916651  s :     2.916651
      pz      :     1.045382  p :     3.127911
      px      :     1.066105
      py      :     1.016424
      dz2     :     0.013981  d :     0.082748
      dxz     :     0.025647
      dyz     :     0.010103
      dx2y2   :     0.016024
      dxy     :     0.016993

 30 C s       :     2.856101  s :     2.856101
      pz      :     1.018725  p :     3.044624
      px      :     1.037910
      py      :     0.987990
      dz2     :     0.020783  d :     0.106380
      dxz     :     0.030567
      dyz     :     0.013960
      dx2y2   :     0.020884
      dxy     :     0.020185

 31 H s       :     0.869308  s :     0.869308

 32 H s       :     0.863940  s :     0.863940

 33 H s       :     0.852818  s :     0.852818

 34 H s       :     0.866313  s :     0.866313

 35 H s       :     0.859715  s :     0.859715

 36 H s       :     0.860477  s :     0.860477

 37 H s       :     0.871032  s :     0.871032

 38 H s       :     0.877234  s :     0.877234

 39 H s       :     0.877451  s :     0.877451

 40 H s       :     0.873949  s :     0.873949

 41 H s       :     0.853393  s :     0.853393

 42 H s       :     0.848637  s :     0.848637

 43 H s       :     0.854043  s :     0.854043

 44 H s       :     0.867109  s :     0.867109

 45 H s       :     0.866371  s :     0.866371

 46 H s       :     0.867651  s :     0.867651

 47 H s       :     0.872365  s :     0.872365

 48 H s       :     0.870607  s :     0.870607

 49 H s       :     0.864472  s :     0.864472



                      *****************************
                      * MAYER POPULATION ANALYSIS *
                      *****************************

  NA   - Mulliken gross atomic population
  ZA   - Total nuclear charge
  QA   - Mulliken gross atomic charge
  VA   - Mayer's total valence
  BVA  - Mayer's bonded valence
  FA   - Mayer's free valence

  ATOM       NA         ZA         QA         VA         BVA        FA
  0 C      6.5467     6.0000    -0.5467     3.8248     3.8248    -0.0000
  1 C      5.9060     6.0000     0.0940     3.8619     3.8619    -0.0000
  2 C      5.6649     6.0000     0.3351     3.8982     3.8982     0.0000
  3 N      7.6091     7.0000    -0.6091     2.7800     2.7800    -0.0000
  4 C      6.2766     6.0000    -0.2766     3.8380     3.8380    -0.0000
  5 C      5.8160     6.0000     0.1840     3.9002     3.9002    -0.0000
  6 C      6.1550     6.0000    -0.1550     3.9533     3.9533    -0.0000
  7 C      6.1266     6.0000    -0.1266     3.9555     3.9555    -0.0000
  8 C      6.1228     6.0000    -0.1228     3.9514     3.9514     0.0000
  9 C      6.1278     6.0000    -0.1278     3.9561     3.9561    -0.0000
 10 C      6.1489     6.0000    -0.1489     3.9474     3.9474     0.0000
 11 S     14.7980    16.0000     1.2020     5.0759     5.0759    -0.0000
 12 O      8.5503     8.0000    -0.5503     1.8873     1.8873     0.0000
 13 O      8.5542     8.0000    -0.5542     1.8796     1.8796     0.0000
 14 C      6.1610     6.0000    -0.1610     3.8047     3.8047    -0.0000
 15 C      6.1551     6.0000    -0.1551     3.8921     3.8921     0.0000
 16 C      6.1528     6.0000    -0.1528     3.8642     3.8642    -0.0000
 17 C      5.8940     6.0000     0.1060     3.8376     3.8376     0.0000
 18 C      5.5885     6.0000     0.4115     4.2056     4.2056    -0.0000
 19 O      8.5519     8.0000    -0.5519     1.9560     1.9560     0.0000
 20 O      8.6562     8.0000    -0.6562     1.8384     1.8384    -0.0000
 21 C      6.1575     6.0000    -0.1575     3.8801     3.8801    -0.0000
 22 C      6.1553     6.0000    -0.1553     3.8998     3.8998     0.0000
 23 N      7.3545     7.0000    -0.3545     2.9679     2.9679    -0.0000
 24 C      6.0541     6.0000    -0.0541     3.8619     3.8619     0.0000
 25 C      5.8640     6.0000     0.1360     3.9449     3.9449     0.0000
 26 C      6.2028     6.0000    -0.2028     3.9033     3.9033     0.0000
 27 C      6.1307     6.0000    -0.1307     3.9284     3.9284     0.0000
 28 C      6.1233     6.0000    -0.1233     3.9294     3.9294     0.0000
 29 C      6.2000     6.0000    -0.2000     3.8746     3.8746     0.0000
 30 C      5.8783     6.0000     0.1217     3.9986     3.9986    -0.0000
 31 H      0.8500     1.0000     0.1500     0.9310     0.9310    -0.0000
 32 H      0.8395     1.0000     0.1605     0.9318     0.9318     0.0000
 33 H      0.8070     1.0000     0.1930     0.9329     0.9329     0.0000
 34 H      0.8433     1.0000     0.1567     0.9350     0.9350     0.0000
 35 H      0.8199     1.0000     0.1801     0.9336     0.9336     0.0000
 36 H      0.8532     1.0000     0.1468     0.9447     0.9447     0.0000
 37 H      0.8776     1.0000     0.1224     0.9379     0.9379    -0.0000
 38 H      0.8908     1.0000     0.1092     0.9388     0.9388    -0.0000
 39 H      0.8912     1.0000     0.1088     0.9392     0.9392     0.0000
 40 H      0.8854     1.0000     0.1146     0.9455     0.9455    -0.0000
 41 H      0.8414     1.0000     0.1586     0.9440     0.9440     0.0000
 42 H      0.8458     1.0000     0.1542     0.9639     0.9639     0.0000
 43 H      0.8544     1.0000     0.1456     0.9593     0.9593    -0.0000
 44 H      0.8635     1.0000     0.1365     0.9410     0.9410    -0.0000
 45 H      0.8559     1.0000     0.1441     0.9345     0.9345    -0.0000
 46 H      0.8713     1.0000     0.1287     0.9388     0.9388     0.0000
 47 H      0.8807     1.0000     0.1193     0.9390     0.9390     0.0000
 48 H      0.8776     1.0000     0.1224     0.9386     0.9386     0.0000
 49 H      0.8684     1.0000     0.1316     0.9438     0.9438    -0.0000

  Mayer bond orders larger than 0.100000
B(  0-C ,  1-C ) :   0.9953 B(  0-C , 31-H ) :   0.9289 B(  0-C , 32-H ) :   0.9305 
B(  0-C , 33-H ) :   0.9234 B(  1-C ,  2-C ) :   1.4311 B(  1-C , 24-C ) :   0.1047 
B(  1-C , 30-C ) :   1.2686 B(  2-C ,  3-N ) :   0.9207 B(  2-C , 23-N ) :   1.2795 
B(  3-N ,  4-C ) :   0.9388 B(  3-N , 11-S ) :   0.7614 B(  4-C ,  5-C ) :   0.9443 
B(  4-C , 34-H ) :   0.9250 B(  4-C , 35-H ) :   0.9177 B(  5-C ,  6-C ) :   1.4392 
B(  5-C , 10-C ) :   1.4301 B(  6-C ,  7-C ) :   1.4437 B(  6-C , 36-H ) :   0.9109 
B(  7-C ,  8-C ) :   1.4571 B(  7-C , 37-H ) :   0.9303 B(  8-C ,  9-C ) :   1.4497 
B(  8-C , 38-H ) :   0.9328 B(  9-C , 10-C ) :   1.4502 B(  9-C , 39-H ) :   0.9322 
B( 10-C , 40-H ) :   0.9240 B( 11-S , 12-O ) :   1.6370 B( 11-S , 13-O ) :   1.6552 
B( 11-S , 14-C ) :   0.8375 B( 14-C , 15-C ) :   1.3743 B( 14-C , 22-C ) :   1.3549 
B( 15-C , 16-C ) :   1.3946 B( 15-C , 41-H ) :   0.9159 B( 16-C , 17-C ) :   1.4023 
B( 16-C , 42-H ) :   0.9012 B( 17-C , 18-C ) :   0.9273 B( 17-C , 21-C ) :   1.3858 
B( 18-C , 19-O ) :   1.7059 B( 18-C , 20-O ) :   1.5497 B( 19-O , 20-O ) :   0.1490 
B( 21-C , 22-C ) :   1.4198 B( 21-C , 43-H ) :   0.9076 B( 22-C , 44-H ) :   0.9201 
B( 23-N , 24-C ) :   1.5013 B( 24-C , 25-C ) :   1.2266 B( 24-C , 45-H ) :   0.9287 
B( 25-C , 26-C ) :   1.2853 B( 25-C , 30-C ) :   1.2888 B( 26-C , 27-C ) :   1.5130 
B( 26-C , 29-C ) :   0.1064 B( 26-C , 46-H ) :   0.9245 B( 27-C , 28-C ) :   1.3521 
B( 27-C , 47-H ) :   0.9318 B( 28-C , 29-C ) :   1.5115 B( 28-C , 48-H ) :   0.9314 
B( 29-C , 30-C ) :   1.2912 B( 29-C , 49-H ) :   0.9171 

-------
TIMINGS
-------

Total SCF time: 0 days 0 hours 5 min 51 sec 

Total time                  ....     351.888 sec
Sum of individual times     ....     350.753 sec  ( 99.7%)

SCF preparation             ....       0.696 sec  (  0.2%)
Fock matrix formation       ....     346.010 sec  ( 98.3%)
  Startup                   ....       0.197 sec  (  0.1% of F)
  Split-RI-J                ....      42.648 sec  ( 12.3% of F)
  Chain of spheres X        ....     271.226 sec  ( 78.4% of F)
  XC integration            ....      29.676 sec  (  8.6% of F)
    XC Preparation          ....       0.000 sec  (  0.0% of XC)
    Basis function eval.    ....      11.322 sec  ( 38.2% of XC)
    Density eval.           ....       6.948 sec  ( 23.4% of XC)
    XC-Functional eval.     ....       1.227 sec  (  4.1% of XC)
    XC-Potential eval.      ....       7.990 sec  ( 26.9% of XC)
Diagonalization             ....       0.000 sec  (  0.0%)
Density matrix formation    ....       1.009 sec  (  0.3%)
Total Energy calculation    ....       0.153 sec  (  0.0%)
Population analysis         ....       0.103 sec  (  0.0%)
Orbital Transformation      ....       0.428 sec  (  0.1%)
Orbital Orthonormalization  ....       0.000 sec  (  0.0%)
DIIS solution               ....       1.220 sec  (  0.3%)
SOSCF solution              ....       1.135 sec  (  0.3%)
Finished LeanSCF after 352.3 sec

Maximum memory used throughout the entire LEANSCF-calculation: 82.3 MB

-------------------------   --------------------
FINAL SINGLE POINT ENERGY     -1733.666102355818
-------------------------   --------------------


------------------------------------------------------------------------------
                              ORCA PROPERTY CALCULATIONS
------------------------------------------------------------------------------

GBWName                                 ... /home/nmrbox/aojoawo/Documents/ERDOS/inputs/CHEMBL3682548.gbw
Number of atoms                         ...     50
Number of basis functions               ...    476
Max core memory                         ...   1024 MB

Electric properties:
Dipole moment                           ... YES
Quadrupole moment                       ...  NO
Static polarizability (Dipole/Dipole)   ...  NO
Static polarizability (Dipole/Quad.)    ...  NO
Static polarizability (Quad./Quad.)     ...  NO
Static polarizability (Velocity)        ...  NO

Atomic electric properties:
Dipole moment                           ...  NO
Quadrupole moment                       ...  NO
Static polarizability                   ...  NO

Choice of electric origin               ... Center of mass
Position of electric origin             ...     0.816138    -0.290503     0.585453

General magnetic properties:
Magnetizability                         ...  NO

EPR properties:
g-Tensor (aka g-matrix)                 ...  NO
Zero-Field splitting spin-orbit         ...  NO
Zero-field splitting spin-spin          ...  NO
Hyperfine couplings                     ...  NO (   0 nuclei)
Quadrupole couplings                    ...  NO (   0 nuclei)
Contact density                         ...  NO (   0 nuclei)

NMR properties:
Chemical shifts                         ...  NO (   0 nuclei)
Spin-rotation constants                 ...  NO (   0 nuclei)
Spin-spin couplings                     ...  NO (   0 nuclei,    0 pairs)

Choice of magnetic origin               ... GIAO
Position of magnetic origin             ...     0.000000     0.000000     0.000000

Properties with geometric perturbations:
SCF Hessian                             ...  NO
IR spectrum                             ...  NO
VCD spectrum                            ...  NO
X-ray spectroscopy properties:
SCF XES/XAS/RIXS spectra                ...  NO


-------------
DIPOLE MOMENT
-------------

Method             : SCF
Type of density    : Electron Density
Multiplicity       :   1
Irrep              :   0
Energy             : -1733.6661023558181114 Eh
Relativity type    : 
Basis              : AO
                                X                 Y                 Z
Electronic contribution:      7.050354586      -3.947379792      10.006342918
Nuclear contribution   :    -17.122890885       6.059469681     -12.176718681
                        -----------------------------------------
Total Dipole Moment    :    -10.072536298       2.112089889      -2.170375764
                        -----------------------------------------
Magnitude (a.u.)       :     10.517958078
Magnitude (Debye)      :     26.734524807



--------------------
Rotational spectrum 
--------------------
 
Rotational constants in cm-1:             0.007475             0.002711             0.002238 
Rotational constants in MHz :           224.085204            81.259908            67.089761 

Dipole components along the rotational axes: 
x,y,z [a.u.] :    10.275301    -1.856046     1.265196 
x,y,z [Debye]:    26.117740    -4.717693     3.215872 

 

Dipole moment calculation done in   0.1 sec 

Maximum memory used throughout the entire PROP-calculation: 39.9 MB

--------------------------------
SUGGESTED CITATIONS FOR THIS RUN
--------------------------------

Below you find a list of papers that are relevant to this ORCA run
We neither can nor want to force you to cite these papers, but we appreciate if you do
You receive ORCA, which is the product of decades of hard work by many enthusiastic individuals, for free
The only thing we kindly ask in return is that you cite our papers,
We deeply appreciate it, if you show your appreciation for ORCA by not just citing the generic ORCA reference.

Please note that relegating all ORCA citations to the supporting information does *not* help us.
SI sections are not indexed - citations you put there will not count into any citation statistics
But we need these citations in order to attract the funding resources that allow us to do what we are doing

Therefore, if you are a happy ORCA user, please consider citing a few of the papers listed below in the main body of your paper

In addition to the list printed below, the program has created the file /home/nmrbox/aojoawo/Documents/ERDOS/inputs/CHEMBL3682548.bibtex that contains the list in bibtex format
You can import this file easily into all common literature databanks and citation aid programs


List of essential papers. We consider these as the minimum necessary citations

  1. Neese,F.
     Software update: the ORCA program system, version 5.0
     WIRES Comput. Molec. Sci., 2022 12(1)e1606
     doi.org/10.1002/wcms.1606

List of papers to cite with high priority. The work reported in these papers was absolutely
necessary for this run to complete.
Our perspective: the developers of density functionals and basis sets usually get cited in chemistry papers
Good! But without the algorithms to do something with them, the functionals or basis sets would not do anything.
Hence, in our opinion, the algorithm design and method developments papers are equally worthy of getting cited

  1. Neese,F.
     An improvement of the resolution of the identity approximation for the formation of the Coulomb matrix
     J. Comp. Chem., 2003 24(14)1740-1747
     doi.org/10.1002/jcc.10318
  2. Neese,F.; Wennmohs,F.; Hansen,A.; Becker,U.
     Efficient, approximate and parallel Hartree-Fock and hybrid DFT calculations. A 'chain-of-spheres' algorithm for the Hartree-Fock exchange
     Chem. Phys., 2009 356(1-3)98-109
     doi.org/10.1016/j.chemphys.2008.10.036
  3. Helmich-Paris,B.; de Souza,B.; Neese,F.; Izsák,R.
     An improved chain of spheres for exchange algorithm
     J. Chem. Phys., 2021 155 104109
     doi.org/doi: 10.1063/5.0058766.
  4. Neese,F.
     The SHARK Integral Generation and Digestion System
     J. Comp. Chem., 2022  1-16
     doi.org/10.1002/jcc.26942

List of suggested additional citations. These are papers that are important in the 'surrounding' of 
of this run, or papers that preceded the highly important papers. If you like your results we are grateful for a citation.

  1. Izsak,R.; Neese,F.
     An overlap fitted chain of spheres exchange method
     J. Chem. Phys., 2011 135 144105
     doi.org/10.1063/1.3646921
  2. Izsak,R.; Hansen,A.; Neese,F.
     The resolution of identity and chain of spheres approximations for the LPNO-CCSD singles Fock term
     Molec. Phys., 2012 110 2413-2417
     doi.org/10.1080/00268976.2012.687466
  3. Neese,F.
     The ORCA program system
     WIRES Comput. Molec. Sci., 2012 2(1)73-78
     doi.org/10.1002/wcms.81
  4. Izsak,R.; Neese,F.; Klopper,W.
     Robust fitting techniques in the chain of spheres approximation to the Fock exchange: The role of the complementary space
     J. Chem. Phys., 2013 139 
     doi.org/10.1063/1.4819264
  5. Neese,F.
     Software update: the ORCA program system, version 4.0
     WIRES Comput. Molec. Sci., 2018 8(1)1-6
     doi.org/10.1002/wcms.1327
  6. Neese,F.; Wennmohs,F.; Becker,U.; Riplinger,C.
     The ORCA quantum chemistry program package
     J. Chem. Phys., 2020 152 Art. No. L224108
     doi.org/10.1063/5.0004608

List of optional additional citations

  1. Neese,F.
     Approximate second-order SCF convergence for spin unrestricted wavefunctions
     Chem. Phys. Lett., 2000 325(1-3)93-98
     doi.org/10.1016/s0009-2614(00)00662-x

Timings for individual modules:

Sum of individual times          ...      367.531 sec (=   6.126 min)
Startup calculation              ...        9.837 sec (=   0.164 min)   2.7 %
SCF iterations                   ...      357.391 sec (=   5.957 min)  97.2 %
Property calculations            ...        0.303 sec (=   0.005 min)   0.1 %
                             ****ORCA TERMINATED NORMALLY****
TOTAL RUN TIME: 0 days 0 hours 6 minutes 8 seconds 567 msec
