
                                 *****************
                                 * O   R   C   A *
                                 *****************

                                            #,                                       
                                            ###                                      
                                            ####                                     
                                            #####                                    
                                            ######                                   
                                           ########,                                 
                                     ,,################,,,,,                         
                               ,,#################################,,                 
                          ,,##########################################,,             
                       ,#########################################, ''#####,          
                    ,#############################################,,   '####,        
                  ,##################################################,,,,####,       
                ,###########''''           ''''###############################       
              ,#####''   ,,,,##########,,,,          '''####'''          '####       
            ,##' ,,,,###########################,,,                        '##       
           ' ,,###''''                  '''############,,,                           
         ,,##''                                '''############,,,,        ,,,,,,###''
      ,#''                                            '''#######################'''  
     '                                                          ''''####''''         
             ,#######,   #######,   ,#######,      ##                                
            ,#'     '#,  ##    ##  ,#'     '#,    #''#        ,####,   ,####,        
            ##       ##  ##   ,#'  ##            #'  '#       #'       #'  '#        
            ##       ##  #######   ##           ,######,      #####,   #    #        
            '#,     ,#'  ##    ##  '#,     ,#' ,#      #,     #,   #   #,  ,#        
             '#######'   ##     ##  '#######'  #'      '#     '####' # '####'        



                #########################################################
                #                        -***-                          #
                #          Department of theory and spectroscopy        #
                #                                                       #
                #                      Frank Neese                      #
                #                                                       #
                #     Directorship, Architecture, Infrastructure        #
                #                    SHARK, DRIVERS                     #
                #        Core code/Algorithms in most modules           #
                #                                                       #
                #        Max Planck Institute fuer Kohlenforschung      #
                #                Kaiser Wilhelm Platz 1                 #
                #                 D-45470 Muelheim/Ruhr                 #
                #                      Germany                          #
                #                                                       #
                #                  All rights reserved                  #
                #                        -***-                          #
                #########################################################


                         Program Version 6.0.0  -   RELEASE  -


 With contributions from (in alphabetic order):
   Daniel Aravena         : Magnetic Suceptibility
   Michael Atanasov       : Ab Initio Ligand Field Theory (pilot matlab implementation)
   Alexander A. Auer      : GIAO ZORA, VPT2 properties, NMR spectrum
   Ute Becker             : All parallelization in ORCA, NUMFREQ, NUMCALC
   Giovanni Bistoni       : ED, misc. LED, open-shell LED, HFLD
   Martin Brehm           : Molecular dynamics
   Dmytro Bykov           : pre 5.0 version of the SCF Hessian
   Marcos Casanova-Páez   : Triplet and SCS-CIS(D). UHF-(DLPNO)-IP/EA/STEOM-CCSD. UHF-CVS-IP/STEOM-CCSD
   Vijay G. Chilkuri      : MRCI spin determinant printing, contributions to CSF-ICE
   Pauline Colinet        : FMM embedding
   Dipayan Datta          : RHF DLPNO-CCSD density
   Achintya Kumar Dutta   : EOM-CC, STEOM-CC
   Nicolas Foglia         : Exact transition moments, OPA infrastructure, MCD improvements
   Dmitry Ganyushin       : Spin-Orbit,Spin-Spin,Magnetic field MRCI
   Miquel Garcia          : C-PCM and meta-GGA Hessian, CCSD/C-PCM, Gaussian charge scheme
   Tiago L. C. Gouveia    : GS-ROHF, GS-ROCIS
   Yang Guo               : DLPNO-NEVPT2, F12-NEVPT2, CIM, IAO-localization
   Andreas Hansen         : Spin unrestricted coupled pair/coupled cluster methods
   Ingolf Harden          : AUTO-CI MPn and infrastructure 
   Benjamin Helmich-Paris : MC-RPA, TRAH-(SCF,CASSCF), AVAS, COSX integrals, SCF dyn. polar.
   Lee Huntington         : MR-EOM, pCC
   Robert Izsak           : Overlap fitted RIJCOSX, COSX-SCS-MP3, EOM
   Riya Kayal             : Wick's Theorem for AUTO-CI, AUTO-CI UHF-CCSDT
   Emily Kempfer          : AUTO-CI, RHF CISDT and CCSDT
   Christian Kollmar      : KDIIS, OOCD, Brueckner-CCSD(T), CCSD density, CASPT2, CASPT2-K, improved NEVPT2
   Axel Koslowski         : Symmetry handling
   Simone Kossmann        : Meta GGA functionals, TD-DFT gradient, OOMP2, (MP2 Hessian; deprecated post 5.0)
   Lucas Lang             : DCDCAS
   Marvin Lechner         : AUTO-CI (C++ implementation), FIC-MRCC
   Spencer Leger          : CASSCF response
   Dagmar Lenk            : GEPOL surface, SMD, ORCA-2-JSON
   Dimitrios Liakos       : Extrapolation schemes; Compound Job, initial MDCI parallelization
   Dimitrios Manganas     : Further ROCIS development; embedding schemes. LFT, Crystal Embedding
   Dimitrios Pantazis     : SARC Basis sets
   Anastasios Papadopoulos: AUTO-CI, single reference methods and gradients
   Taras Petrenko         : pre 6.0 DFT Hessian and TD-DFT gradient, (ASA, deprecated), ECA, 1-Electron XAS/XES, NRVS
   Peter Pinski           : DLPNO-MP2, DLPNO-MP2 Gradient
   Christoph Reimann      : Effective Core Potentials
   Marius Retegan         : Local ZFS, SOC
   Christoph Riplinger    : Optimizer, TS searches, QM/MM, DLPNO-CCSD(T), (RO)-DLPNO pert. Triples
   Michael Roemelt        : Original ROCIS implementation
   Masaaki Saitow         : Open-shell DLPNO-CCSD energy and density
   Barbara Sandhoefer     : DKH picture change effects
   Kantharuban Sivalingam : CASSCF convergence/infrastructure, NEVPT2 and variants, FIC-MRCI
   Bernardo de Souza      : ESD, SOC TD-DFT
   Georgi Stoychev        : AutoAux, RI-MP2 NMR, DLPNO-MP2 response, X2C
   Van Anh Tran           : RI-MP2 g-tensors
   Willem Van den Heuvel  : Paramagnetic NMR
   Zikuan Wang            : NOTCH, Electric field optimization 
   Frank Wennmohs         : Technical directorship and infrastructure
   Hang Xu                : AUTO-CI-Response properties 


 We gratefully acknowledge several colleagues who have allowed us to
 interface, adapt or use parts of their codes:
   Stefan Grimme, W. Hujo, H. Kruse, P. Pracht,  : VdW corrections, initial TS optimization,
                  C. Bannwarth, S. Ehlert,         DFT functionals, gCP, sTDA/sTD-DF
                  L. Wittmann, M. Mueller
   Ed Valeev, F. Pavosevic, A. Kumar             : LibInt (2-el integral package), F12 methods
   Garnet Chan, S. Sharma, J. Yang, R. Olivares  : DMRG
   Ulf Ekstrom                                   : XCFun DFT Library
   Mihaly Kallay                                 : mrcc  (arbitrary order and MRCC methods)
   Frank Weinhold                                : gennbo (NPA and NBO analysis)
   Simon Mueller                                 : openCOSMO-RS
   Christopher J. Cramer and Donald G. Truhlar   : smd solvation model
   Lars Goerigk                                  : TD-DFT with DH, B97 family of functionals
   V. Asgeirsson, H. Jonsson                     : NEB implementation
   FAccTs GmbH                                   : IRC, NEB, NEB-TS, DLPNO-Multilevel, CI-OPT
                                                   MM, QMMM, 2- and 3-layer-ONIOM, Crystal-QMMM,
                                                   LR-CPCM, SF, NACMEs, symmetry and pop. for TD-DFT,
                                                   nearIR, NL-DFT gradient (VV10), updates on ESD,
                                                   ML-optimized integration grids, MBIS, APM,
                                                   GOAT, DOCKER, SOLVATOR, interface openCOSMO-RS
   S Lehtola, MJT Oliveira, MAL Marques          : LibXC Library
   Liviu Ungur et al                             : ANISO software


 Your calculation uses the libint2 library for the computation of 2-el integrals
 For citations please refer to: http://libint.valeyev.net

 Your ORCA version has been built with support for libXC version: 6.2.2
 For citations please refer to: https://libxc.gitlab.io

 This ORCA versions uses:
   CBLAS   interface :  Fast vector & matrix operations
   LAPACKE interface :  Fast linear algebra routines
   SCALAPACK package :  Parallel linear algebra routines
   Shared memory     :  Shared parallel matrices
   BLAS/LAPACK       :  OpenBLAS 0.3.27  USE64BITINT DYNAMIC_ARCH NO_AFFINITY SkylakeX SINGLE_THREADED
        Core in use  :  SkylakeX
   Copyright (c) 2011-2014, The OpenBLAS Project


Warning: RI is on but no J-basis has been assigned. Assigning Def2/J (nothing to worry about!)
================================================================================

----- Orbital basis set information -----
Your calculation utilizes the basis: 6-31G*
   H-He, Li-Ne : W. J. Hehre, R. Ditchfield and J.A. Pople, J. Chem. Phys. 56, 2257 (1972).
                 Note: He and Ne are unpublished basis sets taken from the Gaussian program.
                 Note: Li and B from J. D. Dill and J. A. Pople, J. Chem. Phys. 62, 2921 (1975).
   Na - Ar     : M. M. Francl, W. J. Pietro, W. J. Hehre, J. S. Binkley, M. S. Gordon, 
                 D. J. DeFrees and J. A. Pople, J. Chem. Phys. 77, 3654 (1982).
   K - Zn      : V. A. Rassolov, J. A. Pople, M. A. Ratner, and T. L. Windus, J. Chem. Phys. 109, 1223 (1998).

----- AuxJ basis set information -----
Your calculation utilizes the auxiliary basis: def2/J
   F. Weigend, Phys. Chem. Chem. Phys. 8, 1057 (2006).

================================================================================
                                        WARNINGS
                       Please study these warnings very carefully!
================================================================================


================================================================================
                                       INPUT FILE
================================================================================
NAME = /home/nmrbox/aojoawo/Documents/ERDOS/inputs/CHEMBL3892326.inp
|  1> ! B3LYP 6-31G* SP
|  2> 
|  3> * xyz 0 1
|  4> C -3.5427 -2.3648 -0.6308
|  5> N -4.1816 -1.1138 -0.1851
|  6> C -3.5296 -0.3020 0.7153
|  7> O -2.3998 -0.6305 1.1690
|  8> C -4.1341 0.8916 1.1248
|  9> C -3.6746 1.8681 2.0580
| 10> C -2.3612 1.8130 2.7870
| 11> C -1.2318 2.1877 1.8725
| 12> O -1.2607 3.3028 1.2848
| 13> N -0.1101 1.3047 1.7132
| 14> C 0.8775 1.4241 0.6794
| 15> N 1.9796 0.6467 0.6386
| 16> C 2.7574 0.9027 -0.4515
| 17> C 4.0234 0.1589 -0.6896
| 18> C 4.3119 -0.9898 0.0680
| 19> C 5.4966 -1.7020 -0.1361
| 20> C 6.4255 -1.2790 -1.1043
| 21> O 7.6276 -1.9657 -1.3463
| 22> C 8.0599 -3.1412 -0.6645
| 23> F 8.1997 -2.8837 0.6876
| 24> F 9.2841 -3.5292 -1.1726
| 25> F 7.1520 -4.1664 -0.8581
| 26> C 6.1456 -0.1300 -1.8579
| 27> Cl 7.2845 0.4354 -3.0714
| 28> C 4.9585 0.5826 -1.6527
| 29> C 2.2515 1.8949 -1.2991
| 30> S 0.8034 2.4513 -0.6510
| 31> N -4.5065 2.9341 2.2353
| 32> S -5.8186 2.6697 1.2454
| 33> C -5.3534 1.2165 0.5758
| 34> N -5.9863 0.4522 -0.3537
| 35> C -7.2976 0.8535 -0.8837
| 36> C -5.3948 -0.7318 -0.7246
| 37> O -5.9678 -1.4770 -1.5693
| 38> H -4.2981 -3.1290 -0.9123
| 39> H -2.9327 -2.8175 0.1805
| 40> H -2.8901 -2.1577 -1.5049
| 41> H -2.3779 2.5280 3.6373
| 42> H -2.2110 0.8030 3.2219
| 43> H -0.0077 0.5088 2.3825
| 44> H 3.6175 -1.3458 0.8189
| 45> H 5.6762 -2.5808 0.4666
| 46> H 4.7869 1.4727 -2.2410
| 47> H 2.6828 2.2442 -2.2262
| 48> H -7.3626 1.9572 -0.9872
| 49> H -7.4724 0.4307 -1.8958
| 50> H -8.0984 0.5028 -0.1994
| 51> *
| 52> 
| 53>                          ****END OF INPUT****
================================================================================

                       ****************************
                       * Single Point Calculation *
                       ****************************

---------------------------------
CARTESIAN COORDINATES (ANGSTROEM)
---------------------------------
  C     -3.542700   -2.364800   -0.630800
  N     -4.181600   -1.113800   -0.185100
  C     -3.529600   -0.302000    0.715300
  O     -2.399800   -0.630500    1.169000
  C     -4.134100    0.891600    1.124800
  C     -3.674600    1.868100    2.058000
  C     -2.361200    1.813000    2.787000
  C     -1.231800    2.187700    1.872500
  O     -1.260700    3.302800    1.284800
  N     -0.110100    1.304700    1.713200
  C      0.877500    1.424100    0.679400
  N      1.979600    0.646700    0.638600
  C      2.757400    0.902700   -0.451500
  C      4.023400    0.158900   -0.689600
  C      4.311900   -0.989800    0.068000
  C      5.496600   -1.702000   -0.136100
  C      6.425500   -1.279000   -1.104300
  O      7.627600   -1.965700   -1.346300
  C      8.059900   -3.141200   -0.664500
  F      8.199700   -2.883700    0.687600
  F      9.284100   -3.529200   -1.172600
  F      7.152000   -4.166400   -0.858100
  C      6.145600   -0.130000   -1.857900
  Cl     7.284500    0.435400   -3.071400
  C      4.958500    0.582600   -1.652700
  C      2.251500    1.894900   -1.299100
  S      0.803400    2.451300   -0.651000
  N     -4.506500    2.934100    2.235300
  S     -5.818600    2.669700    1.245400
  C     -5.353400    1.216500    0.575800
  N     -5.986300    0.452200   -0.353700
  C     -7.297600    0.853500   -0.883700
  C     -5.394800   -0.731800   -0.724600
  O     -5.967800   -1.477000   -1.569300
  H     -4.298100   -3.129000   -0.912300
  H     -2.932700   -2.817500    0.180500
  H     -2.890100   -2.157700   -1.504900
  H     -2.377900    2.528000    3.637300
  H     -2.211000    0.803000    3.221900
  H     -0.007700    0.508800    2.382500
  H      3.617500   -1.345800    0.818900
  H      5.676200   -2.580800    0.466600
  H      4.786900    1.472700   -2.241000
  H      2.682800    2.244200   -2.226200
  H     -7.362600    1.957200   -0.987200
  H     -7.472400    0.430700   -1.895800
  H     -8.098400    0.502800   -0.199400

----------------------------
CARTESIAN COORDINATES (A.U.)
----------------------------
  NO LB      ZA    FRAG     MASS         X           Y           Z
   0 C     6.0000    0    12.011   -6.694733   -4.468824   -1.192039
   1 N     7.0000    0    14.007   -7.902079   -2.104777   -0.349788
   2 C     6.0000    0    12.011   -6.669977   -0.570697    1.351721
   3 O     8.0000    0    15.999   -4.534965   -1.191472    2.209090
   4 C     6.0000    0    12.011   -7.812317    1.684880    2.125564
   5 C     6.0000    0    12.011   -6.943988    3.530197    3.889056
   6 C     6.0000    0    12.011   -4.462021    3.426073    5.266667
   7 C     6.0000    0    12.011   -2.327765    4.134154    3.538512
   8 O     8.0000    0    15.999   -2.382378    6.241387    2.427920
   9 N     7.0000    0    14.007   -0.208059    2.465526    3.237479
  10 C     6.0000    0    12.011    1.658235    2.691159    1.283880
  11 N     7.0000    0    14.007    3.740902    1.222086    1.206779
  12 C     6.0000    0    12.011    5.210731    1.705856   -0.853211
  13 C     6.0000    0    12.011    7.603124    0.300277   -1.303155
  14 C     6.0000    0    12.011    8.148310   -1.870451    0.128501
  15 C     6.0000    0    12.011   10.387069   -3.216314   -0.257192
  16 C     6.0000    0    12.011   12.142435   -2.416960   -2.086825
  17 O     8.0000    0    15.999   14.414075   -3.714635   -2.544138
  18 C     6.0000    0    12.011   15.231004   -5.936008   -1.255723
  19 F     9.0000    0    18.998   15.495187   -5.449403    1.299376
  20 F     9.0000    0    18.998   17.544406   -6.669221   -2.215893
  21 F     9.0000    0    18.998   13.515321   -7.873355   -1.621574
  22 C     6.0000    0    12.011   11.613501   -0.245664   -3.510922
  23 Cl   17.0000    0    35.453   13.765710    0.822787   -5.804105
  24 C     6.0000    0    12.011    9.370207    1.100954   -3.123150
  25 C     6.0000    0    12.011    4.254718    3.580842   -2.454943
  26 S    16.0000    0    32.060    1.518206    4.632286   -1.230212
  27 N     7.0000    0    14.007   -8.516051    5.544645    4.224105
  28 S    16.0000    0    32.060  -10.995560    5.045002    2.353465
  29 C     6.0000    0    12.011  -10.116460    2.298852    1.088104
  30 N     7.0000    0    14.007  -11.312468    0.854534   -0.668396
  31 C     6.0000    0    12.011  -13.790465    1.612881   -1.669951
  32 C     6.0000    0    12.011  -10.194695   -1.382902   -1.369296
  33 O     8.0000    0    15.999  -11.277508   -2.791125   -2.965547
  34 H     1.0000    0     1.008   -8.122232   -5.912953   -1.723997
  35 H     1.0000    0     1.008   -5.542000   -5.324303    0.341096
  36 H     1.0000    0     1.008   -5.461497   -4.077462   -2.843849
  37 H     1.0000    0     1.008   -4.493580    4.777228    6.873501
  38 H     1.0000    0     1.008   -4.178184    1.517450    6.088509
  39 H     1.0000    0     1.008   -0.014551    0.961493    4.502273
  40 H     1.0000    0     1.008    6.836084   -2.543193    1.547497
  41 H     1.0000    0     1.008   10.726463   -4.877005    0.881746
  42 H     1.0000    0     1.008    9.045930    2.783000   -4.234876
  43 H     1.0000    0     1.008    5.069757    4.240923   -4.206908
  44 H     1.0000    0     1.008  -13.913298    3.698572   -1.865538
  45 H     1.0000    0     1.008  -14.120790    0.813905   -3.582543
  46 H     1.0000    0     1.008  -15.303758    0.950154   -0.376811

--------------------------------
INTERNAL COORDINATES (ANGSTROEM)
--------------------------------
 C      0   0   0     0.000000000000     0.00000000     0.00000000
 N      1   0   0     1.473717306677     0.00000000     0.00000000
 C      2   1   0     1.376533108937   119.54435920     0.00000000
 O      3   2   1     1.261032902029   120.40245989   359.22422941
 C      3   2   1     1.399211013393   119.33289482   179.33719524
 C      5   3   2     1.426728684789   129.50478369   178.42225200
 C      6   5   3     1.503162190184   124.99707381     1.99882956
 C      7   6   5     1.500751378477   110.66316642    75.82497276
 O      8   7   6     1.260822949506   119.18337874    56.52582564
 N      8   7   6     1.436410937023   120.11730369   234.15025015
 C     10   8   7     1.434695981733   124.49283902   166.67881384
 N     11  10   8     1.349310864849   122.41790287   173.86425258
 C     12  11  10     1.363388004201   112.45542436   178.04802821
 C     13  12  11     1.487510016773   121.30735214   179.86892355
 C     14  13  12     1.405952239587   119.79697053    11.93554366
 C     15  14  13     1.397282984939   120.77789804   180.17300921
 C     16  15  14     1.406838814506   120.47031488     0.13686139
 O     17  16  15     1.405405742126   122.43554055   180.17536281
 C     18  17  16     1.426020609949   125.43258663   359.72293198
 F     19  18  17     1.383482815217   110.14974962   299.14228587
 F     19  18  17     1.381077568423   108.92938491   179.88375628
 F     19  18  17     1.383039554749   110.18851689    60.61231321
 C     17  16  15     1.402304521137   118.97420300     0.18529887
 Cl    23  17  16     1.757655432672   120.34891845   179.69151448
 C     23  17  16     1.399682896230   120.50748696   359.80910724
 C     13  12  11     1.399579011703   114.27509244   359.33657560
 S     26  13  12     1.681251968029   108.20989938     0.11777443
 N      6   5   3     1.363762772626   115.06014734   179.81736265
 S     28   6   5     1.664756973255   106.22032727     0.32281178
 C      5   3   2     1.376100832061   117.86882488   358.45209674
 N     30   5   3     1.359664351963   123.53584311   358.93082534
 C     31  30   5     1.470186852070   120.54305423   179.18875933
 C     31  30   5     1.374516300376   117.92835747     2.47353438
 O     33  31  30     1.263791964684   119.54913564   178.80197206
 H      1   2   3     1.110798384046   111.45825586   151.74736051
 H      1   2   3     1.111415754792   111.28072196    33.47423002
 H      1   2   3     1.110327870496   109.54603434   272.68615194
 H      7   6   5     1.111086846291   109.53759816   195.38248270
 H      7   6   5     1.109863978152   109.97703761   312.37635920
 H     10   8   7     1.044942610864   118.27535741   347.74170678
 H     15  14  13     1.082948830739   120.70635027     0.55109779
 H     16  15  14     1.080644664078   118.29074091   180.18283784
 H     25  23  17     1.080657882958   118.30761064   178.94203699
 H     26  13  12     1.080529772843   127.19350741   181.52028086
 H     32  31  30     1.110446279655   110.92280008    36.19327549
 H     32  31  30     1.110703061128   111.40513761   154.66188210
 H     32  31  30     1.110197108625   109.56836793   275.53338128

---------------------------
INTERNAL COORDINATES (A.U.)
---------------------------
 C      0   0   0     0.000000000000     0.00000000     0.00000000
 N      1   0   0     2.784922108440     0.00000000     0.00000000
 C      2   1   0     2.601270590166   119.54435920     0.00000000
 O      3   2   1     2.383006830699   120.40245989   359.22422941
 C      3   2   1     2.644125618879   119.33289482   179.33719524
 C      5   3   2     2.696126481661   129.50478369   178.42225200
 C      6   5   3     2.840564874314   124.99707381     1.99882956
 C      7   6   5     2.836009100426   110.66316642    75.82497276
 O      8   7   6     2.382610077928   119.18337874    56.52582564
 N      8   7   6     2.714423286743   120.11730369   234.15025015
 C     10   8   7     2.711182490912   124.49283902   166.67881384
 N     11  10   8     2.549828004089   122.41790287   173.86425258
 C     12  11  10     2.576429942214   112.45542436   178.04802821
 C     13  12  11     2.810986553166   121.30735214   179.86892355
 C     14  13  12     2.656864690193   119.79697053    11.93554366
 C     15  14  13     2.640482173123   120.77789804   180.17300921
 C     16  15  14     2.658540073986   120.47031488     0.13686139
 O     17  16  15     2.655831959658   122.43554055   180.17536281
 C     18  17  16     2.694788414131   125.43258663   359.72293198
 F     19  18  17     2.614403631746   110.14974962   299.14228587
 F     19  18  17     2.609858374021   108.92938491   179.88375628
 F     19  18  17     2.613565990856   110.18851689    60.61231321
 C     17  16  15     2.649971501308   118.97420300     0.18529887
 Cl    23  17  16     3.321487405548   120.34891845   179.69151448
 C     23  17  16     2.645017348209   120.50748696   359.80910724
 C     13  12  11     2.644821034903   114.27509244   359.33657560
 S     26  13  12     3.177105781690   108.20989938     0.11777443
 N      6   5   3     2.577138151900   115.06014734   179.81736265
 S     28   6   5     3.145934758987   106.22032727     0.32281178
 C      5   3   2     2.600453705257   117.86882488   358.45209674
 N     30   5   3     2.569393259266   123.53584311   358.93082534
 C     31  30   5     2.778250516104   120.54305423   179.18875933
 C     31  30   5     2.597459374322   117.92835747     2.47353438
 O     33  31  30     2.388220703503   119.54913564   178.80197206
 H      1   2   3     2.099104735850   111.45825586   151.74736051
 H      1   2   3     2.100271397482   111.28072196    33.47423002
 H      1   2   3     2.098215594097   109.54603434   272.68615194
 H      7   6   5     2.099649850491   109.53759816   195.38248270
 H      7   6   5     2.097338964612   109.97703761   312.37635920
 H     10   8   7     1.974655360198   118.27535741   347.74170678
 H     15  14  13     2.046476707148   120.70635027     0.55109779
 H     16  15  14     2.042122463191   118.29074091   180.18283784
 H     25  23  17     2.042147443254   118.30761064   178.94203699
 H     26  13  12     2.041905350221   127.19350741   181.52028086
 H     32  31  30     2.098439354980   110.92280008    36.19327549
 H     32  31  30     2.098924601641   111.40513761   154.66188210
 H     32  31  30     2.097968489973   109.56836793   275.53338128

---------------------
BASIS SET INFORMATION
---------------------
There are 7 groups of distinct atoms

 Group   1 Type C   : 10s4p1d contracted to 3s2p1d pattern {631/31/1}
 Group   2 Type N   : 10s4p1d contracted to 3s2p1d pattern {631/31/1}
 Group   3 Type O   : 10s4p1d contracted to 3s2p1d pattern {631/31/1}
 Group   4 Type F   : 10s4p1d contracted to 3s2p1d pattern {631/31/1}
 Group   5 Type Cl  : 16s10p1d contracted to 4s3p1d pattern {6631/631/1}
 Group   6 Type S   : 16s10p1d contracted to 4s3p1d pattern {6631/631/1}
 Group   7 Type H   : 4s contracted to 2s pattern {31}

Atom   0C    basis set group =>   1
Atom   1N    basis set group =>   2
Atom   2C    basis set group =>   1
Atom   3O    basis set group =>   3
Atom   4C    basis set group =>   1
Atom   5C    basis set group =>   1
Atom   6C    basis set group =>   1
Atom   7C    basis set group =>   1
Atom   8O    basis set group =>   3
Atom   9N    basis set group =>   2
Atom  10C    basis set group =>   1
Atom  11N    basis set group =>   2
Atom  12C    basis set group =>   1
Atom  13C    basis set group =>   1
Atom  14C    basis set group =>   1
Atom  15C    basis set group =>   1
Atom  16C    basis set group =>   1
Atom  17O    basis set group =>   3
Atom  18C    basis set group =>   1
Atom  19F    basis set group =>   4
Atom  20F    basis set group =>   4
Atom  21F    basis set group =>   4
Atom  22C    basis set group =>   1
Atom  23Cl   basis set group =>   5
Atom  24C    basis set group =>   1
Atom  25C    basis set group =>   1
Atom  26S    basis set group =>   6
Atom  27N    basis set group =>   2
Atom  28S    basis set group =>   6
Atom  29C    basis set group =>   1
Atom  30N    basis set group =>   2
Atom  31C    basis set group =>   1
Atom  32C    basis set group =>   1
Atom  33O    basis set group =>   3
Atom  34H    basis set group =>   7
Atom  35H    basis set group =>   7
Atom  36H    basis set group =>   7
Atom  37H    basis set group =>   7
Atom  38H    basis set group =>   7
Atom  39H    basis set group =>   7
Atom  40H    basis set group =>   7
Atom  41H    basis set group =>   7
Atom  42H    basis set group =>   7
Atom  43H    basis set group =>   7
Atom  44H    basis set group =>   7
Atom  45H    basis set group =>   7
Atom  46H    basis set group =>   7
---------------------------------
AUXILIARY/J BASIS SET INFORMATION
---------------------------------
There are 7 groups of distinct atoms

 Group   1 Type C   : 12s5p4d2f1g contracted to 6s4p3d1f1g pattern {711111/2111/211/2/1}
 Group   2 Type N   : 12s5p4d2f1g contracted to 6s4p3d1f1g pattern {711111/2111/211/2/1}
 Group   3 Type O   : 12s5p4d2f1g contracted to 6s4p3d1f1g pattern {711111/2111/211/2/1}
 Group   4 Type F   : 12s5p4d2f1g contracted to 6s4p3d1f1g pattern {711111/2111/211/2/1}
 Group   5 Type Cl  : 14s5p5d2f1g contracted to 8s4p3d1f1g pattern {71111111/2111/311/2/1}
 Group   6 Type S   : 14s5p5d2f1g contracted to 8s4p3d1f1g pattern {71111111/2111/311/2/1}
 Group   7 Type H   : 5s2p1d contracted to 3s1p1d pattern {311/2/1}

Atom   0C    basis set group =>   1
Atom   1N    basis set group =>   2
Atom   2C    basis set group =>   1
Atom   3O    basis set group =>   3
Atom   4C    basis set group =>   1
Atom   5C    basis set group =>   1
Atom   6C    basis set group =>   1
Atom   7C    basis set group =>   1
Atom   8O    basis set group =>   3
Atom   9N    basis set group =>   2
Atom  10C    basis set group =>   1
Atom  11N    basis set group =>   2
Atom  12C    basis set group =>   1
Atom  13C    basis set group =>   1
Atom  14C    basis set group =>   1
Atom  15C    basis set group =>   1
Atom  16C    basis set group =>   1
Atom  17O    basis set group =>   3
Atom  18C    basis set group =>   1
Atom  19F    basis set group =>   4
Atom  20F    basis set group =>   4
Atom  21F    basis set group =>   4
Atom  22C    basis set group =>   1
Atom  23Cl   basis set group =>   5
Atom  24C    basis set group =>   1
Atom  25C    basis set group =>   1
Atom  26S    basis set group =>   6
Atom  27N    basis set group =>   2
Atom  28S    basis set group =>   6
Atom  29C    basis set group =>   1
Atom  30N    basis set group =>   2
Atom  31C    basis set group =>   1
Atom  32C    basis set group =>   1
Atom  33O    basis set group =>   3
Atom  34H    basis set group =>   7
Atom  35H    basis set group =>   7
Atom  36H    basis set group =>   7
Atom  37H    basis set group =>   7
Atom  38H    basis set group =>   7
Atom  39H    basis set group =>   7
Atom  40H    basis set group =>   7
Atom  41H    basis set group =>   7
Atom  42H    basis set group =>   7
Atom  43H    basis set group =>   7
Atom  44H    basis set group =>   7
Atom  45H    basis set group =>   7
Atom  46H    basis set group =>   7
------------------------------------------------------------------------------
                             ORCA STARTUP CALCULATIONS
                           -- RI-GTO INTEGRALS CHOSEN --
------------------------------------------------------------------------------
------------------------------------------------------------------------------
                   ___                                                        
                  /   \      - P O W E R E D   B Y -                         
                 /     \                                                     
                 |  |  |   _    _      __       _____    __    __             
                 |  |  |  | |  | |    /  \     |  _  \  |  |  /  |          
                  \  \/   | |  | |   /    \    | | | |  |  | /  /          
                 / \  \   | |__| |  /  /\  \   | |_| |  |  |/  /          
                |  |  |   |  __  | /  /__\  \  |    /   |      \           
                |  |  |   | |  | | |   __   |  |    \   |  |\   \          
                \     /   | |  | | |  |  |  |  | |\  \  |  | \   \       
                 \___/    |_|  |_| |__|  |__|  |_| \__\ |__|  \__/        
                                                                              
                      - O R C A' S   B I G   F R I E N D -                    
                                      &                                       
                       - I N T E G R A L  F E E D E R -                       
                                                                              
 v1 FN, 2020, v2 2021, v3 2022-2024                                           
------------------------------------------------------------------------------


----------------------
SHARK INTEGRAL PACKAGE
----------------------

Number of atoms                             ...     47
Number of basis functions                   ...    514
Number of shells                            ...    236
Maximum angular momentum                    ...      2
Integral batch strategy                     ... SHARK/LIBINT Hybrid
RI-J (if used) integral strategy            ... SPLIT-RIJ (Revised 2003 algorithm where possible)
Printlevel                                  ...      1
Contraction scheme used                     ... SEGMENTED contraction
Prescreening option                         ... SCHWARTZ
   Thresh                                   ... 1.000e-10
   Tcut                                     ... 1.000e-11
   Tpresel                                  ... 1.000e-11 
Coulomb Range Separation                    ... NOT USED
Exchange Range Separation                   ... NOT USED
Multipole approximations                    ... NOT USED
Finite Nucleus Model                        ... NOT USED
CABS basis                                  ... NOT available
Auxiliary Coulomb fitting basis             ... AVAILABLE
   # of basis functions in Aux-J            ...   1815
   # of shells in Aux-J                     ...    581
   Maximum angular momentum in Aux-J        ...      4
Auxiliary J/K fitting basis                 ... NOT available
Auxiliary Correlation fitting basis         ... NOT available
Auxiliary 'external' fitting basis          ... NOT available

Checking pre-screening integrals            ... done (  0.0 sec) Dimension = 236
Check shell pair data                       ... done (  0.0 sec)
Shell pair information
Shell pair cut-off parameter TPreSel        ...   1.0e-11
Total number of shell pairs                 ...     27966
Shell pairs after pre-screening             ...     13131
Total number of primitive shell pairs       ...    179944
Primitive shell pairs kept                  ...     43818
          la=0 lb=0:   3805 shell pairs
          la=1 lb=0:   4684 shell pairs
          la=1 lb=1:   1454 shell pairs
          la=2 lb=0:   1799 shell pairs
          la=2 lb=1:   1154 shell pairs
          la=2 lb=2:    235 shell pairs

Calculating one electron integrals          ... done (  0.2 sec)
Calculating RI/J V-Matrix + Cholesky decomp.... done (  0.5 sec)
Calculating Nuclear repulsion               ... done (  0.0 sec) ENN=   3846.548729607765 Eh

Diagonalization of the overlap matrix:
Smallest eigenvalue                        ... 4.372e-04
Time for diagonalization                   ...    0.048 sec
Threshold for overlap eigenvalues          ... 1.000e-07
Number of eigenvalues below threshold      ... 0
Time for construction of square roots      ...    0.047 sec
Total time needed                          ...    0.117 sec

-------------------
DFT GRID GENERATION
-------------------

General Integration Accuracy     IntAcc      ... 4.388
Radial Grid Type                 RadialGrid  ... OptM3 with GC (2021)
Angular Grid (max. ang.)         AngularGrid ... 4 (Lebedev-302)
Angular grid pruning method      GridPruning ... 4 (adaptive)
Weight generation scheme         WeightScheme... mBecke (2022)
Basis function cutoff            BFCut       ... 1.0000e-10
Integration weight cutoff        WCut        ... 1.0000e-14
Partially contracted basis set               ... off
Rotationally invariant grid construction     ... off
Angular grids for H and He will be reduced by one unit

Total number of grid points                  ...   249591
Total number of batches                      ...     3924
Average number of points per batch           ...       63
Average number of grid points per atom       ...     5310

--------------------
COSX GRID GENERATION
--------------------

GRIDX 1
-------
General Integration Accuracy     IntAcc      ... 3.816
Radial Grid Type                 RadialGrid  ... OptM3 with GC (2021)
Angular Grid (max. ang.)         AngularGrid ... 1 (Lebedev-50)
Angular grid pruning method      GridPruning ... 4 (adaptive)
Weight generation scheme         WeightScheme... mBecke (2022)
Basis function cutoff            BFCut       ... 1.0000e-10
Integration weight cutoff        WCut        ... 1.0000e-14
Partially contracted basis set               ... on
Rotationally invariant grid construction     ... off
Angular grids for H and He will be reduced by one unit

Total number of grid points                  ...    34589
Total number of batches                      ...      295
Average number of points per batch           ...      117
Average number of grid points per atom       ...      736
UseSFitting                                  ... on

GRIDX 2
-------
General Integration Accuracy     IntAcc      ... 4.020
Radial Grid Type                 RadialGrid  ... OptM3 with GC (2021)
Angular Grid (max. ang.)         AngularGrid ... 2 (Lebedev-110)
Angular grid pruning method      GridPruning ... 4 (adaptive)
Weight generation scheme         WeightScheme... mBecke (2022)
Basis function cutoff            BFCut       ... 1.0000e-10
Integration weight cutoff        WCut        ... 1.0000e-14
Partially contracted basis set               ... on
Rotationally invariant grid construction     ... off
Angular grids for H and He will be reduced by one unit

Total number of grid points                  ...    70342
Total number of batches                      ...      573
Average number of points per batch           ...      122
Average number of grid points per atom       ...     1497
UseSFitting                                  ... on

GRIDX 3
-------
General Integration Accuracy     IntAcc      ... 4.338
Radial Grid Type                 RadialGrid  ... OptM3 with GC (2021)
Angular Grid (max. ang.)         AngularGrid ... 3 (Lebedev-194)
Angular grid pruning method      GridPruning ... 4 (adaptive)
Weight generation scheme         WeightScheme... mBecke (2022)
Basis function cutoff            BFCut       ... 1.0000e-10
Integration weight cutoff        WCut        ... 1.0000e-14
Partially contracted basis set               ... on
Rotationally invariant grid construction     ... off
Angular grids for H and He will be reduced by one unit

Total number of grid points                  ...   156182
Total number of batches                      ...     1248
Average number of points per batch           ...      125
Average number of grid points per atom       ...     3323
UseSFitting                                  ... on
Initializing property integral containers    ... done (  0.0 sec)

SHARK setup successfully completed in  12.7 seconds

Maximum memory used throughout the entire STARTUP-calculation: 106.3 MB
-------------------------------------------------------------------------------
                                 ORCA GUESS
                   Start orbitals & Density for SCF / CASSCF
-------------------------------------------------------------------------------

------------
SCF SETTINGS
------------
Hamiltonian:
 Density Functional     Method          .... DFT(GTOs)
 Exchange Functional    Exchange        .... B88
   X-Alpha parameter    XAlpha          ....  0.666667
   Becke's b parameter  XBeta           ....  0.004200
 Correlation Functional Correlation     .... LYP
 LDA part of GGA corr.  LDAOpt          .... VWN-5
 Gradients option       PostSCFGGA      .... off
 Hybrid DFT is turned on
   Fraction HF Exchange ScalHFX         ....  0.200000
   Scaling of DF-GGA-X  ScalDFX         ....  0.720000
   Scaling of DF-GGA-C  ScalDFC         ....  0.810000
   Scaling of DF-LDA-C  ScalLDAC        ....  1.000000
   Perturbative correction              ....  0.000000
   NL short-range parameter             ....  4.800000
 RI-approximation to the Coulomb term is turned on
   Number of AuxJ basis functions       .... 1815
   RIJ-COSX (HFX calculated with COS-X)).... on


General Settings:
 Integral files         IntName         .... /home/nmrbox/aojoawo/Documents/ERDOS/inputs/CHEMBL3892326
 Hartree-Fock type      HFTyp           .... RHF
 Total Charge           Charge          ....    0
 Multiplicity           Mult            ....    1
 Number of Electrons    NEL             ....  270
 Basis Dimension        Dim             ....  514
 Nuclear Repulsion      ENuc            ....   3846.5487296078 Eh

Convergence Acceleration:
 AO-DIIS                CNVDIIS         .... on
   Start iteration      DIISMaxIt       ....    12
   Startup error        DIISStart       ....  0.200000
   # of expansion vecs  DIISMaxEq       ....     5
   Bias factor          DIISBfac        ....   1.050
   Max. coefficient     DIISMaxC        ....  10.000
 MO-DIIS                CNVKDIIS        .... off
 Trust-Rad. Augm. Hess. CNVTRAH         .... auto
   Auto Start mean grad. ratio tolernc. ....  1.125000
   Auto Start start iteration           ....    50
   Auto Start num. interpolation iter.  ....    10
   Max. Number of Micro iterations      ....    24
   Max. Number of Macro iterations      .... Maxiter - #DIIS iter
   Number of Davidson start vectors     ....     2
   Converg. threshold    (grad. norm)   ....   5.000e-05
   Grad. Scal. Fac. for Micro threshold ....   0.100
   Minimum threshold for Micro iter.    ....   1.000e-02
   NR start threshold (gradient norm)   ....   1.000e-04
   Initial trust radius                 ....   0.400
   Minimum AH scaling param. (alpha)    ....   1.000
   Maximum AH scaling param. (alpha)    .... 1000.000
   Quad. conv. algorithm                .... NR
   White noise on init. David. guess    .... on
   Maximum white noise                  ....   0.010
   Pseudo random numbers                .... off
   Inactive MOs                         .... canonical
   Orbital update algorithm             .... Taylor
   Preconditioner                       .... Diag
   Full preconditioner red. dimension   ....   250
 SOSCF                  CNVSOSCF        .... on
   Start iteration      SOSCFMaxIt      ....   150
   Startup grad/error   SOSCFStart      ....  0.003300
   Hessian update       SOSCFHessUp     .... L-BFGS
 Level Shifting         CNVShift        .... on
   Level shift para.    LevelShift      ....    0.2500
   Turn off err/grad.   ShiftErr        ....    0.0010
 Zerner damping         CNVZerner       .... off
 Static damping         CNVDamp         .... on
   Fraction old density DampFac         ....    0.7000
   Max. Damping (<1)    DampMax         ....    0.9800
   Min. Damping (>=0)   DampMin         ....    0.0000
   Turn off err/grad.   DampErr         ....    0.1000

SCF Procedure:
 Maximum # iterations   MaxIter         ....   125
 SCF integral mode      SCFMode         .... Direct
   Integral package                     .... SHARK and LIBINT hybrid scheme
 Reset frequency        DirectResetFreq ....    20
 Integral Threshold     Thresh          ....  1.000e-10 Eh
 Primitive CutOff       TCut            ....  1.000e-11 Eh

Convergence Tolerance:
 Convergence Check Mode ConvCheckMode   .... Total+1el-Energy
 Convergence forced     ConvForced      .... 0
 Energy Change          TolE            ....  1.000e-06 Eh
 1-El. energy change                    ....  1.000e-03 Eh
 Orbital Gradient       TolG            ....  5.000e-05
 Orbital Rotation angle TolX            ....  5.000e-05
 DIIS Error             TolErr          ....  1.000e-06

------------------------------
INITIAL GUESS: MODEL POTENTIAL
------------------------------
Loading Hartree-Fock densities                     ... done
Calculating cut-offs                               ... done
Initializing the effective Hamiltonian             ... done
Setting up the integral package (SHARK)            ... done
Starting the Coulomb interaction                   ... done (   3.8 sec)
Making the grid                                    ... done (   1.6 sec)
Mapping shells                                     ... done
Starting the XC term evaluation                    ... done (   1.2 sec)
  promolecular density results
     # of electrons  =    269.990292723
     EX              =   -274.991188239
     EC              =     -9.849952680
     EX+EC           =   -284.841140919
Transforming the Hamiltonian                       ... done (   0.0 sec)
Diagonalizing the Hamiltonian                      ... done (   0.0 sec)
Back transforming the eigenvectors                 ... done (   0.0 sec)
Now organizing SCF variables                       ... done
                      ------------------
                      INITIAL GUESS DONE (   6.7 sec)
                      ------------------
             **** ENERGY FILE WAS UPDATED (/home/nmrbox/aojoawo/Documents/ERDOS/inputs/CHEMBL3892326.en.tmp) ****
Finished Guess after   7.1 sec
Maximum memory used throughout the entire GUESS-calculation: 57.8 MB

-------------------------------------------------------------------------------------------
                                      ORCA LEAN-SCF
                              memory conserving SCF solver
-------------------------------------------------------------------------------------------

----------------------------------------D-I-I-S--------------------------------------------
Iteration    Energy (Eh)           Delta-E    RMSDP     MaxDP     DIISErr   Damp  Time(sec)
-------------------------------------------------------------------------------------------
               ***  Starting incremental Fock matrix formation  ***
    1    -2860.6427196797840224     0.00e+00  2.45e-03  1.16e-01  2.83e-01  0.700  66.1
    2    -2861.0957938231940716    -4.53e-01  1.47e-03  5.67e-02  9.77e-02  0.700  30.9
                               ***Turning on AO-DIIS***
    3    -2861.2383715093792489    -1.43e-01  5.36e-04  1.88e-02  3.33e-02  0.700  29.7
    4    -2861.3337026221051929    -9.53e-02  9.88e-04  6.16e-02  1.48e-02  0.000  26.7
    5    -2861.5547090519012272    -2.21e-01  2.48e-04  1.05e-02  8.10e-03  0.000  28.2
    6    -2861.5566146673290859    -1.91e-03  8.76e-05  4.15e-03  3.50e-03  0.000  24.4
                              *** Initializing SOSCF ***
---------------------------------------S-O-S-C-F--------------------------------------
Iteration    Energy (Eh)           Delta-E    RMSDP     MaxDP     MaxGrad    Time(sec)
--------------------------------------------------------------------------------------
    7    -2861.5567723480626228    -1.58e-04  3.12e-05  1.13e-03  2.06e-03    21.5
               *** Restarting incremental Fock matrix formation ***
    8    -2861.5567165175780246     5.58e-05  3.15e-05  1.23e-03  2.02e-04    64.2
    9    -2861.5567133954600649     3.12e-06  1.70e-05  6.82e-04  4.88e-04    34.1
   10    -2861.5567236967299323    -1.03e-05  7.92e-06  3.33e-04  7.54e-05    30.3
   11    -2861.5567232828725537     4.14e-07  4.10e-06  2.22e-04  1.01e-04    27.6
                 **** Energy Check signals convergence ****

               *****************************************************
               *                     SUCCESS                       *
               *           SCF CONVERGED AFTER  11 CYCLES          *
               *****************************************************

Recomputing exchange energy using gridx3       ... done (  113.264 sec)
Old exchange energy                            :    -55.362731172 Eh
New exchange energy                            :    -55.362734849 Eh
Exchange energy change after final integration :     -0.000003677 Eh
Total energy after final integration           :  -2861.556726960 Eh
             **** ENERGY FILE WAS UPDATED (/home/nmrbox/aojoawo/Documents/ERDOS/inputs/CHEMBL3892326.en.tmp) ****

----------------
TOTAL SCF ENERGY
----------------

Total Energy       :      -2861.55672695955946 Eh          -77866.91722 eV

Components:
Nuclear Repulsion  :       3846.54872960776538 Eh          104669.91225 eV
Electronic Energy  :      -6708.10545289063793 Eh         -182536.82937 eV
One Electron Energy:     -11589.71784659116565 Eh         -315372.25582 eV
Two Electron Energy:       4881.61239370052772 Eh          132835.42646 eV

Virial components:
Potential Energy   :      -5710.70314500954555 Eh         -155396.13276 eV
Kinetic Energy     :       2849.14641804998655 Eh           77529.21554 eV
Virial Ratio       :          2.00435579892664

DFT components:
N(Alpha)           :      135.000002124162 electrons
N(Beta)            :      135.000002124162 electrons
N(Total)           :      270.000004248324 electrons
E(X)               :     -220.127948288237 Eh       
E(C)               :      -11.539930158182 Eh       
E(XC)              :     -231.667878446419 Eh       

---------------
SCF CONVERGENCE
---------------

  Last Energy change         ...   -4.1386e-07  Tolerance :   1.0000e-06
  Last MAX-Density change    ...    2.2249e-04  Tolerance :   1.0000e-05
  Last RMS-Density change    ...    4.0990e-06  Tolerance :   1.0000e-06
  Last DIIS Error            ...    2.0600e-03  Tolerance :   1.0000e-06
  Last Orbital Gradient      ...    1.0075e-04  Tolerance :   5.0000e-05
  Last Orbital Rotation      ...    1.3873e-04  Tolerance :   5.0000e-05


----------------
ORBITAL ENERGIES
----------------

  NO   OCC          E(Eh)            E(eV) 
   0   2.0000    -101.529996     -2762.7716 
   1   2.0000     -88.939199     -2420.1586 
   2   2.0000     -88.902586     -2419.1624 
   3   2.0000     -24.740086      -673.2120 
   4   2.0000     -24.738729      -673.1750 
   5   2.0000     -24.738306      -673.1635 
   6   2.0000     -19.214224      -522.8456 
   7   2.0000     -19.133628      -520.6525 
   8   2.0000     -19.132666      -520.6263 
   9   2.0000     -19.129330      -520.5355 
  10   2.0000     -14.433090      -392.7444 
  11   2.0000     -14.413355      -392.2073 
  12   2.0000     -14.392747      -391.6465 
  13   2.0000     -14.374082      -391.1386 
  14   2.0000     -14.330869      -389.9628 
  15   2.0000     -10.504360      -285.8382 
  16   2.0000     -10.348494      -281.5968 
  17   2.0000     -10.315182      -280.6904 
  18   2.0000     -10.310767      -280.5702 
  19   2.0000     -10.291002      -280.0324 
  20   2.0000     -10.289486      -279.9911 
  21   2.0000     -10.276131      -279.6277 
  22   2.0000     -10.265591      -279.3409 
  23   2.0000     -10.255842      -279.0756 
  24   2.0000     -10.255554      -279.0678 
  25   2.0000     -10.231745      -278.4199 
  26   2.0000     -10.227125      -278.2942 
  27   2.0000     -10.218755      -278.0665 
  28   2.0000     -10.218581      -278.0617 
  29   2.0000     -10.208321      -277.7825 
  30   2.0000     -10.206180      -277.7243 
  31   2.0000     -10.204636      -277.6823 
  32   2.0000     -10.200646      -277.5737 
  33   2.0000     -10.193976      -277.3922 
  34   2.0000      -9.461396      -257.4577 
  35   2.0000      -8.013346      -218.0542 
  36   2.0000      -7.978811      -217.1145 
  37   2.0000      -7.224702      -196.5941 
  38   2.0000      -7.214947      -196.3287 
  39   2.0000      -7.214553      -196.3180 
  40   2.0000      -5.977657      -162.6603 
  41   2.0000      -5.972319      -162.5151 
  42   2.0000      -5.969405      -162.4358 
  43   2.0000      -5.941948      -161.6886 
  44   2.0000      -5.937690      -161.5728 
  45   2.0000      -5.935786      -161.5209 
  46   2.0000      -1.303642       -35.4739 
  47   2.0000      -1.224450       -33.3190 
  48   2.0000      -1.223446       -33.2917 
  49   2.0000      -1.089088       -29.6356 
  50   2.0000      -1.084482       -29.5103 
  51   2.0000      -1.039686       -28.2913 
  52   2.0000      -1.034302       -28.1448 
  53   2.0000      -1.008666       -27.4472 
  54   2.0000      -0.977290       -26.5934 
  55   2.0000      -0.974885       -26.5280 
  56   2.0000      -0.956503       -26.0278 
  57   2.0000      -0.914856       -24.8945 
  58   2.0000      -0.892172       -24.2772 
  59   2.0000      -0.841280       -22.8924 
  60   2.0000      -0.831708       -22.6319 
  61   2.0000      -0.820643       -22.3308 
  62   2.0000      -0.808477       -21.9998 
  63   2.0000      -0.786908       -21.4129 
  64   2.0000      -0.771437       -20.9919 
  65   2.0000      -0.752227       -20.4691 
  66   2.0000      -0.744935       -20.2707 
  67   2.0000      -0.735563       -20.0157 
  68   2.0000      -0.721989       -19.6463 
  69   2.0000      -0.696672       -18.9574 
  70   2.0000      -0.674017       -18.3409 
  71   2.0000      -0.659124       -17.9357 
  72   2.0000      -0.645586       -17.5673 
  73   2.0000      -0.634020       -17.2526 
  74   2.0000      -0.617179       -16.7943 
  75   2.0000      -0.608059       -16.5461 
  76   2.0000      -0.596893       -16.2423 
  77   2.0000      -0.595821       -16.2131 
  78   2.0000      -0.589108       -16.0304 
  79   2.0000      -0.583607       -15.8807 
  80   2.0000      -0.570264       -15.5177 
  81   2.0000      -0.561128       -15.2691 
  82   2.0000      -0.534138       -14.5346 
  83   2.0000      -0.527045       -14.3416 
  84   2.0000      -0.518530       -14.1099 
  85   2.0000      -0.514283       -13.9943 
  86   2.0000      -0.509160       -13.8550 
  87   2.0000      -0.494084       -13.4447 
  88   2.0000      -0.485426       -13.2091 
  89   2.0000      -0.482442       -13.1279 
  90   2.0000      -0.478874       -13.0308 
  91   2.0000      -0.469727       -12.7819 
  92   2.0000      -0.468945       -12.7606 
  93   2.0000      -0.462683       -12.5902 
  94   2.0000      -0.460865       -12.5408 
  95   2.0000      -0.458695       -12.4817 
  96   2.0000      -0.448033       -12.1916 
  97   2.0000      -0.446430       -12.1480 
  98   2.0000      -0.443765       -12.0754 
  99   2.0000      -0.440770       -11.9940 
 100   2.0000      -0.435780       -11.8582 
 101   2.0000      -0.433410       -11.7937 
 102   2.0000      -0.429923       -11.6988 
 103   2.0000      -0.428053       -11.6479 
 104   2.0000      -0.424648       -11.5553 
 105   2.0000      -0.419141       -11.4054 
 106   2.0000      -0.416777       -11.3411 
 107   2.0000      -0.414709       -11.2848 
 108   2.0000      -0.412028       -11.2119 
 109   2.0000      -0.406477       -11.0608 
 110   2.0000      -0.401876       -10.9356 
 111   2.0000      -0.399264       -10.8645 
 112   2.0000      -0.395985       -10.7753 
 113   2.0000      -0.392551       -10.6819 
 114   2.0000      -0.376026       -10.2322 
 115   2.0000      -0.372138       -10.1264 
 116   2.0000      -0.362814        -9.8727 
 117   2.0000      -0.358007        -9.7419 
 118   2.0000      -0.352570        -9.5939 
 119   2.0000      -0.345292        -9.3959 
 120   2.0000      -0.337147        -9.1742 
 121   2.0000      -0.326357        -8.8806 
 122   2.0000      -0.311655        -8.4806 
 123   2.0000      -0.310319        -8.4442 
 124   2.0000      -0.292005        -7.9459 
 125   2.0000      -0.288554        -7.8520 
 126   2.0000      -0.284462        -7.7406 
 127   2.0000      -0.281357        -7.6561 
 128   2.0000      -0.275889        -7.5073 
 129   2.0000      -0.268833        -7.3153 
 130   2.0000      -0.264842        -7.2067 
 131   2.0000      -0.257192        -6.9985 
 132   2.0000      -0.255458        -6.9514 
 133   2.0000      -0.244143        -6.6435 
 134   2.0000      -0.209741        -5.7074 
 135   0.0000      -0.053960        -1.4683 
 136   0.0000      -0.046131        -1.2553 
 137   0.0000      -0.037876        -1.0307 
 138   0.0000      -0.026199        -0.7129 
 139   0.0000      -0.016301        -0.4436 
 140   0.0000      -0.004711        -0.1282 
 141   0.0000       0.006599         0.1796 
 142   0.0000       0.021141         0.5753 
 143   0.0000       0.024273         0.6605 
 144   0.0000       0.050254         1.3675 
 145   0.0000       0.059123         1.6088 
*Only the first 10 virtual orbitals were printed.

                    ********************************
                    * MULLIKEN POPULATION ANALYSIS *
                    ********************************

-----------------------
MULLIKEN ATOMIC CHARGES
-----------------------
   0 C :   -0.318059
   1 N :   -0.480590
   2 C :    0.521828
   3 O :   -0.508055
   4 C :    0.054369
   5 C :    0.193885
   6 C :   -0.408174
   7 C :    0.574015
   8 O :   -0.450482
   9 N :   -0.627152
  10 C :    0.266134
  11 N :   -0.437309
  12 C :    0.213817
  13 C :    0.130445
  14 C :   -0.170467
  15 C :   -0.181946
  16 C :    0.363747
  17 O :   -0.535639
  18 C :    1.089480
  19 F :   -0.290801
  20 F :   -0.276541
  21 F :   -0.290886
  22 C :   -0.135304
  23 Cl:    0.008673
  24 C :   -0.181637
  25 C :   -0.405625
  26 S :    0.316405
  27 N :   -0.472471
  28 S :    0.406238
  29 C :    0.044067
  30 N :   -0.447952
  31 C :   -0.342390
  32 C :    0.688314
  33 O :   -0.494724
  34 H :    0.199207
  35 H :    0.196562
  36 H :    0.184549
  37 H :    0.203968
  38 H :    0.181112
  39 H :    0.361670
  40 H :    0.162999
  41 H :    0.159893
  42 H :    0.153686
  43 H :    0.182000
  44 H :    0.185842
  45 H :    0.221681
  46 H :    0.191617
Sum of atomic charges:   -0.0000000

--------------------------------
MULLIKEN REDUCED ORBITAL CHARGES
--------------------------------
  0 C s       :     3.271759  s :     3.271759
      pz      :     1.080948  p :     3.001244
      px      :     1.049180
      py      :     0.871116
      dz2     :     0.006436  d :     0.045056
      dxz     :     0.011681
      dyz     :     0.007735
      dx2y2   :     0.006434
      dxy     :     0.012771

  1 N s       :     3.606814  s :     3.606814
      pz      :     1.379949  p :     3.836406
      px      :     1.208438
      py      :     1.248018
      dz2     :     0.005725  d :     0.037371
      dxz     :     0.006701
      dyz     :     0.007523
      dx2y2   :     0.008790
      dxy     :     0.008632

  2 C s       :     2.957567  s :     2.957567
      pz      :     0.796370  p :     2.412521
      px      :     0.749319
      py      :     0.866831
      dz2     :     0.018610  d :     0.108085
      dxz     :     0.023662
      dyz     :     0.013033
      dx2y2   :     0.021349
      dxy     :     0.031432

  3 O s       :     3.887488  s :     3.887488
      pz      :     1.542067  p :     4.595353
      px      :     1.357772
      py      :     1.695514
      dz2     :     0.003599  d :     0.025214
      dxz     :     0.006890
      dyz     :     0.001726
      dx2y2   :     0.007193
      dxy     :     0.005808

  4 C s       :     3.115550  s :     3.115550
      pz      :     1.008952  p :     2.790991
      px      :     0.850859
      py      :     0.931180
      dz2     :     0.006445  d :     0.039091
      dxz     :     0.006700
      dyz     :     0.007158
      dx2y2   :     0.010015
      dxy     :     0.008772

  5 C s       :     3.121146  s :     3.121146
      pz      :     0.912425  p :     2.625965
      px      :     0.868667
      py      :     0.844873
      dz2     :     0.008590  d :     0.059004
      dxz     :     0.009970
      dyz     :     0.010426
      dx2y2   :     0.015323
      dxy     :     0.014694

  6 C s       :     3.272455  s :     3.272455
      pz      :     1.031234  p :     3.097540
      px      :     0.967773
      py      :     1.098533
      dz2     :     0.004450  d :     0.038179
      dxz     :     0.009586
      dyz     :     0.010028
      dx2y2   :     0.010515
      dxy     :     0.003601

  7 C s       :     3.007832  s :     3.007832
      pz      :     0.800848  p :     2.318851
      px      :     0.785684
      py      :     0.732319
      dz2     :     0.013714  d :     0.099302
      dxz     :     0.012043
      dyz     :     0.018480
      dx2y2   :     0.023719
      dxy     :     0.031347

  8 O s       :     3.899677  s :     3.899677
      pz      :     1.457789  p :     4.524842
      px      :     1.719247
      py      :     1.347806
      dz2     :     0.004743  d :     0.025964
      dxz     :     0.001545
      dyz     :     0.007785
      dx2y2   :     0.006537
      dxy     :     0.005353

  9 N s       :     3.624782  s :     3.624782
      pz      :     1.341776  p :     3.974178
      px      :     1.279716
      py      :     1.352685
      dz2     :     0.003856  d :     0.028192
      dxz     :     0.005520
      dyz     :     0.007744
      dx2y2   :     0.006015
      dxy     :     0.005057

 10 C s       :     3.042308  s :     3.042308
      pz      :     0.830907  p :     2.618742
      px      :     0.844461
      py      :     0.943373
      dz2     :     0.014321  d :     0.072817
      dxz     :     0.018686
      dyz     :     0.011587
      dx2y2   :     0.016042
      dxy     :     0.012182

 11 N s       :     3.699857  s :     3.699857
      pz      :     1.328633  p :     3.699275
      px      :     1.055248
      py      :     1.315393
      dz2     :     0.009366  d :     0.038176
      dxz     :     0.007006
      dyz     :     0.006258
      dx2y2   :     0.006521
      dxy     :     0.009024

 12 C s       :     3.061384  s :     3.061384
      pz      :     0.830472  p :     2.665602
      px      :     0.900667
      py      :     0.934463
      dz2     :     0.013929  d :     0.059197
      dxz     :     0.013992
      dyz     :     0.010674
      dx2y2   :     0.010396
      dxy     :     0.010206

 13 C s       :     3.135592  s :     3.135592
      pz      :     0.899002  p :     2.693992
      px      :     0.906960
      py      :     0.888030
      dz2     :     0.007477  d :     0.039972
      dxz     :     0.007303
      dyz     :     0.006765
      dx2y2   :     0.009095
      dxy     :     0.009332

 14 C s       :     3.209754  s :     3.209754
      pz      :     0.991014  p :     2.924795
      px      :     0.957750
      py      :     0.976031
      dz2     :     0.004433  d :     0.035919
      dxz     :     0.008659
      dyz     :     0.006578
      dx2y2   :     0.008328
      dxy     :     0.007922

 15 C s       :     3.183024  s :     3.183024
      pz      :     0.972990  p :     2.964057
      px      :     0.977703
      py      :     1.013364
      dz2     :     0.005121  d :     0.034865
      dxz     :     0.007500
      dyz     :     0.006992
      dx2y2   :     0.008023
      dxy     :     0.007229

 16 C s       :     3.071505  s :     3.071505
      pz      :     0.936764  p :     2.500058
      px      :     0.717158
      py      :     0.846136
      dz2     :     0.010603  d :     0.064690
      dxz     :     0.011997
      dyz     :     0.009738
      dx2y2   :     0.016635
      dxy     :     0.015717

 17 O s       :     3.886182  s :     3.886182
      pz      :     1.692437  p :     4.623385
      px      :     1.505241
      py      :     1.425706
      dz2     :     0.003514  d :     0.026071
      dxz     :     0.004831
      dyz     :     0.006423
      dx2y2   :     0.007183
      dxy     :     0.004120

 18 C s       :     2.714461  s :     2.714461
      pz      :     0.668623  p :     2.030941
      px      :     0.646670
      py      :     0.715648
      dz2     :     0.039084  d :     0.165118
      dxz     :     0.028804
      dyz     :     0.029808
      dx2y2   :     0.031081
      dxy     :     0.036343

 19 F s       :     3.982381  s :     3.982381
      pz      :     1.492430  p :     5.292139
      px      :     1.904626
      py      :     1.895083
      dz2     :     0.007874  d :     0.016281
      dxz     :     0.003689
      dyz     :     0.003909
      dx2y2   :     0.000390
      dxy     :     0.000418

 20 F s       :     3.979374  s :     3.979374
      pz      :     1.851298  p :     5.280915
      px      :     1.558226
      py      :     1.871390
      dz2     :     0.002177  d :     0.016253
      dxz     :     0.004580
      dyz     :     0.001072
      dx2y2   :     0.004679
      dxy     :     0.003744

 21 F s       :     3.982296  s :     3.982296
      pz      :     1.898386  p :     5.292306
      px      :     1.718481
      py      :     1.675439
      dz2     :     0.002277  d :     0.016284
      dxz     :     0.001788
      dyz     :     0.002377
      dx2y2   :     0.003545
      dxy     :     0.006297

 22 C s       :     3.184435  s :     3.184435
      pz      :     0.934458  p :     2.903435
      px      :     0.964224
      py      :     1.004752
      dz2     :     0.008241  d :     0.047434
      dxz     :     0.010461
      dyz     :     0.008263
      dx2y2   :     0.011069
      dxy     :     0.009399

 23 Cls       :     5.924051  s :     5.924051
      pz      :     3.559520  p :    11.037831
      px      :     3.623894
      py      :     3.854417
      dz2     :     0.005829  d :     0.029444
      dxz     :     0.011552
      dyz     :     0.004239
      dx2y2   :     0.003083
      dxy     :     0.004742

 24 C s       :     3.199213  s :     3.199213
      pz      :     1.001251  p :     2.947226
      px      :     0.956823
      py      :     0.989151
      dz2     :     0.005061  d :     0.035198
      dxz     :     0.006477
      dyz     :     0.007906
      dx2y2   :     0.008520
      dxy     :     0.007235

 25 C s       :     3.271155  s :     3.271155
      pz      :     1.064155  p :     3.100598
      px      :     0.950821
      py      :     1.085622
      dz2     :     0.006779  d :     0.033872
      dxz     :     0.007429
      dyz     :     0.007099
      dx2y2   :     0.007363
      dxy     :     0.005202

 26 S s       :     5.810851  s :     5.810851
      pz      :     3.111420  p :     9.763117
      px      :     3.231960
      py      :     3.419737
      dz2     :     0.023804  d :     0.109627
      dxz     :     0.017253
      dyz     :     0.029668
      dx2y2   :     0.021034
      dxy     :     0.017868

 27 N s       :     3.785100  s :     3.785100
      pz      :     1.264865  p :     3.647915
      px      :     1.023557
      py      :     1.359493
      dz2     :     0.006086  d :     0.039456
      dxz     :     0.008957
      dyz     :     0.007291
      dx2y2   :     0.008972
      dxy     :     0.008150

 28 S s       :     5.804265  s :     5.804265
      pz      :     3.271406  p :     9.660156
      px      :     3.225211
      py      :     3.163539
      dz2     :     0.021762  d :     0.129341
      dxz     :     0.026804
      dyz     :     0.025523
      dx2y2   :     0.033837
      dxy     :     0.021415

 29 C s       :     3.102124  s :     3.102124
      pz      :     0.914911  p :     2.791016
      px      :     1.023754
      py      :     0.852351
      dz2     :     0.014734  d :     0.062793
      dxz     :     0.011111
      dyz     :     0.011179
      dx2y2   :     0.013081
      dxy     :     0.012688

 30 N s       :     3.587954  s :     3.587954
      pz      :     1.364863  p :     3.819495
      px      :     1.242446
      py      :     1.212186
      dz2     :     0.007561  d :     0.040502
      dxz     :     0.007704
      dyz     :     0.006616
      dx2y2   :     0.008959
      dxy     :     0.009661

 31 C s       :     3.285762  s :     3.285762
      pz      :     1.111530  p :     3.010797
      px      :     0.824895
      py      :     1.074372
      dz2     :     0.008812  d :     0.045831
      dxz     :     0.012104
      dyz     :     0.004398
      dx2y2   :     0.014787
      dxy     :     0.005731

 32 C s       :     2.845908  s :     2.845908
      pz      :     0.799536  p :     2.343402
      px      :     0.777734
      py      :     0.766132
      dz2     :     0.022105  d :     0.122375
      dxz     :     0.023146
      dyz     :     0.020918
      dx2y2   :     0.033663
      dxy     :     0.022544

 33 O s       :     3.889606  s :     3.889606
      pz      :     1.407047  p :     4.579376
      px      :     1.625100
      py      :     1.547229
      dz2     :     0.007166  d :     0.025742
      dxz     :     0.004456
      dyz     :     0.006005
      dx2y2   :     0.003222
      dxy     :     0.004893

 34 H s       :     0.800793  s :     0.800793

 35 H s       :     0.803438  s :     0.803438

 36 H s       :     0.815451  s :     0.815451

 37 H s       :     0.796032  s :     0.796032

 38 H s       :     0.818888  s :     0.818888

 39 H s       :     0.638330  s :     0.638330

 40 H s       :     0.837001  s :     0.837001

 41 H s       :     0.840107  s :     0.840107

 42 H s       :     0.846314  s :     0.846314

 43 H s       :     0.818000  s :     0.818000

 44 H s       :     0.814158  s :     0.814158

 45 H s       :     0.778319  s :     0.778319

 46 H s       :     0.808383  s :     0.808383



                     *******************************
                     * LOEWDIN POPULATION ANALYSIS *
                     *******************************

----------------------
LOEWDIN ATOMIC CHARGES
----------------------
   0 C :   -0.259845
   1 N :   -0.026620
   2 C :    0.117027
   3 O :   -0.299921
   4 C :   -0.128468
   5 C :    0.050387
   6 C :   -0.243187
   7 C :    0.157845
   8 O :   -0.256745
   9 N :   -0.187114
  10 C :   -0.074514
  11 N :   -0.186810
  12 C :   -0.007831
  13 C :   -0.016971
  14 C :   -0.108245
  15 C :   -0.152576
  16 C :    0.078524
  17 O :   -0.152050
  18 C :    0.360995
  19 F :   -0.104236
  20 F :   -0.084950
  21 F :   -0.104091
  22 C :   -0.101378
  23 Cl:    0.050351
  24 C :   -0.123447
  25 C :   -0.350564
  26 S :    0.427207
  27 N :   -0.310374
  28 S :    0.479989
  29 C :   -0.118356
  30 N :   -0.021083
  31 C :   -0.262862
  32 C :    0.146682
  33 O :   -0.303147
  34 H :    0.154736
  35 H :    0.153535
  36 H :    0.143877
  37 H :    0.168257
  38 H :    0.151382
  39 H :    0.279991
  40 H :    0.151320
  41 H :    0.146876
  42 H :    0.147157
  43 H :    0.160646
  44 H :    0.146021
  45 H :    0.167606
  46 H :    0.144975

-------------------------------
LOEWDIN REDUCED ORBITAL CHARGES
-------------------------------
  0 C s       :     2.971687  s :     2.971687
      pz      :     1.130046  p :     3.198979
      px      :     1.106155
      py      :     0.962777
      dz2     :     0.012203  d :     0.089179
      dxz     :     0.022094
      dyz     :     0.015473
      dx2y2   :     0.014062
      dxy     :     0.025346

  1 N s       :     3.084123  s :     3.084123
      pz      :     1.360318  p :     3.844991
      px      :     1.230923
      py      :     1.253750
      dz2     :     0.013281  d :     0.097506
      dxz     :     0.018869
      dyz     :     0.018560
      dx2y2   :     0.023674
      dxy     :     0.023122

  2 C s       :     2.821708  s :     2.821708
      pz      :     0.884121  p :     2.803667
      px      :     0.956293
      py      :     0.963252
      dz2     :     0.041580  d :     0.257598
      dxz     :     0.057499
      dyz     :     0.031118
      dx2y2   :     0.051527
      dxy     :     0.075874

  3 O s       :     3.581656  s :     3.581656
      pz      :     1.549751  p :     4.668074
      px      :     1.425320
      py      :     1.693002
      dz2     :     0.006632  d :     0.050191
      dxz     :     0.014010
      dyz     :     0.002867
      dx2y2   :     0.014993
      dxy     :     0.011689

  4 C s       :     2.854684  s :     2.854684
      pz      :     1.071480  p :     3.164728
      px      :     1.037209
      py      :     1.056039
      dz2     :     0.015916  d :     0.109056
      dxz     :     0.018231
      dyz     :     0.020223
      dx2y2   :     0.028720
      dxy     :     0.025965

  5 C s       :     2.874968  s :     2.874968
      pz      :     0.968637  p :     2.936841
      px      :     0.989807
      py      :     0.978397
      dz2     :     0.019788  d :     0.137805
      dxz     :     0.021570
      dyz     :     0.024061
      dx2y2   :     0.035047
      dxy     :     0.037339

  6 C s       :     2.932610  s :     2.932610
      pz      :     1.081149  p :     3.228794
      px      :     1.026153
      py      :     1.121492
      dz2     :     0.008910  d :     0.081783
      dxz     :     0.023333
      dyz     :     0.019443
      dx2y2   :     0.022540
      dxy     :     0.007557

  7 C s       :     2.867569  s :     2.867569
      pz      :     0.890667  p :     2.745450
      px      :     0.918731
      py      :     0.936052
      dz2     :     0.031094  d :     0.229137
      dxz     :     0.026774
      dyz     :     0.042606
      dx2y2   :     0.052663
      dxy     :     0.076000

  8 O s       :     3.590440  s :     3.590440
      pz      :     1.479606  p :     4.615452
      px      :     1.711582
      py      :     1.424263
      dz2     :     0.007123  d :     0.050853
      dxz     :     0.002631
      dyz     :     0.017430
      dx2y2   :     0.014755
      dxy     :     0.008913

  9 N s       :     3.153782  s :     3.153782
      pz      :     1.332780  p :     3.964664
      px      :     1.287781
      py      :     1.344103
      dz2     :     0.010725  d :     0.068669
      dxz     :     0.014204
      dyz     :     0.015430
      dx2y2   :     0.014182
      dxy     :     0.014128

 10 C s       :     2.895726  s :     2.895726
      pz      :     0.991949  p :     3.010970
      px      :     0.983272
      py      :     1.035750
      dz2     :     0.032686  d :     0.167817
      dxz     :     0.042975
      dyz     :     0.027923
      dx2y2   :     0.034951
      dxy     :     0.029283

 11 N s       :     3.245485  s :     3.245485
      pz      :     1.354632  p :     3.857984
      px      :     1.141335
      py      :     1.362017
      dz2     :     0.019850  d :     0.083341
      dxz     :     0.016482
      dyz     :     0.010877
      dx2y2   :     0.013493
      dxy     :     0.022638

 12 C s       :     2.860223  s :     2.860223
      pz      :     0.995287  p :     3.004856
      px      :     0.999416
      py      :     1.010153
      dz2     :     0.032462  d :     0.142752
      dxz     :     0.035795
      dyz     :     0.027198
      dx2y2   :     0.023649
      dxy     :     0.023649

 13 C s       :     2.868657  s :     2.868657
      pz      :     1.014755  p :     3.047477
      px      :     1.008329
      py      :     1.024392
      dz2     :     0.017533  d :     0.100838
      dxz     :     0.018749
      dyz     :     0.018111
      dx2y2   :     0.022597
      dxy     :     0.023847

 14 C s       :     2.915919  s :     2.915919
      pz      :     1.029844  p :     3.108417
      px      :     1.048474
      py      :     1.030098
      dz2     :     0.010189  d :     0.083909
      dxz     :     0.017844
      dyz     :     0.014809
      dx2y2   :     0.020076
      dxy     :     0.020991

 15 C s       :     2.917667  s :     2.917667
      pz      :     1.034521  p :     3.152369
      px      :     1.053212
      py      :     1.064636
      dz2     :     0.011615  d :     0.082541
      dxz     :     0.019832
      dyz     :     0.013680
      dx2y2   :     0.019274
      dxy     :     0.018140

 16 C s       :     2.856659  s :     2.856659
      pz      :     1.042874  p :     2.910545
      px      :     0.885613
      py      :     0.982058
      dz2     :     0.023845  d :     0.154272
      dxz     :     0.029610
      dyz     :     0.023406
      dx2y2   :     0.039668
      dxy     :     0.037743

 17 O s       :     3.470639  s :     3.470639
      pz      :     1.684766  p :     4.624008
      px      :     1.501199
      py      :     1.438043
      dz2     :     0.006114  d :     0.057403
      dxz     :     0.009289
      dyz     :     0.014002
      dx2y2   :     0.016694
      dxy     :     0.011303

 18 C s       :     2.818667  s :     2.818667
      pz      :     0.809063  p :     2.441379
      px      :     0.800018
      py      :     0.832298
      dz2     :     0.093996  d :     0.378959
      dxz     :     0.062704
      dyz     :     0.067122
      dx2y2   :     0.069013
      dxy     :     0.086124

 19 F s       :     3.765182  s :     3.765182
      pz      :     1.520972  p :     5.307710
      px      :     1.895667
      py      :     1.891072
      dz2     :     0.017409  d :     0.031343
      dxz     :     0.005816
      dyz     :     0.006905
      dx2y2   :     0.000575
      dxy     :     0.000638

 20 F s       :     3.760329  s :     3.760329
      pz      :     1.849176  p :     5.293884
      px      :     1.577372
      py      :     1.867336
      dz2     :     0.003872  d :     0.030737
      dxz     :     0.008947
      dyz     :     0.001821
      dx2y2   :     0.009287
      dxy     :     0.006809

 21 F s       :     3.764912  s :     3.764912
      pz      :     1.893272  p :     5.307811
      px      :     1.727269
      py      :     1.687270
      dz2     :     0.004862  d :     0.031368
      dxz     :     0.002897
      dyz     :     0.003775
      dx2y2   :     0.006012
      dxy     :     0.013820

 22 C s       :     2.911822  s :     2.911822
      pz      :     0.995890  p :     3.078451
      px      :     1.024783
      py      :     1.057778
      dz2     :     0.017303  d :     0.111105
      dxz     :     0.023802
      dyz     :     0.020316
      dx2y2   :     0.026534
      dxy     :     0.023151

 23 Cls       :     5.802061  s :     5.802061
      pz      :     3.598390  p :    11.114430
      px      :     3.654908
      py      :     3.861132
      dz2     :     0.006373  d :     0.033158
      dxz     :     0.013344
      dyz     :     0.004711
      dx2y2   :     0.003307
      dxy     :     0.005423

 24 C s       :     2.915725  s :     2.915725
      pz      :     1.038354  p :     3.125035
      px      :     1.033477
      py      :     1.053204
      dz2     :     0.011490  d :     0.082687
      dxz     :     0.016831
      dyz     :     0.015454
      dx2y2   :     0.020649
      dxy     :     0.018263

 25 C s       :     2.982321  s :     2.982321
      pz      :     1.115375  p :     3.289081
      px      :     1.063468
      py      :     1.110237
      dz2     :     0.014180  d :     0.079162
      dxz     :     0.017226
      dyz     :     0.016146
      dx2y2   :     0.017989
      dxy     :     0.013621

 26 S s       :     5.529884  s :     5.529884
      pz      :     3.155523  p :     9.912492
      px      :     3.299981
      py      :     3.456987
      dz2     :     0.028332  d :     0.130417
      dxz     :     0.021095
      dyz     :     0.036719
      dx2y2   :     0.024178
      dxy     :     0.020094

 27 N s       :     3.390444  s :     3.390444
      pz      :     1.308598  p :     3.839125
      px      :     1.125207
      py      :     1.405321
      dz2     :     0.010696  d :     0.080805
      dxz     :     0.021871
      dyz     :     0.010603
      dx2y2   :     0.019237
      dxy     :     0.018397

 28 S s       :     5.546972  s :     5.546972
      pz      :     3.288738  p :     9.817095
      px      :     3.310992
      py      :     3.217365
      dz2     :     0.025158  d :     0.155944
      dxz     :     0.032994
      dyz     :     0.033274
      dx2y2   :     0.039575
      dxy     :     0.024943

 29 C s       :     2.883657  s :     2.883657
      pz      :     0.994995  p :     3.082034
      px      :     1.052729
      py      :     1.034310
      dz2     :     0.032285  d :     0.152665
      dxz     :     0.027379
      dyz     :     0.028570
      dx2y2   :     0.033189
      dxy     :     0.031242

 30 N s       :     3.060480  s :     3.060480
      pz      :     1.360643  p :     3.854857
      px      :     1.249584
      py      :     1.244629
      dz2     :     0.017676  d :     0.105747
      dxz     :     0.018446
      dyz     :     0.018887
      dx2y2   :     0.024902
      dxy     :     0.025835

 31 C s       :     2.973080  s :     2.973080
      pz      :     1.141874  p :     3.199326
      px      :     0.932381
      py      :     1.125072
      dz2     :     0.016248  d :     0.090456
      dxz     :     0.024384
      dyz     :     0.007933
      dx2y2   :     0.029975
      dxy     :     0.011916

 32 C s       :     2.803979  s :     2.803979
      pz      :     0.913986  p :     2.765305
      px      :     0.924547
      py      :     0.926772
      dz2     :     0.046822  d :     0.284035
      dxz     :     0.054774
      dyz     :     0.050319
      dx2y2   :     0.078897
      dxy     :     0.053222

 33 O s       :     3.587414  s :     3.587414
      pz      :     1.446490  p :     4.665228
      px      :     1.641126
      py      :     1.577612
      dz2     :     0.010751  d :     0.050504
      dxz     :     0.010040
      dyz     :     0.014329
      dx2y2   :     0.005671
      dxy     :     0.009712

 34 H s       :     0.845264  s :     0.845264

 35 H s       :     0.846465  s :     0.846465

 36 H s       :     0.856123  s :     0.856123

 37 H s       :     0.831743  s :     0.831743

 38 H s       :     0.848618  s :     0.848618

 39 H s       :     0.720009  s :     0.720009

 40 H s       :     0.848680  s :     0.848680

 41 H s       :     0.853124  s :     0.853124

 42 H s       :     0.852843  s :     0.852843

 43 H s       :     0.839354  s :     0.839354

 44 H s       :     0.853979  s :     0.853979

 45 H s       :     0.832394  s :     0.832394

 46 H s       :     0.855025  s :     0.855025



                      *****************************
                      * MAYER POPULATION ANALYSIS *
                      *****************************

  NA   - Mulliken gross atomic population
  ZA   - Total nuclear charge
  QA   - Mulliken gross atomic charge
  VA   - Mayer's total valence
  BVA  - Mayer's bonded valence
  FA   - Mayer's free valence

  ATOM       NA         ZA         QA         VA         BVA        FA
  0 C      6.3181     6.0000    -0.3181     3.7619     3.7619     0.0000
  1 N      7.4806     7.0000    -0.4806     3.0597     3.0597     0.0000
  2 C      5.4782     6.0000     0.5218     3.9018     3.9018     0.0000
  3 O      8.5081     8.0000    -0.5081     2.0277     2.0277    -0.0000
  4 C      5.9456     6.0000     0.0544     3.8679     3.8679     0.0000
  5 C      5.8061     6.0000     0.1939     3.9453     3.9453    -0.0000
  6 C      6.4082     6.0000    -0.4082     3.7878     3.7878    -0.0000
  7 C      5.4260     6.0000     0.5740     3.8784     3.8784     0.0000
  8 O      8.4505     8.0000    -0.4505     2.0726     2.0726     0.0000
  9 N      7.6272     7.0000    -0.6272     2.9543     2.9543    -0.0000
 10 C      5.7339     6.0000     0.2661     3.8206     3.8206     0.0000
 11 N      7.4373     7.0000    -0.4373     2.9703     2.9703    -0.0000
 12 C      5.7862     6.0000     0.2138     4.0152     4.0152     0.0000
 13 C      5.8696     6.0000     0.1304     3.9922     3.9922    -0.0000
 14 C      6.1705     6.0000    -0.1705     3.8984     3.8984    -0.0000
 15 C      6.1819     6.0000    -0.1819     3.8745     3.8745     0.0000
 16 C      5.6363     6.0000     0.3637     3.7696     3.7696     0.0000
 17 O      8.5356     8.0000    -0.5356     1.9834     1.9834     0.0000
 18 C      4.9105     6.0000     1.0895     3.9920     3.9920     0.0000
 19 F      9.2908     9.0000    -0.2908     1.0658     1.0658    -0.0000
 20 F      9.2765     9.0000    -0.2765     1.0912     1.0912     0.0000
 21 F      9.2909     9.0000    -0.2909     1.0657     1.0657     0.0000
 22 C      6.1353     6.0000    -0.1353     3.9343     3.9343    -0.0000
 23 Cl    16.9913    17.0000     0.0087     1.1210     1.1210     0.0000
 24 C      6.1816     6.0000    -0.1816     3.8975     3.8975    -0.0000
 25 C      6.4056     6.0000    -0.4056     3.7623     3.7623    -0.0000
 26 S     15.6836    16.0000     0.3164     2.5578     2.5578    -0.0000
 27 N      7.4725     7.0000    -0.4725     2.8746     2.8746    -0.0000
 28 S     15.5938    16.0000     0.4062     2.5079     2.5079    -0.0000
 29 C      5.9559     6.0000     0.0441     3.7224     3.7224     0.0000
 30 N      7.4480     7.0000    -0.4480     3.1015     3.1015     0.0000
 31 C      6.3424     6.0000    -0.3424     3.7510     3.7510     0.0000
 32 C      5.3117     6.0000     0.6883     3.9373     3.9373     0.0000
 33 O      8.4947     8.0000    -0.4947     2.0437     2.0437     0.0000
 34 H      0.8008     1.0000     0.1992     0.9333     0.9333     0.0000
 35 H      0.8034     1.0000     0.1966     0.9340     0.9340    -0.0000
 36 H      0.8155     1.0000     0.1845     0.9261     0.9261    -0.0000
 37 H      0.7960     1.0000     0.2040     0.9231     0.9231     0.0000
 38 H      0.8189     1.0000     0.1811     0.9367     0.9367    -0.0000
 39 H      0.6383     1.0000     0.3617     0.8520     0.8520    -0.0000
 40 H      0.8370     1.0000     0.1630     0.9449     0.9449    -0.0000
 41 H      0.8401     1.0000     0.1599     0.9484     0.9484     0.0000
 42 H      0.8463     1.0000     0.1537     0.9412     0.9412    -0.0000
 43 H      0.8180     1.0000     0.1820     0.9366     0.9366    -0.0000
 44 H      0.8142     1.0000     0.1858     0.9268     0.9268    -0.0000
 45 H      0.7783     1.0000     0.2217     0.9314     0.9314    -0.0000
 46 H      0.8084     1.0000     0.1916     0.9203     0.9203    -0.0000

  Mayer bond orders larger than 0.100000
B(  0-C ,  1-N ) :   0.9136 B(  0-C , 34-H ) :   0.9244 B(  0-C , 35-H ) :   0.9243 
B(  0-C , 36-H ) :   0.9389 B(  1-N ,  2-C ) :   0.9857 B(  1-N , 32-C ) :   1.0404 
B(  2-C ,  3-O ) :   1.7553 B(  2-C ,  4-C ) :   1.0928 B(  4-C ,  5-C ) :   1.2401 
B(  4-C , 29-C ) :   1.3475 B(  5-C ,  6-C ) :   1.0063 B(  5-C , 27-N ) :   1.5389 
B(  6-C ,  7-C ) :   0.9441 B(  6-C , 37-H ) :   0.9021 B(  6-C , 38-H ) :   0.9057 
B(  7-C ,  8-O ) :   1.8330 B(  7-C ,  9-N ) :   1.0318 B(  9-N , 10-C ) :   0.9536 
B(  9-N , 39-H ) :   0.8051 B( 10-C , 11-N ) :   1.4781 B( 10-C , 25-C ) :   0.1064 
B( 10-C , 26-S ) :   1.1804 B( 11-N , 12-C ) :   1.2898 B( 12-C , 13-C ) :   1.0576 
B( 12-C , 25-C ) :   1.5156 B( 13-C , 14-C ) :   1.3946 B( 13-C , 24-C ) :   1.4024 
B( 14-C , 15-C ) :   1.4172 B( 14-C , 40-H ) :   0.9097 B( 15-C , 16-C ) :   1.3811 
B( 15-C , 41-H ) :   0.9079 B( 16-C , 17-O ) :   0.8523 B( 16-C , 22-C ) :   1.3498 
B( 17-O , 18-C ) :   0.9837 B( 18-C , 19-F ) :   0.9689 B( 18-C , 20-F ) :   1.0107 
B( 18-C , 21-F ) :   0.9682 B( 22-C , 23-Cl) :   1.0408 B( 22-C , 24-C ) :   1.4103 
B( 24-C , 42-H ) :   0.9110 B( 25-C , 26-S ) :   1.1101 B( 25-C , 43-H ) :   0.9012 
B( 27-N , 28-S ) :   1.0953 B( 27-N , 29-C ) :   0.1324 B( 28-S , 29-C ) :   1.1616 
B( 29-C , 30-N ) :   0.9976 B( 30-N , 31-C ) :   0.9221 B( 30-N , 32-C ) :   1.0271 
B( 31-C , 44-H ) :   0.9234 B( 31-C , 45-H ) :   0.9178 B( 31-C , 46-H ) :   0.9319 
B( 32-C , 33-O ) :   1.8000 

-------
TIMINGS
-------

Total SCF time: 0 days 0 hours 8 min 17 sec 

Total time                  ....     497.680 sec
Sum of individual times     ....     497.126 sec  ( 99.9%)

SCF preparation             ....       0.396 sec  (  0.1%)
Fock matrix formation       ....     493.596 sec  ( 99.2%)
  Startup                   ....       0.164 sec  (  0.0% of F)
  Split-RI-J                ....      67.794 sec  ( 13.7% of F)
  Chain of spheres X        ....     382.980 sec  ( 77.6% of F)
  XC integration            ....      41.301 sec  (  8.4% of F)
    XC Preparation          ....       0.000 sec  (  0.0% of XC)
    Basis function eval.    ....      16.193 sec  ( 39.2% of XC)
    Density eval.           ....       9.441 sec  ( 22.9% of XC)
    XC-Functional eval.     ....       2.081 sec  (  5.0% of XC)
    XC-Potential eval.      ....      11.346 sec  ( 27.5% of XC)
Diagonalization             ....       0.000 sec  (  0.0%)
Density matrix formation    ....       0.573 sec  (  0.1%)
Total Energy calculation    ....       0.131 sec  (  0.0%)
Population analysis         ....       0.102 sec  (  0.0%)
Orbital Transformation      ....       0.244 sec  (  0.0%)
Orbital Orthonormalization  ....       0.000 sec  (  0.0%)
DIIS solution               ....       1.496 sec  (  0.3%)
SOSCF solution              ....       0.587 sec  (  0.1%)
Finished LeanSCF after 497.8 sec

Maximum memory used throughout the entire LEANSCF-calculation: 79.7 MB

-------------------------   --------------------
FINAL SINGLE POINT ENERGY     -2861.556726959559
-------------------------   --------------------


------------------------------------------------------------------------------
                              ORCA PROPERTY CALCULATIONS
------------------------------------------------------------------------------

GBWName                                 ... /home/nmrbox/aojoawo/Documents/ERDOS/inputs/CHEMBL3892326.gbw
Number of atoms                         ...     47
Number of basis functions               ...    514
Max core memory                         ...   1024 MB

Electric properties:
Dipole moment                           ... YES
Quadrupole moment                       ...  NO
Static polarizability (Dipole/Dipole)   ...  NO
Static polarizability (Dipole/Quad.)    ...  NO
Static polarizability (Quad./Quad.)     ...  NO
Static polarizability (Velocity)        ...  NO

Atomic electric properties:
Dipole moment                           ...  NO
Quadrupole moment                       ...  NO
Static polarizability                   ...  NO

Choice of electric origin               ... Center of mass
Position of electric origin             ...     1.558331     0.219355    -0.241078

General magnetic properties:
Magnetizability                         ...  NO

EPR properties:
g-Tensor (aka g-matrix)                 ...  NO
Zero-Field splitting spin-orbit         ...  NO
Zero-field splitting spin-spin          ...  NO
Hyperfine couplings                     ...  NO (   0 nuclei)
Quadrupole couplings                    ...  NO (   0 nuclei)
Contact density                         ...  NO (   0 nuclei)

NMR properties:
Chemical shifts                         ...  NO (   0 nuclei)
Spin-rotation constants                 ...  NO (   0 nuclei)
Spin-spin couplings                     ...  NO (   0 nuclei,    0 pairs)

Choice of magnetic origin               ... GIAO
Position of magnetic origin             ...     0.000000     0.000000     0.000000

Properties with geometric perturbations:
SCF Hessian                             ...  NO
IR spectrum                             ...  NO
VCD spectrum                            ...  NO
X-ray spectroscopy properties:
SCF XES/XAS/RIXS spectra                ...  NO


-------------
DIPOLE MOMENT
-------------

Method             : SCF
Type of density    : Electron Density
Multiplicity       :   1
Irrep              :   0
Energy             : -2861.5567269595594553 Eh
Relativity type    : 
Basis              : AO
                                X                 Y                 Z
Electronic contribution:     56.266145140      -7.082765723      -6.614480158
Nuclear contribution   :    -58.836518939       6.655178559       7.093992192
                        -----------------------------------------
Total Dipole Moment    :     -2.570373799      -0.427587165       0.479512034
                        -----------------------------------------
Magnitude (a.u.)       :      2.649449762
Magnitude (Debye)      :      6.734366106



--------------------
Rotational spectrum 
--------------------
 
Rotational constants in cm-1:             0.007400             0.001035             0.000988 
Rotational constants in MHz :           221.831505            31.025736            29.628802 

Dipole components along the rotational axes: 
x,y,z [a.u.] :     2.456088    -0.944454     0.308577 
x,y,z [Debye]:     6.242881    -2.400612     0.784340 

 

Dipole moment calculation done in   0.1 sec 

Maximum memory used throughout the entire PROP-calculation: 39.5 MB

--------------------------------
SUGGESTED CITATIONS FOR THIS RUN
--------------------------------

Below you find a list of papers that are relevant to this ORCA run
We neither can nor want to force you to cite these papers, but we appreciate if you do
You receive ORCA, which is the product of decades of hard work by many enthusiastic individuals, for free
The only thing we kindly ask in return is that you cite our papers,
We deeply appreciate it, if you show your appreciation for ORCA by not just citing the generic ORCA reference.

Please note that relegating all ORCA citations to the supporting information does *not* help us.
SI sections are not indexed - citations you put there will not count into any citation statistics
But we need these citations in order to attract the funding resources that allow us to do what we are doing

Therefore, if you are a happy ORCA user, please consider citing a few of the papers listed below in the main body of your paper

In addition to the list printed below, the program has created the file /home/nmrbox/aojoawo/Documents/ERDOS/inputs/CHEMBL3892326.bibtex that contains the list in bibtex format
You can import this file easily into all common literature databanks and citation aid programs


List of essential papers. We consider these as the minimum necessary citations

  1. Neese,F.
     Software update: the ORCA program system, version 5.0
     WIRES Comput. Molec. Sci., 2022 12(1)e1606
     doi.org/10.1002/wcms.1606

List of papers to cite with high priority. The work reported in these papers was absolutely
necessary for this run to complete.
Our perspective: the developers of density functionals and basis sets usually get cited in chemistry papers
Good! But without the algorithms to do something with them, the functionals or basis sets would not do anything.
Hence, in our opinion, the algorithm design and method developments papers are equally worthy of getting cited

  1. Neese,F.
     An improvement of the resolution of the identity approximation for the formation of the Coulomb matrix
     J. Comp. Chem., 2003 24(14)1740-1747
     doi.org/10.1002/jcc.10318
  2. Neese,F.; Wennmohs,F.; Hansen,A.; Becker,U.
     Efficient, approximate and parallel Hartree-Fock and hybrid DFT calculations. A 'chain-of-spheres' algorithm for the Hartree-Fock exchange
     Chem. Phys., 2009 356(1-3)98-109
     doi.org/10.1016/j.chemphys.2008.10.036
  3. Helmich-Paris,B.; de Souza,B.; Neese,F.; Izsák,R.
     An improved chain of spheres for exchange algorithm
     J. Chem. Phys., 2021 155 104109
     doi.org/doi: 10.1063/5.0058766.
  4. Neese,F.
     The SHARK Integral Generation and Digestion System
     J. Comp. Chem., 2022  1-16
     doi.org/10.1002/jcc.26942

List of suggested additional citations. These are papers that are important in the 'surrounding' of 
of this run, or papers that preceded the highly important papers. If you like your results we are grateful for a citation.

  1. Izsak,R.; Neese,F.
     An overlap fitted chain of spheres exchange method
     J. Chem. Phys., 2011 135 144105
     doi.org/10.1063/1.3646921
  2. Izsak,R.; Hansen,A.; Neese,F.
     The resolution of identity and chain of spheres approximations for the LPNO-CCSD singles Fock term
     Molec. Phys., 2012 110 2413-2417
     doi.org/10.1080/00268976.2012.687466
  3. Neese,F.
     The ORCA program system
     WIRES Comput. Molec. Sci., 2012 2(1)73-78
     doi.org/10.1002/wcms.81
  4. Izsak,R.; Neese,F.; Klopper,W.
     Robust fitting techniques in the chain of spheres approximation to the Fock exchange: The role of the complementary space
     J. Chem. Phys., 2013 139 
     doi.org/10.1063/1.4819264
  5. Neese,F.
     Software update: the ORCA program system, version 4.0
     WIRES Comput. Molec. Sci., 2018 8(1)1-6
     doi.org/10.1002/wcms.1327
  6. Neese,F.; Wennmohs,F.; Becker,U.; Riplinger,C.
     The ORCA quantum chemistry program package
     J. Chem. Phys., 2020 152 Art. No. L224108
     doi.org/10.1063/5.0004608

List of optional additional citations

  1. Neese,F.
     Approximate second-order SCF convergence for spin unrestricted wavefunctions
     Chem. Phys. Lett., 2000 325(1-3)93-98
     doi.org/10.1016/s0009-2614(00)00662-x

Timings for individual modules:

Sum of individual times          ...      518.139 sec (=   8.636 min)
Startup calculation              ...       12.777 sec (=   0.213 min)   2.5 %
SCF iterations                   ...      505.059 sec (=   8.418 min)  97.5 %
Property calculations            ...        0.303 sec (=   0.005 min)   0.1 %
                             ****ORCA TERMINATED NORMALLY****
TOTAL RUN TIME: 0 days 0 hours 8 minutes 39 seconds 161 msec
