
                                 *****************
                                 * O   R   C   A *
                                 *****************

                                            #,                                       
                                            ###                                      
                                            ####                                     
                                            #####                                    
                                            ######                                   
                                           ########,                                 
                                     ,,################,,,,,                         
                               ,,#################################,,                 
                          ,,##########################################,,             
                       ,#########################################, ''#####,          
                    ,#############################################,,   '####,        
                  ,##################################################,,,,####,       
                ,###########''''           ''''###############################       
              ,#####''   ,,,,##########,,,,          '''####'''          '####       
            ,##' ,,,,###########################,,,                        '##       
           ' ,,###''''                  '''############,,,                           
         ,,##''                                '''############,,,,        ,,,,,,###''
      ,#''                                            '''#######################'''  
     '                                                          ''''####''''         
             ,#######,   #######,   ,#######,      ##                                
            ,#'     '#,  ##    ##  ,#'     '#,    #''#        ,####,   ,####,        
            ##       ##  ##   ,#'  ##            #'  '#       #'       #'  '#        
            ##       ##  #######   ##           ,######,      #####,   #    #        
            '#,     ,#'  ##    ##  '#,     ,#' ,#      #,     #,   #   #,  ,#        
             '#######'   ##     ##  '#######'  #'      '#     '####' # '####'        



                #########################################################
                #                        -***-                          #
                #          Department of theory and spectroscopy        #
                #                                                       #
                #                      Frank Neese                      #
                #                                                       #
                #     Directorship, Architecture, Infrastructure        #
                #                    SHARK, DRIVERS                     #
                #        Core code/Algorithms in most modules           #
                #                                                       #
                #        Max Planck Institute fuer Kohlenforschung      #
                #                Kaiser Wilhelm Platz 1                 #
                #                 D-45470 Muelheim/Ruhr                 #
                #                      Germany                          #
                #                                                       #
                #                  All rights reserved                  #
                #                        -***-                          #
                #########################################################


                         Program Version 6.0.0  -   RELEASE  -


 With contributions from (in alphabetic order):
   Daniel Aravena         : Magnetic Suceptibility
   Michael Atanasov       : Ab Initio Ligand Field Theory (pilot matlab implementation)
   Alexander A. Auer      : GIAO ZORA, VPT2 properties, NMR spectrum
   Ute Becker             : All parallelization in ORCA, NUMFREQ, NUMCALC
   Giovanni Bistoni       : ED, misc. LED, open-shell LED, HFLD
   Martin Brehm           : Molecular dynamics
   Dmytro Bykov           : pre 5.0 version of the SCF Hessian
   Marcos Casanova-Páez   : Triplet and SCS-CIS(D). UHF-(DLPNO)-IP/EA/STEOM-CCSD. UHF-CVS-IP/STEOM-CCSD
   Vijay G. Chilkuri      : MRCI spin determinant printing, contributions to CSF-ICE
   Pauline Colinet        : FMM embedding
   Dipayan Datta          : RHF DLPNO-CCSD density
   Achintya Kumar Dutta   : EOM-CC, STEOM-CC
   Nicolas Foglia         : Exact transition moments, OPA infrastructure, MCD improvements
   Dmitry Ganyushin       : Spin-Orbit,Spin-Spin,Magnetic field MRCI
   Miquel Garcia          : C-PCM and meta-GGA Hessian, CCSD/C-PCM, Gaussian charge scheme
   Tiago L. C. Gouveia    : GS-ROHF, GS-ROCIS
   Yang Guo               : DLPNO-NEVPT2, F12-NEVPT2, CIM, IAO-localization
   Andreas Hansen         : Spin unrestricted coupled pair/coupled cluster methods
   Ingolf Harden          : AUTO-CI MPn and infrastructure 
   Benjamin Helmich-Paris : MC-RPA, TRAH-(SCF,CASSCF), AVAS, COSX integrals, SCF dyn. polar.
   Lee Huntington         : MR-EOM, pCC
   Robert Izsak           : Overlap fitted RIJCOSX, COSX-SCS-MP3, EOM
   Riya Kayal             : Wick's Theorem for AUTO-CI, AUTO-CI UHF-CCSDT
   Emily Kempfer          : AUTO-CI, RHF CISDT and CCSDT
   Christian Kollmar      : KDIIS, OOCD, Brueckner-CCSD(T), CCSD density, CASPT2, CASPT2-K, improved NEVPT2
   Axel Koslowski         : Symmetry handling
   Simone Kossmann        : Meta GGA functionals, TD-DFT gradient, OOMP2, (MP2 Hessian; deprecated post 5.0)
   Lucas Lang             : DCDCAS
   Marvin Lechner         : AUTO-CI (C++ implementation), FIC-MRCC
   Spencer Leger          : CASSCF response
   Dagmar Lenk            : GEPOL surface, SMD, ORCA-2-JSON
   Dimitrios Liakos       : Extrapolation schemes; Compound Job, initial MDCI parallelization
   Dimitrios Manganas     : Further ROCIS development; embedding schemes. LFT, Crystal Embedding
   Dimitrios Pantazis     : SARC Basis sets
   Anastasios Papadopoulos: AUTO-CI, single reference methods and gradients
   Taras Petrenko         : pre 6.0 DFT Hessian and TD-DFT gradient, (ASA, deprecated), ECA, 1-Electron XAS/XES, NRVS
   Peter Pinski           : DLPNO-MP2, DLPNO-MP2 Gradient
   Christoph Reimann      : Effective Core Potentials
   Marius Retegan         : Local ZFS, SOC
   Christoph Riplinger    : Optimizer, TS searches, QM/MM, DLPNO-CCSD(T), (RO)-DLPNO pert. Triples
   Michael Roemelt        : Original ROCIS implementation
   Masaaki Saitow         : Open-shell DLPNO-CCSD energy and density
   Barbara Sandhoefer     : DKH picture change effects
   Kantharuban Sivalingam : CASSCF convergence/infrastructure, NEVPT2 and variants, FIC-MRCI
   Bernardo de Souza      : ESD, SOC TD-DFT
   Georgi Stoychev        : AutoAux, RI-MP2 NMR, DLPNO-MP2 response, X2C
   Van Anh Tran           : RI-MP2 g-tensors
   Willem Van den Heuvel  : Paramagnetic NMR
   Zikuan Wang            : NOTCH, Electric field optimization 
   Frank Wennmohs         : Technical directorship and infrastructure
   Hang Xu                : AUTO-CI-Response properties 


 We gratefully acknowledge several colleagues who have allowed us to
 interface, adapt or use parts of their codes:
   Stefan Grimme, W. Hujo, H. Kruse, P. Pracht,  : VdW corrections, initial TS optimization,
                  C. Bannwarth, S. Ehlert,         DFT functionals, gCP, sTDA/sTD-DF
                  L. Wittmann, M. Mueller
   Ed Valeev, F. Pavosevic, A. Kumar             : LibInt (2-el integral package), F12 methods
   Garnet Chan, S. Sharma, J. Yang, R. Olivares  : DMRG
   Ulf Ekstrom                                   : XCFun DFT Library
   Mihaly Kallay                                 : mrcc  (arbitrary order and MRCC methods)
   Frank Weinhold                                : gennbo (NPA and NBO analysis)
   Simon Mueller                                 : openCOSMO-RS
   Christopher J. Cramer and Donald G. Truhlar   : smd solvation model
   Lars Goerigk                                  : TD-DFT with DH, B97 family of functionals
   V. Asgeirsson, H. Jonsson                     : NEB implementation
   FAccTs GmbH                                   : IRC, NEB, NEB-TS, DLPNO-Multilevel, CI-OPT
                                                   MM, QMMM, 2- and 3-layer-ONIOM, Crystal-QMMM,
                                                   LR-CPCM, SF, NACMEs, symmetry and pop. for TD-DFT,
                                                   nearIR, NL-DFT gradient (VV10), updates on ESD,
                                                   ML-optimized integration grids, MBIS, APM,
                                                   GOAT, DOCKER, SOLVATOR, interface openCOSMO-RS
   S Lehtola, MJT Oliveira, MAL Marques          : LibXC Library
   Liviu Ungur et al                             : ANISO software


 Your calculation uses the libint2 library for the computation of 2-el integrals
 For citations please refer to: http://libint.valeyev.net

 Your ORCA version has been built with support for libXC version: 6.2.2
 For citations please refer to: https://libxc.gitlab.io

 This ORCA versions uses:
   CBLAS   interface :  Fast vector & matrix operations
   LAPACKE interface :  Fast linear algebra routines
   SCALAPACK package :  Parallel linear algebra routines
   Shared memory     :  Shared parallel matrices
   BLAS/LAPACK       :  OpenBLAS 0.3.27  USE64BITINT DYNAMIC_ARCH NO_AFFINITY SkylakeX SINGLE_THREADED
        Core in use  :  SkylakeX
   Copyright (c) 2011-2014, The OpenBLAS Project


Warning: RI is on but no J-basis has been assigned. Assigning Def2/J (nothing to worry about!)
================================================================================

----- Orbital basis set information -----
Your calculation utilizes the basis: 6-31G*
   H-He, Li-Ne : W. J. Hehre, R. Ditchfield and J.A. Pople, J. Chem. Phys. 56, 2257 (1972).
                 Note: He and Ne are unpublished basis sets taken from the Gaussian program.
                 Note: Li and B from J. D. Dill and J. A. Pople, J. Chem. Phys. 62, 2921 (1975).
   Na - Ar     : M. M. Francl, W. J. Pietro, W. J. Hehre, J. S. Binkley, M. S. Gordon, 
                 D. J. DeFrees and J. A. Pople, J. Chem. Phys. 77, 3654 (1982).
   K - Zn      : V. A. Rassolov, J. A. Pople, M. A. Ratner, and T. L. Windus, J. Chem. Phys. 109, 1223 (1998).

----- AuxJ basis set information -----
Your calculation utilizes the auxiliary basis: def2/J
   F. Weigend, Phys. Chem. Chem. Phys. 8, 1057 (2006).

================================================================================
                                        WARNINGS
                       Please study these warnings very carefully!
================================================================================


================================================================================
                                       INPUT FILE
================================================================================
NAME = /home/nmrbox/aojoawo/Documents/ERDOS/inputs/CHEMBL3682601.inp
|  1> ! B3LYP 6-31G* SP
|  2> 
|  3> * xyz 0 1
|  4> C 8.6906 0.6528 2.8130
|  5> O 8.3845 1.3353 1.6231
|  6> N 7.0612 1.1351 1.3941
|  7> C 6.6076 0.1097 0.4979
|  8> O 7.3826 -0.8508 0.2268
|  9> C 5.2309 0.1245 -0.0696
| 10> C 4.4658 1.3031 -0.1031
| 11> C 3.1888 1.3112 -0.6736
| 12> C 2.6475 0.1353 -1.2121
| 13> S 1.0699 0.1701 -1.9955
| 14> O 0.9326 1.4492 -2.7756
| 15> O 0.9696 -0.9780 -2.9585
| 16> N -0.1986 0.0652 -0.8003
| 17> C -0.4625 1.2275 0.0564
| 18> C -1.8231 1.8304 -0.2104
| 19> C -2.2252 2.1429 -1.5208
| 20> C -3.4162 2.8316 -1.7510
| 21> C -4.2233 3.2356 -0.6783
| 22> O -5.3391 4.0373 -0.9438
| 23> C -6.6546 3.7926 -0.4480
| 24> F -6.6844 3.8024 0.9340
| 25> F -7.1165 2.5730 -0.9151
| 26> F -7.4932 4.7922 -0.9135
| 27> C -3.8473 2.8894 0.6322
| 28> C -2.6507 2.2060 0.8632
| 29> C -1.1213 -1.0398 -0.8354
| 30> N -1.8127 -1.2696 -1.9838
| 31> C -2.7682 -2.2242 -2.0844
| 32> C -3.1127 -2.9931 -0.9711
| 33> C -4.1412 -3.9463 -1.0613
| 34> C -4.5130 -4.6865 0.0643
| 35> C -3.8425 -4.5075 1.2715
| 36> C -2.8132 -3.5638 1.3752
| 37> C -2.4233 -2.7974 0.2531
| 38> C -1.3648 -1.8478 0.3054
| 39> C -0.4889 -1.7211 1.5318
| 40> C 3.3935 -1.0491 -1.1673
| 41> C 4.6755 -1.0547 -0.6105
| 42> H 9.7211 0.9155 3.1247
| 43> H 8.0011 0.9292 3.6462
| 44> H 8.6638 -0.4471 2.6403
| 45> H 6.3732 1.7857 1.8467
| 46> H 4.8628 2.2396 0.2641
| 47> H 2.6335 2.2398 -0.7177
| 48> H 0.2965 2.0172 -0.1181
| 49> H -0.3659 0.9370 1.1208
| 50> H -1.6097 1.8726 -2.3678
| 51> H -3.6967 3.1014 -2.7602
| 52> H -4.4297 3.2238 1.4841
| 53> H -2.3456 2.0061 1.8863
| 54> H -3.2728 -2.3627 -3.0337
| 55> H -4.6797 -4.0963 -1.9871
| 56> H -5.3124 -5.4125 -0.0125
| 57> H -4.1314 -5.0878 2.1406
| 58> H -2.3449 -3.4327 2.3411
| 59> H -1.0155 -1.1492 2.3218
| 60> H -0.2323 -2.7260 1.9286
| 61> H 0.4863 -1.2371 1.3024
| 62> H 2.9945 -1.9645 -1.5874
| 63> H 5.2394 -1.9749 -0.6221
| 64> *
| 65> 
| 66>                          ****END OF INPUT****
================================================================================

                       ****************************
                       * Single Point Calculation *
                       ****************************

---------------------------------
CARTESIAN COORDINATES (ANGSTROEM)
---------------------------------
  C      8.690600    0.652800    2.813000
  O      8.384500    1.335300    1.623100
  N      7.061200    1.135100    1.394100
  C      6.607600    0.109700    0.497900
  O      7.382600   -0.850800    0.226800
  C      5.230900    0.124500   -0.069600
  C      4.465800    1.303100   -0.103100
  C      3.188800    1.311200   -0.673600
  C      2.647500    0.135300   -1.212100
  S      1.069900    0.170100   -1.995500
  O      0.932600    1.449200   -2.775600
  O      0.969600   -0.978000   -2.958500
  N     -0.198600    0.065200   -0.800300
  C     -0.462500    1.227500    0.056400
  C     -1.823100    1.830400   -0.210400
  C     -2.225200    2.142900   -1.520800
  C     -3.416200    2.831600   -1.751000
  C     -4.223300    3.235600   -0.678300
  O     -5.339100    4.037300   -0.943800
  C     -6.654600    3.792600   -0.448000
  F     -6.684400    3.802400    0.934000
  F     -7.116500    2.573000   -0.915100
  F     -7.493200    4.792200   -0.913500
  C     -3.847300    2.889400    0.632200
  C     -2.650700    2.206000    0.863200
  C     -1.121300   -1.039800   -0.835400
  N     -1.812700   -1.269600   -1.983800
  C     -2.768200   -2.224200   -2.084400
  C     -3.112700   -2.993100   -0.971100
  C     -4.141200   -3.946300   -1.061300
  C     -4.513000   -4.686500    0.064300
  C     -3.842500   -4.507500    1.271500
  C     -2.813200   -3.563800    1.375200
  C     -2.423300   -2.797400    0.253100
  C     -1.364800   -1.847800    0.305400
  C     -0.488900   -1.721100    1.531800
  C      3.393500   -1.049100   -1.167300
  C      4.675500   -1.054700   -0.610500
  H      9.721100    0.915500    3.124700
  H      8.001100    0.929200    3.646200
  H      8.663800   -0.447100    2.640300
  H      6.373200    1.785700    1.846700
  H      4.862800    2.239600    0.264100
  H      2.633500    2.239800   -0.717700
  H      0.296500    2.017200   -0.118100
  H     -0.365900    0.937000    1.120800
  H     -1.609700    1.872600   -2.367800
  H     -3.696700    3.101400   -2.760200
  H     -4.429700    3.223800    1.484100
  H     -2.345600    2.006100    1.886300
  H     -3.272800   -2.362700   -3.033700
  H     -4.679700   -4.096300   -1.987100
  H     -5.312400   -5.412500   -0.012500
  H     -4.131400   -5.087800    2.140600
  H     -2.344900   -3.432700    2.341100
  H     -1.015500   -1.149200    2.321800
  H     -0.232300   -2.726000    1.928600
  H      0.486300   -1.237100    1.302400
  H      2.994500   -1.964500   -1.587400
  H      5.239400   -1.974900   -0.622100

----------------------------
CARTESIAN COORDINATES (A.U.)
----------------------------
  NO LB      ZA    FRAG     MASS         X           Y           Z
   0 C     6.0000    0    12.011   16.422854    1.233613    5.315800
   1 O     8.0000    0    15.999   15.844409    2.523351    3.067214
   2 N     7.0000    0    14.007   13.343734    2.145028    2.634467
   3 C     6.0000    0    12.011   12.486554    0.207303    0.940895
   4 O     8.0000    0    15.999   13.951092   -1.607779    0.428590
   5 C     6.0000    0    12.011    9.884968    0.235271   -0.131525
   6 C     6.0000    0    12.011    8.439139    2.462502   -0.194831
   7 C     6.0000    0    12.011    6.025959    2.477809   -1.272920
   8 C     6.0000    0    12.011    5.003050    0.255680   -2.290537
   9 S    16.0000    0    32.060    2.021818    0.321442   -3.770949
  10 O     8.0000    0    15.999    1.762359    2.738591   -5.245124
  11 O     8.0000    0    15.999    1.832278   -1.848152   -5.590755
  12 N     7.0000    0    14.007   -0.375300    0.123210   -1.512348
  13 C     6.0000    0    12.011   -0.873998    2.319639    0.106581
  14 C     6.0000    0    12.011   -3.445160    3.458955   -0.397598
  15 C     6.0000    0    12.011   -4.205019    4.049494   -2.873896
  16 C     6.0000    0    12.011   -6.455682    5.350949   -3.308910
  17 C     6.0000    0    12.011   -7.980880    6.114398   -1.281801
  18 O     8.0000    0    15.999  -10.089437    7.629391   -1.783524
  19 C     6.0000    0    12.011  -12.575372    7.166975   -0.846597
  20 F     9.0000    0    18.998  -12.631685    7.185495    1.765004
  21 F     9.0000    0    18.998  -13.448236    4.862265   -1.729288
  22 F     9.0000    0    18.998  -14.160096    9.055946   -1.726265
  23 C     6.0000    0    12.011   -7.270343    5.460175    1.194685
  24 C     6.0000    0    12.011   -5.009097    4.168736    1.631212
  25 C     6.0000    0    12.011   -2.118950   -1.964937   -1.578677
  26 N     7.0000    0    14.007   -3.425507   -2.399196   -3.748839
  27 C     6.0000    0    12.011   -5.231140   -4.203129   -3.938945
  28 C     6.0000    0    12.011   -5.882151   -5.656139   -1.835113
  29 C     6.0000    0    12.011   -7.825734   -7.457426   -2.005566
  30 C     6.0000    0    12.011   -8.528334   -8.856202    0.121509
  31 C     6.0000    0    12.011   -7.261273   -8.517941    2.402787
  32 C     6.0000    0    12.011   -5.316178   -6.734606    2.598751
  33 C     6.0000    0    12.011   -4.579373   -5.286320    0.478290
  34 C     6.0000    0    12.011   -2.579098   -3.491836    0.577122
  35 C     6.0000    0    12.011   -0.923887   -3.252408    2.894682
  36 C     6.0000    0    12.011    6.412786   -1.982512   -2.205877
  37 C     6.0000    0    12.011    8.835415   -1.993094   -1.153678
  38 H     1.0000    0     1.008   18.370217    1.730044    5.904827
  39 H     1.0000    0     1.008   15.119888    1.755934    6.890319
  40 H     1.0000    0     1.008   16.372209   -0.844897    4.989444
  41 H     1.0000    0     1.008   12.043603    3.374484    3.489757
  42 H     1.0000    0     1.008    9.189360    4.232231    0.499077
  43 H     1.0000    0     1.008    4.976594    4.232609   -1.356256
  44 H     1.0000    0     1.008    0.560304    3.811956   -0.223177
  45 H     1.0000    0     1.008   -0.691451    1.770673    2.118005
  46 H     1.0000    0     1.008   -3.041892    3.538701   -4.474494
  47 H     1.0000    0     1.008   -6.985751    5.860797   -5.216022
  48 H     1.0000    0     1.008   -8.370920    6.092099    2.804543
  49 H     1.0000    0     1.008   -4.432542    3.790980    3.564590
  50 H     1.0000    0     1.008   -6.184696   -4.464856   -5.732862
  51 H     1.0000    0     1.008   -8.843351   -7.740885   -3.755075
  52 H     1.0000    0     1.008  -10.038981  -10.228143   -0.023622
  53 H     1.0000    0     1.008   -7.807215   -9.614549    4.045148
  54 H     1.0000    0     1.008   -4.431219   -6.486863    4.424038
  55 H     1.0000    0     1.008   -1.919017   -2.171673    4.387566
  56 H     1.0000    0     1.008   -0.438983   -5.151393    3.644526
  57 H     1.0000    0     1.008    0.918974   -2.337780    2.461179
  58 H     1.0000    0     1.008    5.658785   -3.712367   -2.999751
  59 H     1.0000    0     1.008    9.901031   -3.732020   -1.175599

--------------------------------
INTERNAL COORDINATES (ANGSTROEM)
--------------------------------
 C      0   0   0     0.000000000000     0.00000000     0.00000000
 O      1   0   0     1.405476954631     0.00000000     0.00000000
 N      2   1   0     1.357808502698   106.46577100     0.00000000
 C      3   2   1     1.435399790999   121.23884893   262.74676526
 O      4   3   2     1.263598219372   118.89112753    20.74928459
 C      4   3   2     1.489153511227   121.53244916   198.13244211
 C      6   4   3     1.405559753266   121.37580406    19.86436429
 C      7   6   4     1.398665385287   120.76818081   178.16235670
 C      8   7   6     1.402044489308   120.28495505     0.55018621
 S      9   8   7     1.761745827297   119.99655677   182.83469956
 O     10   9   8     1.504494636082   109.21314473    38.14258432
 O     10   9   8     1.501853088687   109.25850050   156.24364100
 N     10   9   8     1.746023854362   110.18136052   277.38711411
 C     13  10   9     1.467828120047   118.85336130    72.34115460
 C     14  13  10     1.511920305439   111.99732230   113.84417862
 C     15  14  13     1.405876530852   120.69755006   309.56198050
 C     16  15  14     1.394912445281   120.51537201   187.06932537
 C     17  16  15     1.401895752187   120.50180264     0.70147949
 O     18  17  16     1.399365134624   118.61885166   173.75141218
 C     19  18  17     1.426967406776   124.81382146   131.09600462
 F     20  19  18     1.382355988883   111.47026973    60.39978289
 F     20  19  18     1.385264660633   109.95055523   298.59301981
 F     20  19  18     1.385330419070   108.51609713   179.86061196
 C     18  17  16     1.406641635243   119.21320865   357.34002520
 C     24  18  17     1.397228728591   120.22039964     3.00377066
 C     13  10   9     1.440011215234   119.66535575   240.73347603
 N     26  13  10     1.360023735087   118.42350491   304.61522902
 C     27  26  13     1.354386122935   122.71506846   184.70299087
 C     28  27  26     1.396182061910   120.19888789     2.13915567
 C     29  28  27     1.405182739006   120.19810089   177.43045309
 C     30  29  28     1.397535917249   120.15270291   181.96626988
 C     31  30  29     1.392459367450   120.13712607   358.32622390
 C     32  31  30     1.400279211443   120.31737710     1.49908729
 C     33  32  31     1.413682913528   120.61818161   358.84711560
 C     26  13  10     1.419007008439   121.82313921   127.37915467
 C     35  26  13     1.512385751057   120.32047891   349.57396196
 C      9   8   7     1.400473634168   119.43011210     0.34601880
 C     37   9   8     1.397705834573   120.31225954   358.95395470
 H      1   2   3     1.108196025079   108.99799298   188.67697137
 H      1   2   3     1.116256892476   112.15825020   307.97472957
 H      1   2   3     1.113698136840   110.06336090    71.05444588
 H      3   2   1     1.049509942783   118.34308360    86.20471304
 H      7   6   4     1.081423640393   121.21362131     1.28685266
 H      8   7   6     1.082866963205   119.32583762   182.10119855
 H     14  13  10     1.109124582723   110.42242901   353.81473077
 H     14  13  10     1.107550978511   109.72683157   237.13792490
 H     16  15  14     1.081347002585   120.77890905     5.83997287
 H     17  16  15     1.081645473341   119.90376438   177.57604232
 H     24  18  17     1.084779576688   120.81482254   177.40609350
 H     25  24  18     1.086176610870   119.09782981   175.95583028
 H     28  27  26     1.083962130335   118.91553837   180.73798189
 H     30  29  28     1.081474867947   120.89654069   359.84476011
 H     31  30  29     1.082596231288   119.63651507   179.46232624
 H     32  31  30     1.084226041930   119.85663172   180.31003597
 H     33  32  31     1.081413385343   117.78562080   177.78684403
 H     36  35  26     1.108366893226   110.24556551   103.28037623
 H     36  35  26     1.110458378329   110.35138948   223.47253687
 H     36  35  26     1.112607477954   112.14024263   340.59126388
 H     37   9   8     1.083347668110   120.39872726   180.60292392
 H     38  37   9     1.079298758454   118.57781834   182.14421320

---------------------------
INTERNAL COORDINATES (A.U.)
---------------------------
 C      0   0   0     0.000000000000     0.00000000     0.00000000
 O      1   0   0     2.655966531791     0.00000000     0.00000000
 N      2   1   0     2.565886212410   106.46577100     0.00000000
 C      3   2   1     2.712512497676   121.23884893   262.74676526
 O      4   3   2     2.387854577924   118.89112753    20.74928459
 C      4   3   2     2.814092307586   121.53244916   198.13244211
 C      6   4   3     2.656122998534   121.37580406    19.86436429
 C      7   6   4     2.643094531188   120.76818081   178.16235670
 C      8   7   6     2.649480112366   120.28495505     0.55018621
 S      9   8   7     3.329217131171   119.99655677   182.83469956
 O     10   9   8     2.843082832149   109.21314473    38.14258432
 O     10   9   8     2.838091031003   109.25850050   156.24364100
 N     10   9   8     3.299506908037   110.18136052   277.38711411
 C     13  10   9     2.773793158557   118.85336130    72.34115460
 C     14  13  10     2.857115313595   111.99732230   113.84417862
 C     15  14  13     2.656721621417   120.69755006   309.56198050
 C     16  15  14     2.636002502380   120.51537201   187.06932537
 C     17  16  15     2.649199039941   120.50180264     0.70147949
 O     18  17  16     2.644416865796   118.61885166   173.75141218
 C     19  18  17     2.696577600838   124.81382146   131.09600462
 F     20  19  18     2.612274238574   111.47026973    60.39978289
 F     20  19  18     2.617770831597   109.95055523   298.59301981
 F     20  19  18     2.617895097032   108.51609713   179.86061196
 C     18  17  16     2.658167459181   119.21320865   357.34002520
 C     24  18  17     2.640379643484   120.22039964     3.00377066
 C     13  10   9     2.721226826568   119.66535575   240.73347603
 N     26  13  10     2.570072394947   118.42350491   304.61522902
 C     27  26  13     2.559418851931   122.71506846   184.70299087
 C     28  27  26     2.638401730104   120.19888789     2.13915567
 C     29  28  27     2.655410544834   120.19810089   177.43045309
 C     30  29  28     2.640960145918   120.15270291   181.96626988
 C     31  30  29     2.631366857094   120.13712607   358.32622390
 C     32  31  30     2.646144220651   120.31737710     1.49908729
 C     33  32  31     2.671473546771   120.61818161   358.84711560
 C     26  13  10     2.681534628065   121.82313921   127.37915467
 C     35  26  13     2.857994878342   120.32047891   349.57396196
 C      9   8   7     2.646511626355   119.43011210     0.34601880
 C     37   9   8     2.641281243127   120.31225954   358.95395470
 H      1   2   3     2.094186990099   108.99799298   188.67697137
 H      1   2   3     2.109419821881   112.15825020   307.97472957
 H      1   2   3     2.104584474485   110.06336090    71.05444588
 H      3   2   1     1.983286366687   118.34308360    86.20471304
 H      7   6   4     2.043594515090   121.21362131     1.28685266
 H      8   7   6     2.046321999928   119.32583762   182.10119855
 H     14  13  10     2.095941709746   110.42242901   353.81473077
 H     14  13  10     2.092968028742   109.72683157   237.13792490
 H     16  15  14     2.043449690623   120.77890905     5.83997287
 H     17  16  15     2.044013718611   119.90376438   177.57604232
 H     24  18  17     2.049936315612   120.81482254   177.40609350
 H     25  24  18     2.052576327614   119.09782981   175.95583028
 H     28  27  26     2.048391565875   118.91553837   180.73798189
 H     30  29  28     2.043691321138   120.89654069   359.84476011
 H     31  30  29     2.045810390750   119.63651507   179.46232624
 H     32  31  30     2.048890286514   119.85663172   180.31003597
 H     33  32  31     2.043575135856   117.78562080   177.78684403
 H     36  35  26     2.094509884103   110.24556551   103.28037623
 H     36  35  26     2.098462218159   110.35138948   223.47253687
 H     36  35  26     2.102523427887   112.14024263   340.59126388
 H     37   9   8     2.047230400551   120.39872726   180.60292392
 H     38  37   9     2.039579070159   118.57781834   182.14421320

---------------------
BASIS SET INFORMATION
---------------------
There are 6 groups of distinct atoms

 Group   1 Type C   : 10s4p1d contracted to 3s2p1d pattern {631/31/1}
 Group   2 Type O   : 10s4p1d contracted to 3s2p1d pattern {631/31/1}
 Group   3 Type N   : 10s4p1d contracted to 3s2p1d pattern {631/31/1}
 Group   4 Type S   : 16s10p1d contracted to 4s3p1d pattern {6631/631/1}
 Group   5 Type F   : 10s4p1d contracted to 3s2p1d pattern {631/31/1}
 Group   6 Type H   : 4s contracted to 2s pattern {31}

Atom   0C    basis set group =>   1
Atom   1O    basis set group =>   2
Atom   2N    basis set group =>   3
Atom   3C    basis set group =>   1
Atom   4O    basis set group =>   2
Atom   5C    basis set group =>   1
Atom   6C    basis set group =>   1
Atom   7C    basis set group =>   1
Atom   8C    basis set group =>   1
Atom   9S    basis set group =>   4
Atom  10O    basis set group =>   2
Atom  11O    basis set group =>   2
Atom  12N    basis set group =>   3
Atom  13C    basis set group =>   1
Atom  14C    basis set group =>   1
Atom  15C    basis set group =>   1
Atom  16C    basis set group =>   1
Atom  17C    basis set group =>   1
Atom  18O    basis set group =>   2
Atom  19C    basis set group =>   1
Atom  20F    basis set group =>   5
Atom  21F    basis set group =>   5
Atom  22F    basis set group =>   5
Atom  23C    basis set group =>   1
Atom  24C    basis set group =>   1
Atom  25C    basis set group =>   1
Atom  26N    basis set group =>   3
Atom  27C    basis set group =>   1
Atom  28C    basis set group =>   1
Atom  29C    basis set group =>   1
Atom  30C    basis set group =>   1
Atom  31C    basis set group =>   1
Atom  32C    basis set group =>   1
Atom  33C    basis set group =>   1
Atom  34C    basis set group =>   1
Atom  35C    basis set group =>   1
Atom  36C    basis set group =>   1
Atom  37C    basis set group =>   1
Atom  38H    basis set group =>   6
Atom  39H    basis set group =>   6
Atom  40H    basis set group =>   6
Atom  41H    basis set group =>   6
Atom  42H    basis set group =>   6
Atom  43H    basis set group =>   6
Atom  44H    basis set group =>   6
Atom  45H    basis set group =>   6
Atom  46H    basis set group =>   6
Atom  47H    basis set group =>   6
Atom  48H    basis set group =>   6
Atom  49H    basis set group =>   6
Atom  50H    basis set group =>   6
Atom  51H    basis set group =>   6
Atom  52H    basis set group =>   6
Atom  53H    basis set group =>   6
Atom  54H    basis set group =>   6
Atom  55H    basis set group =>   6
Atom  56H    basis set group =>   6
Atom  57H    basis set group =>   6
Atom  58H    basis set group =>   6
Atom  59H    basis set group =>   6
---------------------------------
AUXILIARY/J BASIS SET INFORMATION
---------------------------------
There are 6 groups of distinct atoms

 Group   1 Type C   : 12s5p4d2f1g contracted to 6s4p3d1f1g pattern {711111/2111/211/2/1}
 Group   2 Type O   : 12s5p4d2f1g contracted to 6s4p3d1f1g pattern {711111/2111/211/2/1}
 Group   3 Type N   : 12s5p4d2f1g contracted to 6s4p3d1f1g pattern {711111/2111/211/2/1}
 Group   4 Type S   : 14s5p5d2f1g contracted to 8s4p3d1f1g pattern {71111111/2111/311/2/1}
 Group   5 Type F   : 12s5p4d2f1g contracted to 6s4p3d1f1g pattern {711111/2111/211/2/1}
 Group   6 Type H   : 5s2p1d contracted to 3s1p1d pattern {311/2/1}

Atom   0C    basis set group =>   1
Atom   1O    basis set group =>   2
Atom   2N    basis set group =>   3
Atom   3C    basis set group =>   1
Atom   4O    basis set group =>   2
Atom   5C    basis set group =>   1
Atom   6C    basis set group =>   1
Atom   7C    basis set group =>   1
Atom   8C    basis set group =>   1
Atom   9S    basis set group =>   4
Atom  10O    basis set group =>   2
Atom  11O    basis set group =>   2
Atom  12N    basis set group =>   3
Atom  13C    basis set group =>   1
Atom  14C    basis set group =>   1
Atom  15C    basis set group =>   1
Atom  16C    basis set group =>   1
Atom  17C    basis set group =>   1
Atom  18O    basis set group =>   2
Atom  19C    basis set group =>   1
Atom  20F    basis set group =>   5
Atom  21F    basis set group =>   5
Atom  22F    basis set group =>   5
Atom  23C    basis set group =>   1
Atom  24C    basis set group =>   1
Atom  25C    basis set group =>   1
Atom  26N    basis set group =>   3
Atom  27C    basis set group =>   1
Atom  28C    basis set group =>   1
Atom  29C    basis set group =>   1
Atom  30C    basis set group =>   1
Atom  31C    basis set group =>   1
Atom  32C    basis set group =>   1
Atom  33C    basis set group =>   1
Atom  34C    basis set group =>   1
Atom  35C    basis set group =>   1
Atom  36C    basis set group =>   1
Atom  37C    basis set group =>   1
Atom  38H    basis set group =>   6
Atom  39H    basis set group =>   6
Atom  40H    basis set group =>   6
Atom  41H    basis set group =>   6
Atom  42H    basis set group =>   6
Atom  43H    basis set group =>   6
Atom  44H    basis set group =>   6
Atom  45H    basis set group =>   6
Atom  46H    basis set group =>   6
Atom  47H    basis set group =>   6
Atom  48H    basis set group =>   6
Atom  49H    basis set group =>   6
Atom  50H    basis set group =>   6
Atom  51H    basis set group =>   6
Atom  52H    basis set group =>   6
Atom  53H    basis set group =>   6
Atom  54H    basis set group =>   6
Atom  55H    basis set group =>   6
Atom  56H    basis set group =>   6
Atom  57H    basis set group =>   6
Atom  58H    basis set group =>   6
Atom  59H    basis set group =>   6
------------------------------------------------------------------------------
                             ORCA STARTUP CALCULATIONS
                           -- RI-GTO INTEGRALS CHOSEN --
------------------------------------------------------------------------------
------------------------------------------------------------------------------
                   ___                                                        
                  /   \      - P O W E R E D   B Y -                         
                 /     \                                                     
                 |  |  |   _    _      __       _____    __    __             
                 |  |  |  | |  | |    /  \     |  _  \  |  |  /  |          
                  \  \/   | |  | |   /    \    | | | |  |  | /  /          
                 / \  \   | |__| |  /  /\  \   | |_| |  |  |/  /          
                |  |  |   |  __  | /  /__\  \  |    /   |      \           
                |  |  |   | |  | | |   __   |  |    \   |  |\   \          
                \     /   | |  | | |  |  |  |  | |\  \  |  | \   \       
                 \___/    |_|  |_| |__|  |__|  |_| \__\ |__|  \__/        
                                                                              
                      - O R C A' S   B I G   F R I E N D -                    
                                      &                                       
                       - I N T E G R A L  F E E D E R -                       
                                                                              
 v1 FN, 2020, v2 2021, v3 2022-2024                                           
------------------------------------------------------------------------------


----------------------
SHARK INTEGRAL PACKAGE
----------------------

Number of atoms                             ...     60
Number of basis functions                   ...    580
Number of shells                            ...    274
Maximum angular momentum                    ...      2
Integral batch strategy                     ... SHARK/LIBINT Hybrid
RI-J (if used) integral strategy            ... SPLIT-RIJ (Revised 2003 algorithm where possible)
Printlevel                                  ...      1
Contraction scheme used                     ... SEGMENTED contraction
Prescreening option                         ... SCHWARTZ
   Thresh                                   ... 1.000e-10
   Tcut                                     ... 1.000e-11
   Tpresel                                  ... 1.000e-11 
Coulomb Range Separation                    ... NOT USED
Exchange Range Separation                   ... NOT USED
Multipole approximations                    ... NOT USED
Finite Nucleus Model                        ... NOT USED
CABS basis                                  ... NOT available
Auxiliary Coulomb fitting basis             ... AVAILABLE
   # of basis functions in Aux-J            ...   2106
   # of shells in Aux-J                     ...    682
   Maximum angular momentum in Aux-J        ...      4
Auxiliary J/K fitting basis                 ... NOT available
Auxiliary Correlation fitting basis         ... NOT available
Auxiliary 'external' fitting basis          ... NOT available

Checking pre-screening integrals            ... done (  0.0 sec) Dimension = 274
Check shell pair data                       ... done (  0.0 sec)
Shell pair information
Shell pair cut-off parameter TPreSel        ...   1.0e-11
Total number of shell pairs                 ...     37675
Shell pairs after pre-screening             ...     18051
Total number of primitive shell pairs       ...    225679
Primitive shell pairs kept                  ...     55313
          la=0 lb=0:   5738 shell pairs
          la=1 lb=0:   6407 shell pairs
          la=1 lb=1:   1803 shell pairs
          la=2 lb=0:   2409 shell pairs
          la=2 lb=1:   1431 shell pairs
          la=2 lb=2:    263 shell pairs

Calculating one electron integrals          ... done (  0.3 sec)
Calculating RI/J V-Matrix + Cholesky decomp.... done (  0.6 sec)
Calculating Nuclear repulsion               ... done (  0.0 sec) ENN=   4270.593678016883 Eh

Diagonalization of the overlap matrix:
Smallest eigenvalue                        ... 3.596e-04
Time for diagonalization                   ...    0.060 sec
Threshold for overlap eigenvalues          ... 1.000e-07
Number of eigenvalues below threshold      ... 0
Time for construction of square roots      ...    0.044 sec
Total time needed                          ...    0.116 sec

-------------------
DFT GRID GENERATION
-------------------

General Integration Accuracy     IntAcc      ... 4.388
Radial Grid Type                 RadialGrid  ... OptM3 with GC (2021)
Angular Grid (max. ang.)         AngularGrid ... 4 (Lebedev-302)
Angular grid pruning method      GridPruning ... 4 (adaptive)
Weight generation scheme         WeightScheme... mBecke (2022)
Basis function cutoff            BFCut       ... 1.0000e-10
Integration weight cutoff        WCut        ... 1.0000e-14
Partially contracted basis set               ... off
Rotationally invariant grid construction     ... off
Angular grids for H and He will be reduced by one unit

Total number of grid points                  ...   298657
Total number of batches                      ...     4698
Average number of points per batch           ...       63
Average number of grid points per atom       ...     4978

--------------------
COSX GRID GENERATION
--------------------

GRIDX 1
-------
General Integration Accuracy     IntAcc      ... 3.816
Radial Grid Type                 RadialGrid  ... OptM3 with GC (2021)
Angular Grid (max. ang.)         AngularGrid ... 1 (Lebedev-50)
Angular grid pruning method      GridPruning ... 4 (adaptive)
Weight generation scheme         WeightScheme... mBecke (2022)
Basis function cutoff            BFCut       ... 1.0000e-10
Integration weight cutoff        WCut        ... 1.0000e-14
Partially contracted basis set               ... on
Rotationally invariant grid construction     ... off
Angular grids for H and He will be reduced by one unit

Total number of grid points                  ...    38812
Total number of batches                      ...      337
Average number of points per batch           ...      115
Average number of grid points per atom       ...      647
UseSFitting                                  ... on

GRIDX 2
-------
General Integration Accuracy     IntAcc      ... 4.020
Radial Grid Type                 RadialGrid  ... OptM3 with GC (2021)
Angular Grid (max. ang.)         AngularGrid ... 2 (Lebedev-110)
Angular grid pruning method      GridPruning ... 4 (adaptive)
Weight generation scheme         WeightScheme... mBecke (2022)
Basis function cutoff            BFCut       ... 1.0000e-10
Integration weight cutoff        WCut        ... 1.0000e-14
Partially contracted basis set               ... on
Rotationally invariant grid construction     ... off
Angular grids for H and He will be reduced by one unit

Total number of grid points                  ...    82955
Total number of batches                      ...      679
Average number of points per batch           ...      122
Average number of grid points per atom       ...     1383
UseSFitting                                  ... on

GRIDX 3
-------
General Integration Accuracy     IntAcc      ... 4.338
Radial Grid Type                 RadialGrid  ... OptM3 with GC (2021)
Angular Grid (max. ang.)         AngularGrid ... 3 (Lebedev-194)
Angular grid pruning method      GridPruning ... 4 (adaptive)
Weight generation scheme         WeightScheme... mBecke (2022)
Basis function cutoff            BFCut       ... 1.0000e-10
Integration weight cutoff        WCut        ... 1.0000e-14
Partially contracted basis set               ... on
Rotationally invariant grid construction     ... off
Angular grids for H and He will be reduced by one unit

Total number of grid points                  ...   182034
Total number of batches                      ...     1456
Average number of points per batch           ...      125
Average number of grid points per atom       ...     3034
UseSFitting                                  ... on
Initializing property integral containers    ... done (  0.0 sec)

SHARK setup successfully completed in  14.4 seconds

Maximum memory used throughout the entire STARTUP-calculation: 128.1 MB
-------------------------------------------------------------------------------
                                 ORCA GUESS
                   Start orbitals & Density for SCF / CASSCF
-------------------------------------------------------------------------------

------------
SCF SETTINGS
------------
Hamiltonian:
 Density Functional     Method          .... DFT(GTOs)
 Exchange Functional    Exchange        .... B88
   X-Alpha parameter    XAlpha          ....  0.666667
   Becke's b parameter  XBeta           ....  0.004200
 Correlation Functional Correlation     .... LYP
 LDA part of GGA corr.  LDAOpt          .... VWN-5
 Gradients option       PostSCFGGA      .... off
 Hybrid DFT is turned on
   Fraction HF Exchange ScalHFX         ....  0.200000
   Scaling of DF-GGA-X  ScalDFX         ....  0.720000
   Scaling of DF-GGA-C  ScalDFC         ....  0.810000
   Scaling of DF-LDA-C  ScalLDAC        ....  1.000000
   Perturbative correction              ....  0.000000
   NL short-range parameter             ....  4.800000
 RI-approximation to the Coulomb term is turned on
   Number of AuxJ basis functions       .... 2106
   RIJ-COSX (HFX calculated with COS-X)).... on


General Settings:
 Integral files         IntName         .... /home/nmrbox/aojoawo/Documents/ERDOS/inputs/CHEMBL3682601
 Hartree-Fock type      HFTyp           .... RHF
 Total Charge           Charge          ....    0
 Multiplicity           Mult            ....    1
 Number of Electrons    NEL             ....  282
 Basis Dimension        Dim             ....  580
 Nuclear Repulsion      ENuc            ....   4270.5936780169 Eh

Convergence Acceleration:
 AO-DIIS                CNVDIIS         .... on
   Start iteration      DIISMaxIt       ....    12
   Startup error        DIISStart       ....  0.200000
   # of expansion vecs  DIISMaxEq       ....     5
   Bias factor          DIISBfac        ....   1.050
   Max. coefficient     DIISMaxC        ....  10.000
 MO-DIIS                CNVKDIIS        .... off
 Trust-Rad. Augm. Hess. CNVTRAH         .... auto
   Auto Start mean grad. ratio tolernc. ....  1.125000
   Auto Start start iteration           ....    50
   Auto Start num. interpolation iter.  ....    10
   Max. Number of Micro iterations      ....    24
   Max. Number of Macro iterations      .... Maxiter - #DIIS iter
   Number of Davidson start vectors     ....     2
   Converg. threshold    (grad. norm)   ....   5.000e-05
   Grad. Scal. Fac. for Micro threshold ....   0.100
   Minimum threshold for Micro iter.    ....   1.000e-02
   NR start threshold (gradient norm)   ....   1.000e-04
   Initial trust radius                 ....   0.400
   Minimum AH scaling param. (alpha)    ....   1.000
   Maximum AH scaling param. (alpha)    .... 1000.000
   Quad. conv. algorithm                .... NR
   White noise on init. David. guess    .... on
   Maximum white noise                  ....   0.010
   Pseudo random numbers                .... off
   Inactive MOs                         .... canonical
   Orbital update algorithm             .... Taylor
   Preconditioner                       .... Diag
   Full preconditioner red. dimension   ....   250
 SOSCF                  CNVSOSCF        .... on
   Start iteration      SOSCFMaxIt      ....   150
   Startup grad/error   SOSCFStart      ....  0.003300
   Hessian update       SOSCFHessUp     .... L-BFGS
 Level Shifting         CNVShift        .... on
   Level shift para.    LevelShift      ....    0.2500
   Turn off err/grad.   ShiftErr        ....    0.0010
 Zerner damping         CNVZerner       .... off
 Static damping         CNVDamp         .... on
   Fraction old density DampFac         ....    0.7000
   Max. Damping (<1)    DampMax         ....    0.9800
   Min. Damping (>=0)   DampMin         ....    0.0000
   Turn off err/grad.   DampErr         ....    0.1000

SCF Procedure:
 Maximum # iterations   MaxIter         ....   125
 SCF integral mode      SCFMode         .... Direct
   Integral package                     .... SHARK and LIBINT hybrid scheme
 Reset frequency        DirectResetFreq ....    20
 Integral Threshold     Thresh          ....  1.000e-10 Eh
 Primitive CutOff       TCut            ....  1.000e-11 Eh

Convergence Tolerance:
 Convergence Check Mode ConvCheckMode   .... Total+1el-Energy
 Convergence forced     ConvForced      .... 0
 Energy Change          TolE            ....  1.000e-06 Eh
 1-El. energy change                    ....  1.000e-03 Eh
 Orbital Gradient       TolG            ....  5.000e-05
 Orbital Rotation angle TolX            ....  5.000e-05
 DIIS Error             TolErr          ....  1.000e-06

------------------------------
INITIAL GUESS: MODEL POTENTIAL
------------------------------
Loading Hartree-Fock densities                     ... done
Calculating cut-offs                               ... done
Initializing the effective Hamiltonian             ... done
Setting up the integral package (SHARK)            ... done
Starting the Coulomb interaction                   ... done (   3.8 sec)
Making the grid                                    ... done (   1.9 sec)
Mapping shells                                     ... done
Starting the XC term evaluation                    ... done (   1.2 sec)
  promolecular density results
     # of electrons  =    281.989696175
     EX              =   -256.087857373
     EC              =     -9.928481721
     EX+EC           =   -266.016339094
Transforming the Hamiltonian                       ... done (   0.0 sec)
Diagonalizing the Hamiltonian                      ... done (   0.1 sec)
Back transforming the eigenvectors                 ... done (   0.0 sec)
Now organizing SCF variables                       ... done
                      ------------------
                      INITIAL GUESS DONE (   7.0 sec)
                      ------------------
             **** ENERGY FILE WAS UPDATED (/home/nmrbox/aojoawo/Documents/ERDOS/inputs/CHEMBL3682601.en.tmp) ****
Finished Guess after   7.4 sec
Maximum memory used throughout the entire GUESS-calculation: 69.8 MB

-------------------------------------------------------------------------------------------
                                      ORCA LEAN-SCF
                              memory conserving SCF solver
-------------------------------------------------------------------------------------------

----------------------------------------D-I-I-S--------------------------------------------
Iteration    Energy (Eh)           Delta-E    RMSDP     MaxDP     DIISErr   Damp  Time(sec)
-------------------------------------------------------------------------------------------
               ***  Starting incremental Fock matrix formation  ***
    1    -2239.7843173876863148     0.00e+00  2.38e-03  1.89e-01  3.00e-01  0.700  74.7
    2    -2240.2939899708835583    -5.10e-01  1.40e-03  7.86e-02  9.85e-02  0.700  33.5
                               ***Turning on AO-DIIS***
    3    -2240.4650269207822930    -1.71e-01  5.46e-04  1.65e-02  3.50e-02  0.700  31.5
    4    -2240.5805449302015404    -1.16e-01  9.49e-04  3.49e-02  1.62e-02  0.000  28.4
    5    -2240.8409236716033774    -2.60e-01  2.17e-04  8.18e-03  7.00e-03  0.000  30.0
                              *** Initializing SOSCF ***
---------------------------------------S-O-S-C-F--------------------------------------
Iteration    Energy (Eh)           Delta-E    RMSDP     MaxDP     MaxGrad    Time(sec)
--------------------------------------------------------------------------------------
    6    -2240.8427032583485925    -1.78e-03  7.19e-05  3.30e-03  2.62e-03    25.7
               *** Restarting incremental Fock matrix formation ***
    7    -2240.8427791409503698    -7.59e-05  6.61e-05  3.77e-03  4.94e-04    73.5
    8    -2240.8427063213184738     7.28e-05  4.27e-05  2.53e-03  1.01e-03    41.8
    9    -2240.8428115020215046    -1.05e-04  1.45e-05  9.21e-04  1.50e-04    37.7
   10    -2240.8428079498726220     3.55e-06  8.98e-06  6.49e-04  2.64e-04    31.0
   11    -2240.8428132239723709    -5.27e-06  3.05e-06  1.69e-04  4.95e-05    27.8
   12    -2240.8428131659984501     5.80e-08  1.90e-06  1.08e-04  8.17e-05    22.8
                 **** Energy Check signals convergence ****

               *****************************************************
               *                     SUCCESS                       *
               *           SCF CONVERGED AFTER  12 CYCLES          *
               *****************************************************

Recomputing exchange energy using gridx3       ... done (  127.635 sec)
Old exchange energy                            :    -51.733452354 Eh
New exchange energy                            :    -51.733503780 Eh
Exchange energy change after final integration :     -0.000051426 Eh
Total energy after final integration           :  -2240.842864592 Eh
             **** ENERGY FILE WAS UPDATED (/home/nmrbox/aojoawo/Documents/ERDOS/inputs/CHEMBL3682601.en.tmp) ****

----------------
TOTAL SCF ENERGY
----------------

Total Energy       :      -2240.84286459157602 Eh          -60976.43433 eV

Components:
Nuclear Repulsion  :       4270.59367801688313 Eh          116208.76192 eV
Electronic Energy  :      -6511.43649118288158 Eh         -177185.19485 eV
One Electron Energy:     -11568.93136932271773 Eh         -314806.62702 eV
Two Electron Energy:       5057.49487813983615 Eh          137621.43217 eV

Virial components:
Potential Energy   :      -4468.92005915390746 Eh         -121605.49711 eV
Kinetic Energy     :       2228.07719456233144 Eh           60629.06279 eV
Virial Ratio       :          2.00572945590054

DFT components:
N(Alpha)           :      141.000197521894 electrons
N(Beta)            :      141.000197521894 electrons
N(Total)           :      282.000395043787 electrons
E(X)               :     -205.695695678010 Eh       
E(C)               :      -11.658634077458 Eh       
E(XC)              :     -217.354329755467 Eh       

---------------
SCF CONVERGENCE
---------------

  Last Energy change         ...   -5.7974e-08  Tolerance :   1.0000e-06
  Last MAX-Density change    ...    1.0814e-04  Tolerance :   1.0000e-05
  Last RMS-Density change    ...    1.8973e-06  Tolerance :   1.0000e-06
  Last DIIS Error            ...    2.6187e-03  Tolerance :   1.0000e-06
  Last Orbital Gradient      ...    8.1657e-05  Tolerance :   5.0000e-05
  Last Orbital Rotation      ...    1.0822e-04  Tolerance :   5.0000e-05


----------------
ORBITAL ENERGIES
----------------

  NO   OCC          E(Eh)            E(eV) 
   0   2.0000     -89.098491     -2424.4932 
   1   2.0000     -24.737428      -673.1396 
   2   2.0000     -24.733995      -673.0462 
   3   2.0000     -24.730420      -672.9489 
   4   2.0000     -19.208005      -522.6764 
   5   2.0000     -19.204602      -522.5838 
   6   2.0000     -19.126598      -520.4612 
   7   2.0000     -19.124570      -520.4060 
   8   2.0000     -19.123715      -520.3827 
   9   2.0000     -14.413830      -392.2202 
  10   2.0000     -14.377718      -391.2376 
  11   2.0000     -14.327388      -389.8680 
  12   2.0000     -10.497715      -285.6573 
  13   2.0000     -10.307756      -280.4883 
  14   2.0000     -10.263280      -279.2781 
  15   2.0000     -10.259641      -279.1790 
  16   2.0000     -10.244958      -278.7795 
  17   2.0000     -10.241347      -278.6812 
  18   2.0000     -10.233480      -278.4671 
  19   2.0000     -10.232360      -278.4367 
  20   2.0000     -10.226088      -278.2660 
  21   2.0000     -10.223333      -278.1910 
  22   2.0000     -10.222549      -278.1697 
  23   2.0000     -10.221736      -278.1476 
  24   2.0000     -10.216845      -278.0145 
  25   2.0000     -10.212209      -277.8883 
  26   2.0000     -10.208327      -277.7827 
  27   2.0000     -10.199462      -277.5415 
  28   2.0000     -10.199054      -277.5304 
  29   2.0000     -10.198518      -277.5158 
  30   2.0000     -10.197663      -277.4925 
  31   2.0000     -10.197522      -277.4887 
  32   2.0000     -10.195529      -277.4344 
  33   2.0000     -10.195309      -277.4285 
  34   2.0000     -10.194301      -277.4010 
  35   2.0000     -10.192763      -277.3592 
  36   2.0000     -10.189821      -277.2791 
  37   2.0000     -10.185731      -277.1678 
  38   2.0000      -8.134239      -221.3439 
  39   2.0000      -6.099285      -165.9700 
  40   2.0000      -6.097232      -165.9141 
  41   2.0000      -6.096894      -165.9049 
  42   2.0000      -1.297737       -35.3132 
  43   2.0000      -1.220715       -33.2174 
  44   2.0000      -1.215923       -33.0869 
  45   2.0000      -1.125545       -30.6276 
  46   2.0000      -1.083631       -29.4871 
  47   2.0000      -1.076482       -29.2926 
  48   2.0000      -1.013984       -27.5919 
  49   2.0000      -0.963200       -26.2100 
  50   2.0000      -0.960564       -26.1383 
  51   2.0000      -0.914299       -24.8793 
  52   2.0000      -0.892679       -24.2910 
  53   2.0000      -0.864605       -23.5271 
  54   2.0000      -0.859116       -23.3777 
  55   2.0000      -0.857973       -23.3466 
  56   2.0000      -0.810096       -22.0438 
  57   2.0000      -0.802716       -21.8430 
  58   2.0000      -0.783847       -21.3296 
  59   2.0000      -0.779404       -21.2087 
  60   2.0000      -0.772320       -21.0159 
  61   2.0000      -0.752909       -20.4877 
  62   2.0000      -0.745004       -20.2726 
  63   2.0000      -0.726828       -19.7780 
  64   2.0000      -0.714582       -19.4448 
  65   2.0000      -0.700023       -19.0486 
  66   2.0000      -0.687727       -18.7140 
  67   2.0000      -0.671733       -18.2788 
  68   2.0000      -0.645409       -17.5625 
  69   2.0000      -0.643495       -17.5104 
  70   2.0000      -0.639774       -17.4091 
  71   2.0000      -0.627440       -17.0735 
  72   2.0000      -0.617706       -16.8086 
  73   2.0000      -0.607368       -16.5273 
  74   2.0000      -0.597798       -16.2669 
  75   2.0000      -0.593909       -16.1611 
  76   2.0000      -0.589898       -16.0519 
  77   2.0000      -0.586804       -15.9678 
  78   2.0000      -0.569616       -15.5000 
  79   2.0000      -0.567937       -15.4543 
  80   2.0000      -0.554810       -15.0972 
  81   2.0000      -0.532759       -14.4971 
  82   2.0000      -0.529796       -14.4165 
  83   2.0000      -0.520710       -14.1692 
  84   2.0000      -0.503849       -13.7104 
  85   2.0000      -0.495681       -13.4882 
  86   2.0000      -0.492765       -13.4088 
  87   2.0000      -0.488264       -13.2863 
  88   2.0000      -0.485327       -13.2064 
  89   2.0000      -0.481218       -13.0946 
  90   2.0000      -0.472703       -12.8629 
  91   2.0000      -0.471660       -12.8345 
  92   2.0000      -0.465869       -12.6769 
  93   2.0000      -0.459180       -12.4949 
  94   2.0000      -0.455837       -12.4040 
  95   2.0000      -0.453912       -12.3516 
  96   2.0000      -0.450986       -12.2719 
  97   2.0000      -0.449783       -12.2392 
  98   2.0000      -0.447250       -12.1703 
  99   2.0000      -0.441688       -12.0189 
 100   2.0000      -0.441298       -12.0083 
 101   2.0000      -0.438328       -11.9275 
 102   2.0000      -0.433499       -11.7961 
 103   2.0000      -0.431040       -11.7292 
 104   2.0000      -0.427523       -11.6335 
 105   2.0000      -0.426211       -11.5978 
 106   2.0000      -0.422598       -11.4995 
 107   2.0000      -0.416628       -11.3370 
 108   2.0000      -0.412633       -11.2283 
 109   2.0000      -0.409941       -11.1551 
 110   2.0000      -0.408042       -11.1034 
 111   2.0000      -0.404781       -11.0146 
 112   2.0000      -0.402185       -10.9440 
 113   2.0000      -0.399570       -10.8728 
 114   2.0000      -0.389670       -10.6034 
 115   2.0000      -0.379944       -10.3388 
 116   2.0000      -0.377077       -10.2608 
 117   2.0000      -0.376867       -10.2551 
 118   2.0000      -0.373620       -10.1667 
 119   2.0000      -0.369669       -10.0592 
 120   2.0000      -0.366737        -9.9794 
 121   2.0000      -0.353997        -9.6328 
 122   2.0000      -0.353855        -9.6289 
 123   2.0000      -0.349398        -9.5076 
 124   2.0000      -0.328909        -8.9501 
 125   2.0000      -0.326776        -8.8920 
 126   2.0000      -0.310643        -8.4530 
 127   2.0000      -0.302417        -8.2292 
 128   2.0000      -0.298751        -8.1294 
 129   2.0000      -0.292059        -7.9473 
 130   2.0000      -0.288018        -7.8374 
 131   2.0000      -0.283007        -7.7010 
 132   2.0000      -0.275346        -7.4925 
 133   2.0000      -0.267023        -7.2661 
 134   2.0000      -0.264836        -7.2066 
 135   2.0000      -0.256767        -6.9870 
 136   2.0000      -0.255426        -6.9505 
 137   2.0000      -0.252337        -6.8664 
 138   2.0000      -0.245898        -6.6912 
 139   2.0000      -0.237463        -6.4617 
 140   2.0000      -0.221356        -6.0234 
 141   0.0000      -0.080594        -2.1931 
 142   0.0000      -0.060464        -1.6453 
 143   0.0000      -0.036260        -0.9867 
 144   0.0000      -0.030609        -0.8329 
 145   0.0000      -0.012869        -0.3502 
 146   0.0000      -0.008074        -0.2197 
 147   0.0000       0.011882         0.3233 
 148   0.0000       0.020749         0.5646 
 149   0.0000       0.032332         0.8798 
 150   0.0000       0.045294         1.2325 
 151   0.0000       0.054604         1.4859 
*Only the first 10 virtual orbitals were printed.

                    ********************************
                    * MULLIKEN POPULATION ANALYSIS *
                    ********************************

-----------------------
MULLIKEN ATOMIC CHARGES
-----------------------
   0 C :   -0.184716
   1 O :   -0.311687
   2 N :   -0.389560
   3 C :    0.511504
   4 O :   -0.464034
   5 C :    0.081832
   6 C :   -0.165976
   7 C :   -0.147956
   8 C :   -0.121570
   9 S :    1.205721
  10 O :   -0.547424
  11 O :   -0.525615
  12 N :   -0.619337
  13 C :   -0.230301
  14 C :    0.146268
  15 C :   -0.160140
  16 C :   -0.164081
  17 C :    0.328567
  18 O :   -0.537671
  19 C :    1.060483
  20 F :   -0.282974
  21 F :   -0.286689
  22 F :   -0.281404
  23 C :   -0.170158
  24 C :   -0.184852
  25 C :    0.343527
  26 N :   -0.363176
  27 C :   -0.046329
  28 C :    0.132744
  29 C :   -0.200374
  30 C :   -0.127085
  31 C :   -0.120147
  32 C :   -0.201428
  33 C :    0.127258
  34 C :    0.083398
  35 C :   -0.543114
  36 C :   -0.146747
  37 C :   -0.140780
  38 H :    0.159825
  39 H :    0.128651
  40 H :    0.174717
  41 H :    0.327478
  42 H :    0.144919
  43 H :    0.175133
  44 H :    0.183460
  45 H :    0.154521
  46 H :    0.194999
  47 H :    0.152684
  48 H :    0.148417
  49 H :    0.126423
  50 H :    0.157115
  51 H :    0.141742
  52 H :    0.136370
  53 H :    0.136887
  54 H :    0.134403
  55 H :    0.162013
  56 H :    0.165245
  57 H :    0.166298
  58 H :    0.191438
  59 H :    0.181284
Sum of atomic charges:   -0.0000000

--------------------------------
MULLIKEN REDUCED ORBITAL CHARGES
--------------------------------
  0 C s       :     3.251064  s :     3.251064
      pz      :     0.788467  p :     2.874030
      px      :     1.061189
      py      :     1.024374
      dz2     :     0.016966  d :     0.059622
      dxz     :     0.012189
      dyz     :     0.012870
      dx2y2   :     0.013974
      dxy     :     0.003624

  1 O s       :     3.868802  s :     3.868802
      pz      :     1.499772  p :     4.400339
      px      :     1.147899
      py      :     1.752669
      dz2     :     0.009410  d :     0.042546
      dxz     :     0.008156
      dyz     :     0.006307
      dx2y2   :     0.010853
      dxy     :     0.007819

  2 N s       :     3.529434  s :     3.529434
      pz      :     1.491207  p :     3.804084
      px      :     0.917364
      py      :     1.395513
      dz2     :     0.006132  d :     0.056042
      dxz     :     0.013808
      dyz     :     0.004821
      dx2y2   :     0.012068
      dxy     :     0.019213

  3 C s       :     3.028964  s :     3.028964
      pz      :     0.784617  p :     2.360815
      px      :     0.836807
      py      :     0.739391
      dz2     :     0.015327  d :     0.098717
      dxz     :     0.011793
      dyz     :     0.020029
      dx2y2   :     0.031542
      dxy     :     0.020027

  4 O s       :     3.890997  s :     3.890997
      pz      :     1.561534  p :     4.547575
      px      :     1.580525
      py      :     1.405516
      dz2     :     0.002972  d :     0.025462
      dxz     :     0.003854
      dyz     :     0.004377
      dx2y2   :     0.007094
      dxy     :     0.007165

  5 C s       :     3.164754  s :     3.164754
      pz      :     0.962828  p :     2.714734
      px      :     0.895582
      py      :     0.856325
      dz2     :     0.003859  d :     0.038680
      dxz     :     0.005686
      dyz     :     0.006667
      dx2y2   :     0.011843
      dxy     :     0.010625

  6 C s       :     3.196055  s :     3.196055
      pz      :     0.988727  p :     2.934150
      px      :     0.966794
      py      :     0.978630
      dz2     :     0.003497  d :     0.035771
      dxz     :     0.005434
      dyz     :     0.005506
      dx2y2   :     0.010595
      dxy     :     0.010739

  7 C s       :     3.199915  s :     3.199915
      pz      :     0.951784  p :     2.912012
      px      :     0.975145
      py      :     0.985083
      dz2     :     0.005466  d :     0.036028
      dxz     :     0.004900
      dyz     :     0.004624
      dx2y2   :     0.008799
      dxy     :     0.012240

  8 C s       :     3.220323  s :     3.220323
      pz      :     1.018833  p :     2.862786
      px      :     0.865758
      py      :     0.978195
      dz2     :     0.003538  d :     0.038461
      dxz     :     0.005508
      dyz     :     0.007440
      dx2y2   :     0.012767
      dxy     :     0.009208

  9 S s       :     5.226436  s :     5.226436
      pz      :     3.020188  p :     9.034127
      px      :     3.044812
      py      :     2.969126
      dz2     :     0.080981  d :     0.533717
      dxz     :     0.121893
      dyz     :     0.120300
      dx2y2   :     0.127107
      dxy     :     0.083436

 10 O s       :     3.930672  s :     3.930672
      pz      :     1.490494  p :     4.590232
      px      :     1.700979
      py      :     1.398758
      dz2     :     0.005427  d :     0.026521
      dxz     :     0.002554
      dyz     :     0.007973
      dx2y2   :     0.005163
      dxy     :     0.005404

 11 O s       :     3.922522  s :     3.922522
      pz      :     1.413518  p :     4.575697
      px      :     1.697823
      py      :     1.464356
      dz2     :     0.006619  d :     0.027396
      dxz     :     0.003824
      dyz     :     0.008146
      dx2y2   :     0.004137
      dxy     :     0.004670

 12 N s       :     3.604870  s :     3.604870
      pz      :     1.411060  p :     3.981922
      px      :     1.312253
      py      :     1.258609
      dz2     :     0.005130  d :     0.032545
      dxz     :     0.006353
      dyz     :     0.005697
      dx2y2   :     0.008370
      dxy     :     0.006994

 13 C s       :     3.237606  s :     3.237606
      pz      :     0.992886  p :     2.937392
      px      :     1.049745
      py      :     0.894761
      dz2     :     0.016635  d :     0.055303
      dxz     :     0.004492
      dyz     :     0.011110
      dx2y2   :     0.008306
      dxy     :     0.014759

 14 C s       :     3.134575  s :     3.134575
      pz      :     0.862716  p :     2.679803
      px      :     0.856343
      py      :     0.960744
      dz2     :     0.010279  d :     0.039355
      dxz     :     0.010957
      dyz     :     0.007549
      dx2y2   :     0.005334
      dxy     :     0.005236

 15 C s       :     3.209832  s :     3.209832
      pz      :     0.997948  p :     2.914331
      px      :     0.967156
      py      :     0.949227
      dz2     :     0.008858  d :     0.035977
      dxz     :     0.011508
      dyz     :     0.005940
      dx2y2   :     0.004936
      dxy     :     0.004735

 16 C s       :     3.203863  s :     3.203863
      pz      :     0.956726  p :     2.925419
      px      :     0.968465
      py      :     1.000229
      dz2     :     0.008840  d :     0.034798
      dxz     :     0.009861
      dyz     :     0.005894
      dx2y2   :     0.005359
      dxy     :     0.004845

 17 C s       :     3.085122  s :     3.085122
      pz      :     0.886636  p :     2.520283
      px      :     0.747487
      py      :     0.886160
      dz2     :     0.014849  d :     0.066028
      dxz     :     0.016989
      dyz     :     0.010823
      dx2y2   :     0.010501
      dxy     :     0.012867

 18 O s       :     3.875861  s :     3.875861
      pz      :     1.766858  p :     4.635224
      px      :     1.207604
      py      :     1.660761
      dz2     :     0.003343  d :     0.026586
      dxz     :     0.006260
      dyz     :     0.003594
      dx2y2   :     0.006207
      dxy     :     0.007183

 19 C s       :     2.724158  s :     2.724158
      pz      :     0.665121  p :     2.051766
      px      :     0.734489
      py      :     0.652156
      dz2     :     0.040640  d :     0.163593
      dxz     :     0.028750
      dyz     :     0.028091
      dx2y2   :     0.032945
      dxy     :     0.033167

 20 F s       :     3.977739  s :     3.977739
      pz      :     1.473726  p :     5.289300
      px      :     1.907250
      py      :     1.908325
      dz2     :     0.008450  d :     0.015935
      dxz     :     0.003410
      dyz     :     0.003604
      dx2y2   :     0.000224
      dxy     :     0.000246

 21 F s       :     3.978073  s :     3.978073
      pz      :     1.855336  p :     5.292568
      px      :     1.865738
      py      :     1.571494
      dz2     :     0.002155  d :     0.016049
      dxz     :     0.001124
      dyz     :     0.004213
      dx2y2   :     0.004509
      dxy     :     0.004048

 22 F s       :     3.978367  s :     3.978367
      pz      :     1.862202  p :     5.287067
      px      :     1.743256
      py      :     1.681609
      dz2     :     0.002149  d :     0.015969
      dxz     :     0.002303
      dyz     :     0.002984
      dx2y2   :     0.003073
      dxy     :     0.005461

 23 C s       :     3.188628  s :     3.188628
      pz      :     0.946370  p :     2.946890
      px      :     0.989835
      py      :     1.010685
      dz2     :     0.008010  d :     0.034640
      dxz     :     0.010868
      dyz     :     0.006519
      dx2y2   :     0.004683
      dxy     :     0.004560

 24 C s       :     3.201287  s :     3.201287
      pz      :     0.975558  p :     2.947301
      px      :     0.972202
      py      :     0.999541
      dz2     :     0.010892  d :     0.036265
      dxz     :     0.009542
      dyz     :     0.004600
      dx2y2   :     0.005805
      dxy     :     0.005427

 25 C s       :     3.035659  s :     3.035659
      pz      :     0.878751  p :     2.547834
      px      :     0.823112
      py      :     0.845971
      dz2     :     0.019203  d :     0.072980
      dxz     :     0.014581
      dyz     :     0.015757
      dx2y2   :     0.011107
      dxy     :     0.012332

 26 N s       :     3.694045  s :     3.694045
      pz      :     1.351009  p :     3.633882
      px      :     1.052525
      py      :     1.230348
      dz2     :     0.009489  d :     0.035250
      dxz     :     0.007422
      dyz     :     0.005305
      dx2y2   :     0.006892
      dxy     :     0.006142

 27 C s       :     3.161764  s :     3.161764
      pz      :     0.979920  p :     2.830542
      px      :     0.921202
      py      :     0.929420
      dz2     :     0.011227  d :     0.054023
      dxz     :     0.013579
      dyz     :     0.011082
      dx2y2   :     0.009245
      dxy     :     0.008890

 28 C s       :     3.139416  s :     3.139416
      pz      :     0.858513  p :     2.686150
      px      :     0.920280
      py      :     0.907357
      dz2     :     0.009998  d :     0.041691
      dxz     :     0.009477
      dyz     :     0.009180
      dx2y2   :     0.006894
      dxy     :     0.006142

 29 C s       :     3.212653  s :     3.212653
      pz      :     0.981888  p :     2.951550
      px      :     0.985972
      py      :     0.983690
      dz2     :     0.009105  d :     0.036171
      dxz     :     0.009587
      dyz     :     0.006250
      dx2y2   :     0.005696
      dxy     :     0.005532

 30 C s       :     3.192862  s :     3.192862
      pz      :     0.933157  p :     2.897881
      px      :     0.982572
      py      :     0.982151
      dz2     :     0.010702  d :     0.036342
      dxz     :     0.007985
      dyz     :     0.007559
      dx2y2   :     0.002581
      dxy     :     0.007515

 31 C s       :     3.196127  s :     3.196127
      pz      :     0.959059  p :     2.887445
      px      :     0.959183
      py      :     0.969204
      dz2     :     0.008426  d :     0.036575
      dxz     :     0.007987
      dyz     :     0.009575
      dx2y2   :     0.005401
      dxy     :     0.005185

 32 C s       :     3.207476  s :     3.207476
      pz      :     0.986880  p :     2.958524
      px      :     0.987039
      py      :     0.984606
      dz2     :     0.009326  d :     0.035428
      dxz     :     0.008860
      dyz     :     0.006652
      dx2y2   :     0.005701
      dxy     :     0.004889

 33 C s       :     3.134658  s :     3.134658
      pz      :     0.856828  p :     2.696666
      px      :     0.904792
      py      :     0.935046
      dz2     :     0.010047  d :     0.041418
      dxz     :     0.009875
      dyz     :     0.008618
      dx2y2   :     0.006647
      dxy     :     0.006232

 34 C s       :     3.174910  s :     3.174910
      pz      :     0.855988  p :     2.702393
      px      :     0.914159
      py      :     0.932246
      dz2     :     0.008952  d :     0.039299
      dxz     :     0.008905
      dyz     :     0.008424
      dx2y2   :     0.006544
      dxy     :     0.006475

 35 C s       :     3.318676  s :     3.318676
      pz      :     1.046270  p :     3.189999
      px      :     1.056390
      py      :     1.087340
      dz2     :     0.005958  d :     0.034438
      dxz     :     0.008420
      dyz     :     0.007543
      dx2y2   :     0.006266
      dxy     :     0.006252

 36 C s       :     3.210056  s :     3.210056
      pz      :     0.958564  p :     2.900665
      px      :     0.949314
      py      :     0.992787
      dz2     :     0.003646  d :     0.036026
      dxz     :     0.005544
      dyz     :     0.005939
      dx2y2   :     0.009783
      dxy     :     0.011114

 37 C s       :     3.217090  s :     3.217090
      pz      :     0.937958  p :     2.888354
      px      :     0.942591
      py      :     1.007805
      dz2     :     0.004985  d :     0.035336
      dxz     :     0.004948
      dyz     :     0.004316
      dx2y2   :     0.009268
      dxy     :     0.011819

 38 H s       :     0.840175  s :     0.840175

 39 H s       :     0.871349  s :     0.871349

 40 H s       :     0.825283  s :     0.825283

 41 H s       :     0.672522  s :     0.672522

 42 H s       :     0.855081  s :     0.855081

 43 H s       :     0.824867  s :     0.824867

 44 H s       :     0.816540  s :     0.816540

 45 H s       :     0.845479  s :     0.845479

 46 H s       :     0.805001  s :     0.805001

 47 H s       :     0.847316  s :     0.847316

 48 H s       :     0.851583  s :     0.851583

 49 H s       :     0.873577  s :     0.873577

 50 H s       :     0.842885  s :     0.842885

 51 H s       :     0.858258  s :     0.858258

 52 H s       :     0.863630  s :     0.863630

 53 H s       :     0.863113  s :     0.863113

 54 H s       :     0.865597  s :     0.865597

 55 H s       :     0.837987  s :     0.837987

 56 H s       :     0.834755  s :     0.834755

 57 H s       :     0.833702  s :     0.833702

 58 H s       :     0.808562  s :     0.808562

 59 H s       :     0.818716  s :     0.818716



                     *******************************
                     * LOEWDIN POPULATION ANALYSIS *
                     *******************************

----------------------
LOEWDIN ATOMIC CHARGES
----------------------
   0 C :   -0.213821
   1 O :   -0.142510
   2 N :   -0.135700
   3 C :    0.131750
   4 O :   -0.273599
   5 C :   -0.031913
   6 C :   -0.121029
   7 C :   -0.107958
   8 C :   -0.176909
   9 S :    1.261844
  10 O :   -0.573760
  11 O :   -0.557370
  12 N :   -0.283528
  13 C :   -0.147389
  14 C :   -0.038779
  15 C :   -0.105576
  16 C :   -0.132248
  17 C :    0.073694
  18 O :   -0.162450
  19 C :    0.360740
  20 F :   -0.104863
  21 F :   -0.107677
  22 F :   -0.094641
  23 C :   -0.152653
  24 C :   -0.129392
  25 C :    0.040231
  26 N :   -0.109319
  27 C :   -0.053027
  28 C :   -0.028866
  29 C :   -0.109536
  30 C :   -0.127625
  31 C :   -0.117433
  32 C :   -0.127298
  33 C :   -0.005708
  34 C :   -0.022635
  35 C :   -0.360671
  36 C :   -0.099601
  37 C :   -0.087435
  38 H :    0.128420
  39 H :    0.106654
  40 H :    0.129312
  41 H :    0.243452
  42 H :    0.139242
  43 H :    0.152567
  44 H :    0.146845
  45 H :    0.125000
  46 H :    0.161846
  47 H :    0.147189
  48 H :    0.141951
  49 H :    0.130605
  50 H :    0.139923
  51 H :    0.138610
  52 H :    0.135635
  53 H :    0.136101
  54 H :    0.136300
  55 H :    0.135388
  56 H :    0.137352
  57 H :    0.137564
  58 H :    0.163548
  59 H :    0.161153

-------------------------------
LOEWDIN REDUCED ORBITAL CHARGES
-------------------------------
  0 C s       :     2.988794  s :     2.988794
      pz      :     0.905218  p :     3.104037
      px      :     1.117407
      py      :     1.081413
      dz2     :     0.035628  d :     0.120990
      dxz     :     0.024886
      dyz     :     0.026911
      dx2y2   :     0.027534
      dxy     :     0.006031

  1 O s       :     3.498763  s :     3.498763
      pz      :     1.532655  p :     4.544828
      px      :     1.257352
      py      :     1.754821
      dz2     :     0.021449  d :     0.098919
      dxz     :     0.022505
      dyz     :     0.012087
      dx2y2   :     0.025384
      dxy     :     0.017494

  2 N s       :     3.141035  s :     3.141035
      pz      :     1.471027  p :     3.862610
      px      :     1.007563
      py      :     1.384020
      dz2     :     0.014512  d :     0.132055
      dxz     :     0.030947
      dyz     :     0.010583
      dx2y2   :     0.031726
      dxy     :     0.044287

  3 C s       :     2.869239  s :     2.869239
      pz      :     0.871322  p :     2.770172
      px      :     0.982217
      py      :     0.916633
      dz2     :     0.033379  d :     0.228839
      dxz     :     0.024999
      dyz     :     0.048397
      dx2y2   :     0.073696
      dxy     :     0.048368

  4 O s       :     3.591497  s :     3.591497
      pz      :     1.559728  p :     4.632014
      px      :     1.613748
      py      :     1.458538
      dz2     :     0.006581  d :     0.050087
      dxz     :     0.005993
      dyz     :     0.007912
      dx2y2   :     0.011335
      dxy     :     0.018266

  5 C s       :     2.883914  s :     2.883914
      pz      :     0.976250  p :     3.049056
      px      :     1.009329
      py      :     1.063477
      dz2     :     0.008692  d :     0.098943
      dxz     :     0.012867
      dyz     :     0.015810
      dx2y2   :     0.032468
      dxy     :     0.029107

  6 C s       :     2.917494  s :     2.917494
      pz      :     0.999722  p :     3.119497
      px      :     1.051258
      py      :     1.068517
      dz2     :     0.006890  d :     0.084038
      dxz     :     0.012712
      dyz     :     0.010925
      dx2y2   :     0.026276
      dxy     :     0.027236

  7 C s       :     2.917645  s :     2.917645
      pz      :     0.977819  p :     3.104879
      px      :     1.057173
      py      :     1.069888
      dz2     :     0.010427  d :     0.085434
      dxz     :     0.012403
      dyz     :     0.010842
      dx2y2   :     0.022706
      dxy     :     0.029057

  8 C s       :     2.931575  s :     2.931575
      pz      :     1.037325  p :     3.147622
      px      :     1.012704
      py      :     1.097593
      dz2     :     0.007805  d :     0.097712
      dxz     :     0.013330
      dyz     :     0.017105
      dx2y2   :     0.033754
      dxy     :     0.025718

  9 S s       :     5.106590  s :     5.106590
      pz      :     2.983314  p :     8.957036
      px      :     3.009425
      py      :     2.964297
      dz2     :     0.092809  d :     0.674530
      dxz     :     0.157096
      dyz     :     0.161340
      dx2y2   :     0.166193
      dxy     :     0.097092

 10 O s       :     3.714019  s :     3.714019
      pz      :     1.562382  p :     4.804385
      px      :     1.728025
      py      :     1.513978
      dz2     :     0.007668  d :     0.055355
      dxz     :     0.003612
      dyz     :     0.021763
      dx2y2   :     0.014045
      dxy     :     0.008267

 11 O s       :     3.710768  s :     3.710768
      pz      :     1.506972  p :     4.790030
      px      :     1.721631
      py      :     1.561426
      dz2     :     0.009651  d :     0.056572
      dxz     :     0.005239
      dyz     :     0.024341
      dx2y2   :     0.010392
      dxy     :     0.006949

 12 N s       :     3.178650  s :     3.178650
[...]
      pz      :     1.065317  p :     3.124813
      px      :     1.033039
      py      :     1.026456
      dz2     :     0.027784  d :     0.085750
      dxz     :     0.020241
      dyz     :     0.019385
      dx2y2   :     0.004851
      dxy     :     0.013489

 31 C s       :     2.918493  s :     2.918493
      pz      :     1.068068  p :     3.112974
      px      :     1.025624
      py      :     1.019282
      dz2     :     0.020360  d :     0.085967
      dxz     :     0.020176
      dyz     :     0.020596
      dx2y2   :     0.011865
      dxy     :     0.012969

 32 C s       :     2.917407  s :     2.917407
      pz      :     1.063240  p :     3.127794
      px      :     1.037067
      py      :     1.027487
      dz2     :     0.021154  d :     0.082097
      dxz     :     0.019408
      dyz     :     0.016246
      dx2y2   :     0.012029
      dxy     :     0.013258

 33 C s       :     2.857018  s :     2.857018
      pz      :     1.041456  p :     3.042988
      px      :     1.004099
      py      :     0.997433
      dz2     :     0.027547  d :     0.105703
      dxz     :     0.025477
      dyz     :     0.022561
      dx2y2   :     0.014361
      dxy     :     0.015758

 34 C s       :     2.887462  s :     2.887462
      pz      :     1.026674  p :     3.038589
      px      :     1.010636
      py      :     1.001279
      dz2     :     0.022583  d :     0.096584
      dxz     :     0.022684
      dyz     :     0.021416
      dx2y2   :     0.014562
      dxy     :     0.015338

 35 C s       :     2.973175  s :     2.973175
      pz      :     1.083883  p :     3.320493
      px      :     1.104673
      py      :     1.131937
      dz2     :     0.012344  d :     0.067002
      dxz     :     0.016884
      dyz     :     0.014711
      dx2y2   :     0.011414
      dxy     :     0.011650

 36 C s       :     2.919101  s :     2.919101
      pz      :     0.973665  p :     3.095405
      px      :     1.049579
      py      :     1.072162
      dz2     :     0.007347  d :     0.085094
      dxz     :     0.012559
      dyz     :     0.011904
      dx2y2   :     0.024732
      dxy     :     0.028552

 37 C s       :     2.920950  s :     2.920950
      pz      :     0.961509  p :     3.084191
      px      :     1.046798
      py      :     1.075884
      dz2     :     0.009291  d :     0.082294
      dxz     :     0.012142
      dyz     :     0.009803
      dx2y2   :     0.023367
      dxy     :     0.027690

 38 H s       :     0.871580  s :     0.871580

 39 H s       :     0.893346  s :     0.893346

 40 H s       :     0.870688  s :     0.870688

 41 H s       :     0.756548  s :     0.756548

 42 H s       :     0.860758  s :     0.860758

 43 H s       :     0.847433  s :     0.847433

 44 H s       :     0.853155  s :     0.853155

 45 H s       :     0.875000  s :     0.875000

 46 H s       :     0.838154  s :     0.838154

 47 H s       :     0.852811  s :     0.852811

 48 H s       :     0.858049  s :     0.858049

 49 H s       :     0.869395  s :     0.869395

 50 H s       :     0.860077  s :     0.860077

 51 H s       :     0.861390  s :     0.861390

 52 H s       :     0.864365  s :     0.864365

 53 H s       :     0.863899  s :     0.863899

 54 H s       :     0.863700  s :     0.863700

 55 H s       :     0.864612  s :     0.864612

 56 H s       :     0.862648  s :     0.862648

 57 H s       :     0.862436  s :     0.862436

 58 H s       :     0.836452  s :     0.836452

 59 H s       :     0.838847  s :     0.838847



                      *****************************
                      * MAYER POPULATION ANALYSIS *
                      *****************************

  NA   - Mulliken gross atomic population
  ZA   - Total nuclear charge
  QA   - Mulliken gross atomic charge
  VA   - Mayer's total valence
  BVA  - Mayer's bonded valence
  FA   - Mayer's free valence

  ATOM       NA         ZA         QA         VA         BVA        FA
  0 C      6.1847     6.0000    -0.1847     3.7168     3.7168     0.0000
  1 O      8.3117     8.0000    -0.3117     1.9595     1.9595    -0.0000
  2 N      7.3896     7.0000    -0.3896     2.9112     2.9112    -0.0000
  3 C      5.4885     6.0000     0.5115     3.8718     3.8718     0.0000
  4 O      8.4640     8.0000    -0.4640     2.0690     2.0690    -0.0000
  5 C      5.9182     6.0000     0.0818     3.9006     3.9006    -0.0000
  6 C      6.1660     6.0000    -0.1660     3.8843     3.8843    -0.0000
  7 C      6.1480     6.0000    -0.1480     3.9457     3.9457    -0.0000
  8 C      6.1216     6.0000    -0.1216     3.8362     3.8362     0.0000
  9 S     14.7943    16.0000     1.2057     5.0725     5.0725     0.0000
 10 O      8.5474     8.0000    -0.5474     1.8847     1.8847     0.0000
 11 O      8.5256     8.0000    -0.5256     1.9049     1.9049     0.0000
 12 N      7.6193     7.0000    -0.6193     2.7923     2.7923     0.0000
 13 C      6.2303     6.0000    -0.2303     3.8300     3.8300     0.0000
 14 C      5.8537     6.0000     0.1463     3.9294     3.9294     0.0000
 15 C      6.1601     6.0000    -0.1601     3.9009     3.9009    -0.0000
 16 C      6.1641     6.0000    -0.1641     3.9047     3.9047     0.0000
 17 C      5.6714     6.0000     0.3286     3.8303     3.8303    -0.0000
 18 O      8.5377     8.0000    -0.5377     1.9469     1.9469    -0.0000
 19 C      4.9395     6.0000     1.0605     4.0276     4.0276    -0.0000
 20 F      9.2830     9.0000    -0.2830     1.0803     1.0803    -0.0000
 21 F      9.2867     9.0000    -0.2867     1.0719     1.0719    -0.0000
 22 F      9.2814     9.0000    -0.2814     1.0812     1.0812     0.0000
 23 C      6.1702     6.0000    -0.1702     3.8986     3.8986    -0.0000
 24 C      6.1849     6.0000    -0.1849     3.9379     3.9379    -0.0000
 25 C      5.6565     6.0000     0.3435     3.8602     3.8602     0.0000
 26 N      7.3632     7.0000    -0.3632     2.9799     2.9799     0.0000
 27 C      6.0463     6.0000    -0.0463     3.8577     3.8577    -0.0000
 28 C      5.8673     6.0000     0.1327     3.9544     3.9544     0.0000
 29 C      6.2004     6.0000    -0.2004     3.9010     3.9010     0.0000
 30 C      6.1271     6.0000    -0.1271     3.9277     3.9277    -0.0000
 31 C      6.1201     6.0000    -0.1201     3.9292     3.9292    -0.0000
 32 C      6.2014     6.0000    -0.2014     3.8772     3.8772     0.0000
 33 C      5.8727     6.0000     0.1273     3.9989     3.9989     0.0000
 34 C      5.9166     6.0000     0.0834     3.8700     3.8700    -0.0000
 35 C      6.5431     6.0000    -0.5431     3.8294     3.8294     0.0000
 36 C      6.1467     6.0000    -0.1467     3.9136     3.9136     0.0000
 37 C      6.1408     6.0000    -0.1408     3.8948     3.8948     0.0000
 38 H      0.8402     1.0000     0.1598     0.9352     0.9352     0.0000
 39 H      0.8713     1.0000     0.1287     0.9392     0.9392     0.0000
 40 H      0.8253     1.0000     0.1747     0.9338     0.9338     0.0000
 41 H      0.6725     1.0000     0.3275     0.8662     0.8662    -0.0000
 42 H      0.8551     1.0000     0.1449     0.9430     0.9430    -0.0000
 43 H      0.8249     1.0000     0.1751     0.9371     0.9371    -0.0000
 44 H      0.8165     1.0000     0.1835     0.9309     0.9309     0.0000
 45 H      0.8455     1.0000     0.1545     0.9314     0.9314    -0.0000
 46 H      0.8050     1.0000     0.1950     0.9398     0.9398    -0.0000
 47 H      0.8473     1.0000     0.1527     0.9361     0.9361     0.0000
 48 H      0.8516     1.0000     0.1484     0.9476     0.9476    -0.0000
 49 H      0.8736     1.0000     0.1264     0.9408     0.9408    -0.0000
 50 H      0.8429     1.0000     0.1571     0.9326     0.9326    -0.0000
 51 H      0.8583     1.0000     0.1417     0.9364     0.9364     0.0000
 52 H      0.8636     1.0000     0.1364     0.9366     0.9366     0.0000
 53 H      0.8631     1.0000     0.1369     0.9367     0.9367    -0.0000
 54 H      0.8656     1.0000     0.1344     0.9421     0.9421    -0.0000
 55 H      0.8380     1.0000     0.1620     0.9285     0.9285    -0.0000
 56 H      0.8348     1.0000     0.1652     0.9317     0.9317    -0.0000
 57 H      0.8337     1.0000     0.1663     0.9375     0.9375    -0.0000
 58 H      0.8086     1.0000     0.1914     0.9353     0.9353    -0.0000
 59 H      0.8187     1.0000     0.1813     0.9388     0.9388     0.0000

  Mayer bond orders larger than 0.100000
B(  0-C ,  1-O ) :   0.8971 B(  0-C , 38-H ) :   0.9452 B(  0-C , 39-H ) :   0.9373 
B(  0-C , 40-H ) :   0.9291 B(  1-O ,  2-N ) :   0.9759 B(  2-N ,  3-C ) :   0.9834 
B(  2-N , 41-H ) :   0.8059 B(  3-C ,  4-O ) :   1.8326 B(  3-C ,  5-C ) :   0.9740 
B(  5-C ,  6-C ) :   1.3873 B(  5-C , 37-C ) :   1.3971 B(  6-C ,  7-C ) :   1.4338 
B(  6-C , 42-H ) :   0.9168 B(  7-C ,  8-C ) :   1.3928 B(  7-C , 43-H ) :   0.9096 
B(  8-C ,  9-S ) :   0.8137 B(  8-C , 36-C ) :   1.3904 B(  9-S , 10-O ) :   1.6204 
B(  9-S , 11-O ) :   1.6468 B(  9-S , 12-N ) :   0.7940 B( 12-N , 13-C ) :   0.9220 
B( 12-N , 25-C ) :   0.8869 B( 13-C , 14-C ) :   0.9678 B( 13-C , 44-H ) :   0.9074 
B( 13-C , 45-H ) :   0.9169 B( 14-C , 15-C ) :   1.4277 B( 14-C , 24-C ) :   1.4302 
B( 15-C , 16-C ) :   1.4329 B( 15-C , 46-H ) :   0.8939 B( 16-C , 17-C ) :   1.4135 
B( 16-C , 47-H ) :   0.9199 B( 17-C , 18-O ) :   0.8108 B( 17-C , 23-C ) :   1.4116 
B( 18-O , 19-C ) :   1.0023 B( 19-C , 20-F ) :   0.9769 B( 19-C , 21-F ) :   0.9894 
B( 19-C , 22-F ) :   1.0036 B( 23-C , 24-C ) :   1.4240 B( 23-C , 48-H ) :   0.9133 
B( 24-C , 49-H ) :   0.9232 B( 25-C , 26-N ) :   1.2843 B( 25-C , 34-C ) :   1.4354 
B( 26-N , 27-C ) :   1.5009 B( 27-C , 28-C ) :   1.2293 B( 27-C , 34-C ) :   0.1004 
B( 27-C , 50-H ) :   0.9258 B( 28-C , 29-C ) :   1.2857 B( 28-C , 33-C ) :   1.2904 
B( 29-C , 30-C ) :   1.5093 B( 29-C , 32-C ) :   0.1070 B( 29-C , 51-H ) :   0.9230 
B( 30-C , 31-C ) :   1.3577 B( 30-C , 52-H ) :   0.9291 B( 31-C , 32-C ) :   1.5059 
B( 31-C , 53-H ) :   0.9291 B( 32-C , 33-C ) :   1.2950 B( 32-C , 54-H ) :   0.9180 
B( 33-C , 34-C ) :   1.2657 B( 34-C , 35-C ) :   0.9962 B( 35-C , 55-H ) :   0.9244 
B( 35-C , 56-H ) :   0.9296 B( 35-C , 57-H ) :   0.9335 B( 36-C , 37-C ) :   1.4201 
B( 36-C , 58-H ) :   0.9075 B( 37-C , 59-H ) :   0.9089 

-------
TIMINGS
-------

Total SCF time: 0 days 0 hours 9 min 46 sec 

Total time                  ....     586.995 sec
Sum of individual times     ....     586.585 sec  ( 99.9%)

SCF preparation             ....       0.417 sec  (  0.1%)
Fock matrix formation       ....     582.975 sec  ( 99.3%)
  Startup                   ....       0.122 sec  (  0.0% of F)
  Split-RI-J                ....      79.687 sec  ( 13.7% of F)
  Chain of spheres X        ....     454.893 sec  ( 78.0% of F)
  XC integration            ....      47.241 sec  (  8.1% of F)
    XC Preparation          ....       0.000 sec  (  0.0% of XC)
    Basis function eval.    ....      18.062 sec  ( 38.2% of XC)
    Density eval.           ....      11.686 sec  ( 24.7% of XC)
    XC-Functional eval.     ....       2.211 sec  (  4.7% of XC)
    XC-Potential eval.      ....      13.101 sec  ( 27.7% of XC)
Diagonalization             ....       0.000 sec  (  0.0%)
Density matrix formation    ....       0.524 sec  (  0.1%)
Total Energy calculation    ....       0.090 sec  (  0.0%)
Population analysis         ....       0.087 sec  (  0.0%)
Orbital Transformation      ....       0.251 sec  (  0.0%)
Orbital Orthonormalization  ....       0.000 sec  (  0.0%)
DIIS solution               ....       1.407 sec  (  0.2%)
SOSCF solution              ....       0.834 sec  (  0.1%)
Finished LeanSCF after 587.1 sec

Maximum memory used throughout the entire LEANSCF-calculation: 98.6 MB

-------------------------   --------------------
FINAL SINGLE POINT ENERGY     -2240.842864591576
-------------------------   --------------------


------------------------------------------------------------------------------
                              ORCA PROPERTY CALCULATIONS
------------------------------------------------------------------------------

GBWName                                 ... /home/nmrbox/aojoawo/Documents/ERDOS/inputs/CHEMBL3682601.gbw
Number of atoms                         ...     60
Number of basis functions               ...    580
Max core memory                         ...   1024 MB

Electric properties:
Dipole moment                           ... YES
Quadrupole moment                       ...  NO
Static polarizability (Dipole/Dipole)   ...  NO
Static polarizability (Dipole/Quad.)    ...  NO
Static polarizability (Quad./Quad.)     ...  NO
Static polarizability (Velocity)        ...  NO

Atomic electric properties:
Dipole moment                           ...  NO
Quadrupole moment                       ...  NO
Static polarizability                   ...  NO

Choice of electric origin               ... Center of mass
Position of electric origin             ...    -0.839404     0.679248    -0.725973

General magnetic properties:
Magnetizability                         ...  NO

EPR properties:
g-Tensor (aka g-matrix)                 ...  NO
Zero-Field splitting spin-orbit         ...  NO
Zero-field splitting spin-spin          ...  NO
Hyperfine couplings                     ...  NO (   0 nuclei)
Quadrupole couplings                    ...  NO (   0 nuclei)
Contact density                         ...  NO (   0 nuclei)

NMR properties:
Chemical shifts                         ...  NO (   0 nuclei)
Spin-rotation constants                 ...  NO (   0 nuclei)
Spin-spin couplings                     ...  NO (   0 nuclei,    0 pairs)

Choice of magnetic origin               ... GIAO
Position of magnetic origin             ...     0.000000     0.000000     0.000000

Properties with geometric perturbations:
SCF Hessian                             ...  NO
IR spectrum                             ...  NO
VCD spectrum                            ...  NO
X-ray spectroscopy properties:
SCF XES/XAS/RIXS spectra                ...  NO


-------------
DIPOLE MOMENT
-------------

Method             : SCF
Type of density    : Electron Density
Multiplicity       :   1
Irrep              :   0
Energy             : -2240.8428645915760171 Eh
Relativity type    : 
Basis              : AO
                                X                 Y                 Z
Electronic contribution:    -42.916826384      24.273543724     -16.357959038
Nuclear contribution   :     42.726223876     -24.810281690      19.739797611
                        -----------------------------------------
Total Dipole Moment    :     -0.190602509      -0.536737966       3.381838573
                        -----------------------------------------
Magnitude (a.u.)       :      3.429467757
Magnitude (Debye)      :      8.717014285



--------------------
Rotational spectrum 
--------------------
 
Rotational constants in cm-1:             0.004200             0.001344             0.001145 
Rotational constants in MHz :           125.898044            40.279062            34.323443 

Dipole components along the rotational axes: 
x,y,z [a.u.] :    -0.152242    -0.522094     3.386073 
x,y,z [Debye]:    -0.386970    -1.327058     8.606713 

 

Dipole moment calculation done in   0.0 sec 

Maximum memory used throughout the entire PROP-calculation: 48.7 MB

--------------------------------
SUGGESTED CITATIONS FOR THIS RUN
--------------------------------

Below you find a list of papers that are relevant to this ORCA run
We neither can nor want to force you to cite these papers, but we appreciate if you do
You receive ORCA, which is the product of decades of hard work by many enthusiastic individuals, for free
The only thing we kindly ask in return is that you cite our papers,
We deeply appreciate it, if you show your appreciation for ORCA by not just citing the generic ORCA reference.

Please note that relegating all ORCA citations to the supporting information does *not* help us.
SI sections are not indexed - citations you put there will not count into any citation statistics
But we need these citations in order to attract the funding resources that allow us to do what we are doing

Therefore, if you are a happy ORCA user, please consider citing a few of the papers listed below in the main body of your paper

In addition to the list printed below, the program has created the file /home/nmrbox/aojoawo/Documents/ERDOS/inputs/CHEMBL3682601.bibtex that contains the list in bibtex format
You can import this file easily into all common literature databanks and citation aid programs


List of essential papers. We consider these as the minimum necessary citations

  1. Neese,F.
     Software update: the ORCA program system, version 5.0
     WIRES Comput. Molec. Sci., 2022 12(1)e1606
     doi.org/10.1002/wcms.1606

List of papers to cite with high priority. The work reported in these papers was absolutely
necessary for this run to complete.
Our perspective: the developers of density functionals and basis sets usually get cited in chemistry papers
Good! But without the algorithms to do something with them, the functionals or basis sets would not do anything.
Hence, in our opinion, the algorithm design and method developments papers are equally worthy of getting cited

  1. Neese,F.
     An improvement of the resolution of the identity approximation for the formation of the Coulomb matrix
     J. Comp. Chem., 2003 24(14)1740-1747
     doi.org/10.1002/jcc.10318
  2. Neese,F.; Wennmohs,F.; Hansen,A.; Becker,U.
     Efficient, approximate and parallel Hartree-Fock and hybrid DFT calculations. A 'chain-of-spheres' algorithm for the Hartree-Fock exchange
     Chem. Phys., 2009 356(1-3)98-109
     doi.org/10.1016/j.chemphys.2008.10.036
  3. Helmich-Paris,B.; de Souza,B.; Neese,F.; Izsák,R.
     An improved chain of spheres for exchange algorithm
     J. Chem. Phys., 2021 155 104109
     doi.org/doi: 10.1063/5.0058766.
  4. Neese,F.
     The SHARK Integral Generation and Digestion System
     J. Comp. Chem., 2022  1-16
     doi.org/10.1002/jcc.26942

List of suggested additional citations. These are papers that are important in the 'surrounding' of 
of this run, or papers that preceded the highly important papers. If you like your results we are grateful for a citation.

  1. Izsak,R.; Neese,F.
     An overlap fitted chain of spheres exchange method
     J. Chem. Phys., 2011 135 144105
     doi.org/10.1063/1.3646921
  2. Izsak,R.; Hansen,A.; Neese,F.
     The resolution of identity and chain of spheres approximations for the LPNO-CCSD singles Fock term
     Molec. Phys., 2012 110 2413-2417
     doi.org/10.1080/00268976.2012.687466
  3. Neese,F.
     The ORCA program system
     WIRES Comput. Molec. Sci., 2012 2(1)73-78
     doi.org/10.1002/wcms.81
  4. Izsak,R.; Neese,F.; Klopper,W.
     Robust fitting techniques in the chain of spheres approximation to the Fock exchange: The role of the complementary space
     J. Chem. Phys., 2013 139 
     doi.org/10.1063/1.4819264
  5. Neese,F.
     Software update: the ORCA program system, version 4.0
     WIRES Comput. Molec. Sci., 2018 8(1)1-6
     doi.org/10.1002/wcms.1327
  6. Neese,F.; Wennmohs,F.; Becker,U.; Riplinger,C.
     The ORCA quantum chemistry program package
     J. Chem. Phys., 2020 152 Art. No. L224108
     doi.org/10.1063/5.0004608

List of optional additional citations

  1. Neese,F.
     Approximate second-order SCF convergence for spin unrestricted wavefunctions
     Chem. Phys. Lett., 2000 325(1-3)93-98
     doi.org/10.1016/s0009-2614(00)00662-x

Timings for individual modules:

Sum of individual times          ...      609.233 sec (=  10.154 min)
Startup calculation              ...       14.501 sec (=   0.242 min)   2.4 %
SCF iterations                   ...      594.512 sec (=   9.909 min)  97.6 %
Property calculations            ...        0.221 sec (=   0.004 min)   0.0 %
                             ****ORCA TERMINATED NORMALLY****
TOTAL RUN TIME: 0 days 0 hours 10 minutes 10 seconds 49 msec
