
                                 *****************
                                 * O   R   C   A *
                                 *****************

                                            #,                                       
                                            ###                                      
                                            ####                                     
                                            #####                                    
                                            ######                                   
                                           ########,                                 
                                     ,,################,,,,,                         
                               ,,#################################,,                 
                          ,,##########################################,,             
                       ,#########################################, ''#####,          
                    ,#############################################,,   '####,        
                  ,##################################################,,,,####,       
                ,###########''''           ''''###############################       
              ,#####''   ,,,,##########,,,,          '''####'''          '####       
            ,##' ,,,,###########################,,,                        '##       
           ' ,,###''''                  '''############,,,                           
         ,,##''                                '''############,,,,        ,,,,,,###''
      ,#''                                            '''#######################'''  
     '                                                          ''''####''''         
             ,#######,   #######,   ,#######,      ##                                
            ,#'     '#,  ##    ##  ,#'     '#,    #''#        ,####,   ,####,        
            ##       ##  ##   ,#'  ##            #'  '#       #'       #'  '#        
            ##       ##  #######   ##           ,######,      #####,   #    #        
            '#,     ,#'  ##    ##  '#,     ,#' ,#      #,     #,   #   #,  ,#        
             '#######'   ##     ##  '#######'  #'      '#     '####' # '####'        



                #########################################################
                #                        -***-                          #
                #          Department of theory and spectroscopy        #
                #                                                       #
                #                      Frank Neese                      #
                #                                                       #
                #     Directorship, Architecture, Infrastructure        #
                #                    SHARK, DRIVERS                     #
                #        Core code/Algorithms in most modules           #
                #                                                       #
                #        Max Planck Institute fuer Kohlenforschung      #
                #                Kaiser Wilhelm Platz 1                 #
                #                 D-45470 Muelheim/Ruhr                 #
                #                      Germany                          #
                #                                                       #
                #                  All rights reserved                  #
                #                        -***-                          #
                #########################################################


                         Program Version 6.0.0  -   RELEASE  -


 With contributions from (in alphabetic order):
   Daniel Aravena         : Magnetic Suceptibility
   Michael Atanasov       : Ab Initio Ligand Field Theory (pilot matlab implementation)
   Alexander A. Auer      : GIAO ZORA, VPT2 properties, NMR spectrum
   Ute Becker             : All parallelization in ORCA, NUMFREQ, NUMCALC
   Giovanni Bistoni       : ED, misc. LED, open-shell LED, HFLD
   Martin Brehm           : Molecular dynamics
   Dmytro Bykov           : pre 5.0 version of the SCF Hessian
   Marcos Casanova-Páez   : Triplet and SCS-CIS(D). UHF-(DLPNO)-IP/EA/STEOM-CCSD. UHF-CVS-IP/STEOM-CCSD
   Vijay G. Chilkuri      : MRCI spin determinant printing, contributions to CSF-ICE
   Pauline Colinet        : FMM embedding
   Dipayan Datta          : RHF DLPNO-CCSD density
   Achintya Kumar Dutta   : EOM-CC, STEOM-CC
   Nicolas Foglia         : Exact transition moments, OPA infrastructure, MCD improvements
   Dmitry Ganyushin       : Spin-Orbit,Spin-Spin,Magnetic field MRCI
   Miquel Garcia          : C-PCM and meta-GGA Hessian, CCSD/C-PCM, Gaussian charge scheme
   Tiago L. C. Gouveia    : GS-ROHF, GS-ROCIS
   Yang Guo               : DLPNO-NEVPT2, F12-NEVPT2, CIM, IAO-localization
   Andreas Hansen         : Spin unrestricted coupled pair/coupled cluster methods
   Ingolf Harden          : AUTO-CI MPn and infrastructure 
   Benjamin Helmich-Paris : MC-RPA, TRAH-(SCF,CASSCF), AVAS, COSX integrals, SCF dyn. polar.
   Lee Huntington         : MR-EOM, pCC
   Robert Izsak           : Overlap fitted RIJCOSX, COSX-SCS-MP3, EOM
   Riya Kayal             : Wick's Theorem for AUTO-CI, AUTO-CI UHF-CCSDT
   Emily Kempfer          : AUTO-CI, RHF CISDT and CCSDT
   Christian Kollmar      : KDIIS, OOCD, Brueckner-CCSD(T), CCSD density, CASPT2, CASPT2-K, improved NEVPT2
   Axel Koslowski         : Symmetry handling
   Simone Kossmann        : Meta GGA functionals, TD-DFT gradient, OOMP2, (MP2 Hessian; deprecated post 5.0)
   Lucas Lang             : DCDCAS
   Marvin Lechner         : AUTO-CI (C++ implementation), FIC-MRCC
   Spencer Leger          : CASSCF response
   Dagmar Lenk            : GEPOL surface, SMD, ORCA-2-JSON
   Dimitrios Liakos       : Extrapolation schemes; Compound Job, initial MDCI parallelization
   Dimitrios Manganas     : Further ROCIS development; embedding schemes. LFT, Crystal Embedding
   Dimitrios Pantazis     : SARC Basis sets
   Anastasios Papadopoulos: AUTO-CI, single reference methods and gradients
   Taras Petrenko         : pre 6.0 DFT Hessian and TD-DFT gradient, (ASA, deprecated), ECA, 1-Electron XAS/XES, NRVS
   Peter Pinski           : DLPNO-MP2, DLPNO-MP2 Gradient
   Christoph Reimann      : Effective Core Potentials
   Marius Retegan         : Local ZFS, SOC
   Christoph Riplinger    : Optimizer, TS searches, QM/MM, DLPNO-CCSD(T), (RO)-DLPNO pert. Triples
   Michael Roemelt        : Original ROCIS implementation
   Masaaki Saitow         : Open-shell DLPNO-CCSD energy and density
   Barbara Sandhoefer     : DKH picture change effects
   Kantharuban Sivalingam : CASSCF convergence/infrastructure, NEVPT2 and variants, FIC-MRCI
   Bernardo de Souza      : ESD, SOC TD-DFT
   Georgi Stoychev        : AutoAux, RI-MP2 NMR, DLPNO-MP2 response, X2C
   Van Anh Tran           : RI-MP2 g-tensors
   Willem Van den Heuvel  : Paramagnetic NMR
   Zikuan Wang            : NOTCH, Electric field optimization 
   Frank Wennmohs         : Technical directorship and infrastructure
   Hang Xu                : AUTO-CI-Response properties 


 We gratefully acknowledge several colleagues who have allowed us to
 interface, adapt or use parts of their codes:
   Stefan Grimme, W. Hujo, H. Kruse, P. Pracht,  : VdW corrections, initial TS optimization,
                  C. Bannwarth, S. Ehlert,         DFT functionals, gCP, sTDA/sTD-DF
                  L. Wittmann, M. Mueller
   Ed Valeev, F. Pavosevic, A. Kumar             : LibInt (2-el integral package), F12 methods
   Garnet Chan, S. Sharma, J. Yang, R. Olivares  : DMRG
   Ulf Ekstrom                                   : XCFun DFT Library
   Mihaly Kallay                                 : mrcc  (arbitrary order and MRCC methods)
   Frank Weinhold                                : gennbo (NPA and NBO analysis)
   Simon Mueller                                 : openCOSMO-RS
   Christopher J. Cramer and Donald G. Truhlar   : smd solvation model
   Lars Goerigk                                  : TD-DFT with DH, B97 family of functionals
   V. Asgeirsson, H. Jonsson                     : NEB implementation
   FAccTs GmbH                                   : IRC, NEB, NEB-TS, DLPNO-Multilevel, CI-OPT
                                                   MM, QMMM, 2- and 3-layer-ONIOM, Crystal-QMMM,
                                                   LR-CPCM, SF, NACMEs, symmetry and pop. for TD-DFT,
                                                   nearIR, NL-DFT gradient (VV10), updates on ESD,
                                                   ML-optimized integration grids, MBIS, APM,
                                                   GOAT, DOCKER, SOLVATOR, interface openCOSMO-RS
   S Lehtola, MJT Oliveira, MAL Marques          : LibXC Library
   Liviu Ungur et al                             : ANISO software


 Your calculation uses the libint2 library for the computation of 2-el integrals
 For citations please refer to: http://libint.valeyev.net

 Your ORCA version has been built with support for libXC version: 6.2.2
 For citations please refer to: https://libxc.gitlab.io

 This ORCA versions uses:
   CBLAS   interface :  Fast vector & matrix operations
   LAPACKE interface :  Fast linear algebra routines
   SCALAPACK package :  Parallel linear algebra routines
   Shared memory     :  Shared parallel matrices
   BLAS/LAPACK       :  OpenBLAS 0.3.27  USE64BITINT DYNAMIC_ARCH NO_AFFINITY SkylakeX SINGLE_THREADED
        Core in use  :  SkylakeX
   Copyright (c) 2011-2014, The OpenBLAS Project


Warning: RI is on but no J-basis has been assigned. Assigning Def2/J (nothing to worry about!)
================================================================================

----- Orbital basis set information -----
Your calculation utilizes the basis: 6-31G*
   H-He, Li-Ne : W. J. Hehre, R. Ditchfield and J.A. Pople, J. Chem. Phys. 56, 2257 (1972).
                 Note: He and Ne are unpublished basis sets taken from the Gaussian program.
                 Note: Li and B from J. D. Dill and J. A. Pople, J. Chem. Phys. 62, 2921 (1975).
   Na - Ar     : M. M. Francl, W. J. Pietro, W. J. Hehre, J. S. Binkley, M. S. Gordon, 
                 D. J. DeFrees and J. A. Pople, J. Chem. Phys. 77, 3654 (1982).
   K - Zn      : V. A. Rassolov, J. A. Pople, M. A. Ratner, and T. L. Windus, J. Chem. Phys. 109, 1223 (1998).

----- AuxJ basis set information -----
Your calculation utilizes the auxiliary basis: def2/J
   F. Weigend, Phys. Chem. Chem. Phys. 8, 1057 (2006).

================================================================================
                                        WARNINGS
                       Please study these warnings very carefully!
================================================================================


================================================================================
                                       INPUT FILE
================================================================================
NAME = /home/nmrbox/aojoawo/Documents/ERDOS/inputs/CHEMBL3904770.inp
|  1> ! B3LYP 6-31G* SP
|  2> 
|  3> * xyz 0 1
|  4> C -3.7084 3.2989 -0.4895
|  5> C -4.6333 2.1444 -0.2810
|  6> O -5.5456 2.1089 0.6711
|  7> C -6.1521 0.9477 0.5937
|  8> C -5.6424 0.1943 -0.4190
|  9> C -4.6505 0.9573 -1.0163
| 10> C -3.7084 0.5690 -2.1215
| 11> C -2.4054 0.1002 -1.5483
| 12> O -1.4109 0.8758 -1.5609
| 13> N -2.3043 -1.2089 -0.9681
| 14> C -1.1295 -1.7044 -0.3133
| 15> N -0.0157 -0.9732 -0.0969
| 16> C 0.9449 -1.6839 0.5602
| 17> C 2.2583 -1.0761 0.9018
| 18> C 3.1444 -1.6930 1.8018
| 19> C 4.3720 -1.1016 2.1099
| 20> F 5.2076 -1.7197 2.9831
| 21> C 4.7541 0.1088 1.5205
| 22> O 6.0149 0.6253 1.8678
| 23> C 6.8609 1.4647 1.0732
| 24> C 7.6536 0.6701 -0.0018
| 25> C 8.3982 -0.5107 0.6538
| 26> C 6.7174 0.1353 -1.1035
| 27> C 8.6868 1.6125 -0.6530
| 28> C 3.8574 0.7489 0.6381
| 29> F 4.1299 1.9562 0.0934
| 30> C 2.6263 0.1563 0.3366
| 31> C 0.5800 -3.0022 0.8636
| 32> S -0.9817 -3.2609 0.2969
| 33> C -6.1461 -1.0805 -0.6551
| 34> O -5.7094 -1.7726 -1.6145
| 35> N -7.1334 -1.5614 0.1749
| 36> C -7.6975 -2.9018 -0.0617
| 37> C -7.6452 -0.7657 1.1848
| 38> O -8.5697 -1.2055 1.9253
| 39> N -7.1581 0.5055 1.3941
| 40> C -7.6689 1.3428 2.4867
| 41> H -4.0320 4.1589 0.1330
| 42> H -3.7166 3.6056 -1.5559
| 43> H -2.6792 3.0089 -0.1931
| 44> H -4.1482 -0.2265 -2.7560
| 45> H -3.5357 1.4447 -2.7829
| 46> H -3.1326 -1.8424 -1.0172
| 47> H 2.8920 -2.6255 2.2854
| 48> H 6.3083 2.3139 0.6306
| 49> H 7.5915 1.9287 1.7706
| 50> H 9.0201 -1.0463 -0.0956
| 51> H 9.0666 -0.1503 1.4630
| 52> H 7.6805 -1.2396 1.0882
| 53> H 6.1150 0.9602 -1.5412
| 54> H 6.0324 -0.6427 -0.7088
| 55> H 7.3071 -0.3330 -1.9221
| 56> H 8.1800 2.4806 -1.1256
| 57> H 9.4033 1.9953 0.1039
| 58> H 9.2683 1.0811 -1.4379
| 59> H 1.9590 0.6684 -0.3430
| 60> H 1.1840 -3.7495 1.3587
| 61> H -8.0282 -3.3725 0.8877
| 62> H -8.5629 -2.8237 -0.7512
| 63> H -6.9419 -3.5864 -0.5020
| 64> H -7.2549 0.9840 3.4534
| 65> H -7.3875 2.4101 2.3492
| 66> H -8.7790 1.2974 2.5213
| 67> *
| 68> 
| 69>                          ****END OF INPUT****
================================================================================

                       ****************************
                       * Single Point Calculation *
                       ****************************

---------------------------------
CARTESIAN COORDINATES (ANGSTROEM)
---------------------------------
  C     -3.708400    3.298900   -0.489500
  C     -4.633300    2.144400   -0.281000
  O     -5.545600    2.108900    0.671100
  C     -6.152100    0.947700    0.593700
  C     -5.642400    0.194300   -0.419000
  C     -4.650500    0.957300   -1.016300
  C     -3.708400    0.569000   -2.121500
  C     -2.405400    0.100200   -1.548300
  O     -1.410900    0.875800   -1.560900
  N     -2.304300   -1.208900   -0.968100
  C     -1.129500   -1.704400   -0.313300
  N     -0.015700   -0.973200   -0.096900
  C      0.944900   -1.683900    0.560200
  C      2.258300   -1.076100    0.901800
  C      3.144400   -1.693000    1.801800
  C      4.372000   -1.101600    2.109900
  F      5.207600   -1.719700    2.983100
  C      4.754100    0.108800    1.520500
  O      6.014900    0.625300    1.867800
  C      6.860900    1.464700    1.073200
  C      7.653600    0.670100   -0.001800
  C      8.398200   -0.510700    0.653800
  C      6.717400    0.135300   -1.103500
  C      8.686800    1.612500   -0.653000
  C      3.857400    0.748900    0.638100
  F      4.129900    1.956200    0.093400
  C      2.626300    0.156300    0.336600
  C      0.580000   -3.002200    0.863600
  S     -0.981700   -3.260900    0.296900
  C     -6.146100   -1.080500   -0.655100
  O     -5.709400   -1.772600   -1.614500
  N     -7.133400   -1.561400    0.174900
  C     -7.697500   -2.901800   -0.061700
  C     -7.645200   -0.765700    1.184800
  O     -8.569700   -1.205500    1.925300
  N     -7.158100    0.505500    1.394100
  C     -7.668900    1.342800    2.486700
  H     -4.032000    4.158900    0.133000
  H     -3.716600    3.605600   -1.555900
  H     -2.679200    3.008900   -0.193100
  H     -4.148200   -0.226500   -2.756000
  H     -3.535700    1.444700   -2.782900
  H     -3.132600   -1.842400   -1.017200
  H      2.892000   -2.625500    2.285400
  H      6.308300    2.313900    0.630600
  H      7.591500    1.928700    1.770600
  H      9.020100   -1.046300   -0.095600
  H      9.066600   -0.150300    1.463000
  H      7.680500   -1.239600    1.088200
  H      6.115000    0.960200   -1.541200
  H      6.032400   -0.642700   -0.708800
  H      7.307100   -0.333000   -1.922100
  H      8.180000    2.480600   -1.125600
  H      9.403300    1.995300    0.103900
  H      9.268300    1.081100   -1.437900
  H      1.959000    0.668400   -0.343000
  H      1.184000   -3.749500    1.358700
  H     -8.028200   -3.372500    0.887700
  H     -8.562900   -2.823700   -0.751200
  H     -6.941900   -3.586400   -0.502000
  H     -7.254900    0.984000    3.453400
  H     -7.387500    2.410100    2.349200
  H     -8.779000    1.297400    2.521300

----------------------------
CARTESIAN COORDINATES (A.U.)
----------------------------
  NO LB      ZA    FRAG     MASS         X           Y           Z
   0 C     6.0000    0    12.011   -7.007860    6.234018   -0.925021
   1 C     6.0000    0    12.011   -8.755668    4.052329   -0.531013
   2 O     8.0000    0    15.999  -10.479665    3.985243    1.268195
   3 C     6.0000    0    12.011  -11.625784    1.790893    1.121930
   4 C     6.0000    0    12.011  -10.662591    0.367174   -0.791795
   5 C     6.0000    0    12.011   -8.788171    1.809035   -1.920529
   6 C     6.0000    0    12.011   -7.007860    1.075254   -4.009054
   7 C     6.0000    0    12.011   -4.545547    0.189351   -2.925863
   8 O     8.0000    0    15.999   -2.666215    1.655022   -2.949674
   9 N     7.0000    0    14.007   -4.354496   -2.284490   -1.829444
  10 C     6.0000    0    12.011   -2.134446   -3.220849   -0.592051
  11 N     7.0000    0    14.007   -0.029669   -1.839081   -0.183114
  12 C     6.0000    0    12.011    1.785602   -3.182110    1.058625
  13 C     6.0000    0    12.011    4.267569   -2.033534    1.704155
  14 C     6.0000    0    12.011    5.942055   -3.199306    3.404909
  15 C     6.0000    0    12.011    8.261883   -2.081722    3.987133
  16 F     9.0000    0    18.998    9.840938   -3.249762    5.637242
  17 C     6.0000    0    12.011    8.983947    0.205602    2.873329
  18 O     8.0000    0    15.999   11.366514    1.181646    3.529630
  19 C     6.0000    0    12.011   12.965222    2.767882    2.028054
  20 C     6.0000    0    12.011   14.463208    1.266305   -0.003402
  21 C     6.0000    0    12.011   15.870298   -0.965083    1.235503
  22 C     6.0000    0    12.011   12.694046    0.255680   -2.085313
  23 C     6.0000    0    12.011   16.415673    3.047183   -1.233991
  24 C     6.0000    0    12.011    7.289430    1.415216    1.205834
  25 F     9.0000    0    18.998    7.804380    3.696682    0.176500
  26 C     6.0000    0    12.011    4.962988    0.295364    0.636082
  27 C     6.0000    0    12.011    1.096041   -5.673336    1.631967
  28 S    16.0000    0    32.060   -1.855144   -6.162208    0.561060
  29 C     6.0000    0    12.011  -11.614446   -2.041849   -1.237960
  30 O     8.0000    0    15.999  -10.789202   -3.349729   -3.050963
  31 N     7.0000    0    14.007  -13.480172   -2.950618    0.330513
  32 C     6.0000    0    12.011  -14.546167   -5.483607   -0.116596
  33 C     6.0000    0    12.011  -14.447334   -1.446963    2.238948
  34 O     8.0000    0    15.999  -16.194386   -2.278065    3.638290
  35 N     7.0000    0    14.007  -13.526849    0.955257    2.634467
  36 C     6.0000    0    12.011  -14.492121    2.537524    4.699182
  37 H     1.0000    0     1.008   -7.619376    7.859182    0.251334
  38 H     1.0000    0     1.008   -7.023356    6.813597   -2.940225
  39 H     1.0000    0     1.008   -5.062954    5.685997   -0.364906
  40 H     1.0000    0     1.008   -7.838962   -0.428023   -5.208085
  41 H     1.0000    0     1.008   -6.681505    2.730087   -5.258919
  42 H     1.0000    0     1.008   -5.919756   -3.481631   -1.922229
  43 H     1.0000    0     1.008    5.465088   -4.961476    4.318780
  44 H     1.0000    0     1.008   11.920959    4.372637    1.191661
  45 H     1.0000    0     1.008   14.345856    3.644715    3.345949
  46 H     1.0000    0     1.008   17.045519   -1.977220   -0.180658
  47 H     1.0000    0     1.008   17.133391   -0.284026    2.764669
  48 H     1.0000    0     1.008   14.514042   -2.342505    2.056400
  49 H     1.0000    0     1.008   11.555675    1.814515   -2.912446
  50 H     1.0000    0     1.008   11.399584   -1.214527   -1.339438
  51 H     1.0000    0     1.008   13.808418   -0.629279   -3.632243
  52 H     1.0000    0     1.008   15.457960    4.687655   -2.127076
  53 H     1.0000    0     1.008   17.769662    3.770571    0.196343
  54 H     1.0000    0     1.008   17.514549    2.042983   -2.717237
  55 H     1.0000    0     1.008    3.701973    1.263093   -0.648176
  56 H     1.0000    0     1.008    2.237436   -7.085528    2.567571
  57 H     1.0000    0     1.008  -15.171099   -6.373101    1.677510
  58 H     1.0000    0     1.008  -16.181536   -5.336020   -1.419562
  59 H     1.0000    0     1.008  -13.118290   -6.777314   -0.948643
  60 H     1.0000    0     1.008  -13.709774    1.859491    6.525980
  61 H     1.0000    0     1.008  -13.960352    4.554429    4.439345
  62 H     1.0000    0     1.008  -16.589906    2.451731    4.764567

--------------------------------
INTERNAL COORDINATES (ANGSTROEM)
--------------------------------
 C      0   0   0     0.000000000000     0.00000000     0.00000000
 C      1   0   0     1.493915161580     0.00000000     0.00000000
 O      2   1   0     1.319108013015   123.34732368     0.00000000
 C      3   2   1     1.312333208450   107.50990542   181.68323679
 C      4   3   2     1.361237282769   111.13441089     0.05877731
 C      5   4   3     1.386651326037   106.48469439   359.57057443
 C      6   5   4     1.503261900003   128.52459728   175.47315132
 C      7   6   5     1.498713007884   110.14983067   264.49268162
 O      8   7   6     1.261247148659   119.29846859   257.72305034
 N      8   7   6     1.435477641762   120.07154059    76.47046832
 C     10   8   7     1.433331200386   123.89253281   184.60935883
 N     11  10   8     1.349826966689   124.21400281     4.13359261
 C     12  11  10     1.363681509738   112.09731441   179.24803268
 C     13  12  11     1.486987209091   121.32265625   179.88847542
 C     14  13  12     1.405609768037   121.63529842   166.99345614
 C     15  14  13     1.397025887376   120.62172110   180.14484797
 F     16  15  14     1.357480463948   119.34119914   179.96735756
 C     16  15  14     1.399450224195   120.87589765   359.31187329
 O     18  16  15     1.406060517901   117.29130255   181.02687242
 C     19  18  16     1.432374783358   127.43452817   151.99735799
 C     20  19  18     1.554151681787   112.66529355   280.65976986
 C     21  20  19     1.542248086399   110.10062335   307.85417327
 C     21  20  19     1.541500687642   111.22053564    69.23124885
 C     21  20  19     1.542621612710   108.73954622   188.62701315
 C     18  16  15     1.411534151199   118.81959377     2.03572542
 F     25  18  16     1.352230612728   121.91572169   176.17628800
 C     25  18  16     1.399172691272   120.10583538   358.26136335
 C     13  12  11     1.401113293064   114.28315278     0.15994536
 S     11  10   8     1.678356675442   123.97767436   183.23704578
 C      5   4   3     1.390888902824   119.86493001   179.35275650
 O     30   5   4     1.261014535999   120.44884202   177.91161951
 N     30   5   4     1.376563147843   118.52727957   358.31237373
 C     32  30   5     1.473384040228   119.70858485   179.23991050
 C     32  30   5     1.383826484788   120.29226510     2.60433691
 O     34  32  30     1.263512777933   119.87899013   178.60452691
 N      4   3   2     1.359491449035   126.51773654   179.92767171
 C     36   4   3     1.468251575855   120.66814441   359.38549291
 H      1   2   3     1.109875312817   109.87837550   349.54372981
 H      1   2   3     1.109658095992   110.06866973   229.71514893
 H      1   2   3     1.109597043976   109.57224415   109.09657388
 H      7   6   5     1.108528096171   110.94915644    26.33385257
 H      7   6   5     1.110912120737   109.36142065   143.70732407
 H     10   8   7     1.043941545298   118.58867579     4.28108068
 H     15  14  13     1.080338359034   121.20908314   359.18007477
 H     20  19  18     1.105622973712   112.14667374    47.79674975
 H     20  19  18     1.111503090414   106.54645150   162.17178854
 H     22  21  20     1.111407814441   110.63987811   183.63086094
 H     22  21  20     1.109707781355   110.61732243   303.43039386
 H     22  21  20     1.111346867544   110.88708972    63.83011693
 H     23  21  20     1.111272720803   110.68256187    54.09782058
 H     23  21  20     1.109187581070   111.35175031   292.64656241
 H     23  21  20     1.112275568373   110.49161653   173.75979575
 H     24  21  20     1.110763075548   110.57687751   300.57085168
 H     24  21  20     1.110317837378   110.79706329    60.73863407
 H     24  21  20     1.112023479968   110.87074777   180.60311442
 H     27  25  18     1.081384233286   118.54224106   180.03864568
 H     28  13  12     1.080924280419   127.16749901   178.67875170
 H     33  32  30     1.110081681679   111.25191405   149.54940297
 H     33  32  30     1.109246149419   109.53968110   270.39113247
 H     33  32  30     1.110618120688   111.34384602    31.19328277
 H     37  36   4     1.111144603551   109.49017119   257.79966889
 H     37  36   4     1.112304589580   111.54260631    18.34601532
 H     37  36   4     1.111566610690   110.32283551   137.37233809

---------------------------
INTERNAL COORDINATES (A.U.)
---------------------------
 C      0   0   0     0.000000000000     0.00000000     0.00000000
 C      1   0   0     2.823090522700     0.00000000     0.00000000
 O      2   1   0     2.492752885659   123.34732368     0.00000000
 C      3   2   1     2.479950360420   107.50990542   181.68323679
 C      4   3   2     2.572365667716   111.13441089     0.05877731
 C      5   4   3     2.620391249449   106.48469439   359.57057443
 C      6   5   4     2.840753298563   128.52459728   175.47315132
 C      7   6   5     2.832157138246   110.14983067   264.49268162
 O      8   7   6     2.383411698154   119.29846859   257.72305034
 N      8   7   6     2.712659614298   120.07154059    76.47046832
 C     10   8   7     2.708603427934   123.89253281   184.60935883
 N     11  10   8     2.550803295223   124.21400281     4.13359261
 C     12  11  10     2.576984587296   112.09731441   179.24803268
 C     13  12  11     2.809998589826   121.32265625   179.88847542
 C     14  13  12     2.656217512754   121.63529842   166.99345614
 C     15  14  13     2.639996329140   120.62172110   180.14484797
 F     16  15  14     2.565266309010   119.34119914   179.96735756
 C     16  15  14     2.644577661784   120.87589765   359.31187329
 O     18  16  15     2.657069306552   117.29130255   181.02687242
 C     19  18  16     2.706796061681   127.43452817   151.99735799
 C     20  19  18     2.936921049150   112.66529355   280.65976986
 C     21  20  19     2.914426513857   110.10062335   307.85417327
 C     21  20  19     2.913014134894   111.22053564    69.23124885
 C     21  20  19     2.915132376290   108.73954622   188.62701315
 C     18  16  15     2.667412974442   118.81959377     2.03572542
 F     25  18  16     2.555345527961   121.91572169   176.17628800
 C     25  18  16     2.644053200565   120.10583538   358.26136335
 C     13  12  11     2.647720406487   114.28315278     0.15994536
 S     11  10   8     3.171634471624   123.97767436   183.23704578
 C      5   4   3     2.628399109048   119.86493001   179.35275650
 O     30   5   4     2.382972123931   120.44884202   177.91161951
 N     30   5   4     2.601327355472   118.52727957   358.31237373
 C     32  30   5     2.784292326122   119.70858485   179.23991050
 C     32  30   5     2.615053073116   120.29226510     2.60433691
 O     34  32  30     2.387693117003   119.87899013   178.60452691
 N      4   3   2     2.569066520084   126.51773654   179.92767171
 C     36   4   3     2.774593374064   120.66814441   359.38549291
 H      1   2   3     2.097360384024   109.87837550   349.54372981
 H      1   2   3     2.096949903713   110.06866973   229.71514893
 H      1   2   3     2.096834532123   109.57224415   109.09657388
 H      7   6   5     2.094814513520   110.94915644    26.33385257
 H      7   6   5     2.099319667046   109.36142065   143.70732407
 H     10   8   7     1.972763620437   118.58867579     4.28108068
 H     15  14  13     2.041543630544   121.20908314   359.18007477
 H     20  19  18     2.089324627687   112.14667374    47.79674975
 H     20  19  18     2.100436437890   106.54645150   162.17178854
 H     22  21  20     2.100256392393   110.63987811   183.63086094
 H     22  21  20     2.097043795442   110.61732243   303.43039386
 H     22  21  20     2.100141219450   110.88708972    63.83011693
 H     23  21  20     2.100001102414   110.68256187    54.09782058
 H     23  21  20     2.096060759369   111.35175031   292.64656241
 H     23  21  20     2.101896209677   110.49161653   173.75979575
 H     24  21  20     2.099038012457   110.57687751   300.57085168
 H     24  21  20     2.098196634252   110.79706329    60.73863407
 H     24  21  20     2.101419831629   110.87074777   180.60311442
 H     27  25  18     2.043520046451   118.54224106   180.03864568
 H     28  13  12     2.042650861498   127.16749901   178.67875170
 H     33  32  30     2.097750364657   111.25191405   149.54940297
 H     33  32  30     2.096171437508   109.53968110   270.39113247
 H     33  32  30     2.098764087470   111.34384602    31.19328277
 H     37  36   4     2.099758995895   109.49017119   257.79966889
 H     37  36   4     2.101951051809   111.54260631    18.34601532
 H     37  36   4     2.100556473814   110.32283551   137.37233809

---------------------
BASIS SET INFORMATION
---------------------
There are 6 groups of distinct atoms

 Group   1 Type C   : 10s4p1d contracted to 3s2p1d pattern {631/31/1}
 Group   2 Type O   : 10s4p1d contracted to 3s2p1d pattern {631/31/1}
 Group   3 Type N   : 10s4p1d contracted to 3s2p1d pattern {631/31/1}
 Group   4 Type F   : 10s4p1d contracted to 3s2p1d pattern {631/31/1}
 Group   5 Type S   : 16s10p1d contracted to 4s3p1d pattern {6631/631/1}
 Group   6 Type H   : 4s contracted to 2s pattern {31}

Atom   0C    basis set group =>   1
Atom   1C    basis set group =>   1
Atom   2O    basis set group =>   2
Atom   3C    basis set group =>   1
Atom   4C    basis set group =>   1
Atom   5C    basis set group =>   1
Atom   6C    basis set group =>   1
Atom   7C    basis set group =>   1
Atom   8O    basis set group =>   2
Atom   9N    basis set group =>   3
Atom  10C    basis set group =>   1
Atom  11N    basis set group =>   3
Atom  12C    basis set group =>   1
Atom  13C    basis set group =>   1
Atom  14C    basis set group =>   1
Atom  15C    basis set group =>   1
Atom  16F    basis set group =>   4
Atom  17C    basis set group =>   1
Atom  18O    basis set group =>   2
Atom  19C    basis set group =>   1
Atom  20C    basis set group =>   1
Atom  21C    basis set group =>   1
Atom  22C    basis set group =>   1
Atom  23C    basis set group =>   1
Atom  24C    basis set group =>   1
Atom  25F    basis set group =>   4
Atom  26C    basis set group =>   1
Atom  27C    basis set group =>   1
Atom  28S    basis set group =>   5
Atom  29C    basis set group =>   1
Atom  30O    basis set group =>   2
Atom  31N    basis set group =>   3
Atom  32C    basis set group =>   1
Atom  33C    basis set group =>   1
Atom  34O    basis set group =>   2
Atom  35N    basis set group =>   3
Atom  36C    basis set group =>   1
Atom  37H    basis set group =>   6
Atom  38H    basis set group =>   6
Atom  39H    basis set group =>   6
Atom  40H    basis set group =>   6
Atom  41H    basis set group =>   6
Atom  42H    basis set group =>   6
Atom  43H    basis set group =>   6
Atom  44H    basis set group =>   6
Atom  45H    basis set group =>   6
Atom  46H    basis set group =>   6
Atom  47H    basis set group =>   6
Atom  48H    basis set group =>   6
Atom  49H    basis set group =>   6
Atom  50H    basis set group =>   6
Atom  51H    basis set group =>   6
Atom  52H    basis set group =>   6
Atom  53H    basis set group =>   6
Atom  54H    basis set group =>   6
Atom  55H    basis set group =>   6
Atom  56H    basis set group =>   6
Atom  57H    basis set group =>   6
Atom  58H    basis set group =>   6
Atom  59H    basis set group =>   6
Atom  60H    basis set group =>   6
Atom  61H    basis set group =>   6
Atom  62H    basis set group =>   6
---------------------------------
AUXILIARY/J BASIS SET INFORMATION
---------------------------------
There are 6 groups of distinct atoms

 Group   1 Type C   : 12s5p4d2f1g contracted to 6s4p3d1f1g pattern {711111/2111/211/2/1}
 Group   2 Type O   : 12s5p4d2f1g contracted to 6s4p3d1f1g pattern {711111/2111/211/2/1}
 Group   3 Type N   : 12s5p4d2f1g contracted to 6s4p3d1f1g pattern {711111/2111/211/2/1}
 Group   4 Type F   : 12s5p4d2f1g contracted to 6s4p3d1f1g pattern {711111/2111/211/2/1}
 Group   5 Type S   : 14s5p5d2f1g contracted to 8s4p3d1f1g pattern {71111111/2111/311/2/1}
 Group   6 Type H   : 5s2p1d contracted to 3s1p1d pattern {311/2/1}

Atom   0C    basis set group =>   1
Atom   1C    basis set group =>   1
Atom   2O    basis set group =>   2
Atom   3C    basis set group =>   1
Atom   4C    basis set group =>   1
Atom   5C    basis set group =>   1
Atom   6C    basis set group =>   1
Atom   7C    basis set group =>   1
Atom   8O    basis set group =>   2
Atom   9N    basis set group =>   3
Atom  10C    basis set group =>   1
Atom  11N    basis set group =>   3
Atom  12C    basis set group =>   1
Atom  13C    basis set group =>   1
Atom  14C    basis set group =>   1
Atom  15C    basis set group =>   1
Atom  16F    basis set group =>   4
Atom  17C    basis set group =>   1
Atom  18O    basis set group =>   2
Atom  19C    basis set group =>   1
Atom  20C    basis set group =>   1
Atom  21C    basis set group =>   1
Atom  22C    basis set group =>   1
Atom  23C    basis set group =>   1
Atom  24C    basis set group =>   1
Atom  25F    basis set group =>   4
Atom  26C    basis set group =>   1
Atom  27C    basis set group =>   1
Atom  28S    basis set group =>   5
Atom  29C    basis set group =>   1
Atom  30O    basis set group =>   2
Atom  31N    basis set group =>   3
Atom  32C    basis set group =>   1
Atom  33C    basis set group =>   1
Atom  34O    basis set group =>   2
Atom  35N    basis set group =>   3
Atom  36C    basis set group =>   1
Atom  37H    basis set group =>   6
Atom  38H    basis set group =>   6
Atom  39H    basis set group =>   6
Atom  40H    basis set group =>   6
Atom  41H    basis set group =>   6
Atom  42H    basis set group =>   6
Atom  43H    basis set group =>   6
Atom  44H    basis set group =>   6
Atom  45H    basis set group =>   6
Atom  46H    basis set group =>   6
Atom  47H    basis set group =>   6
Atom  48H    basis set group =>   6
Atom  49H    basis set group =>   6
Atom  50H    basis set group =>   6
Atom  51H    basis set group =>   6
Atom  52H    basis set group =>   6
Atom  53H    basis set group =>   6
Atom  54H    basis set group =>   6
Atom  55H    basis set group =>   6
Atom  56H    basis set group =>   6
Atom  57H    basis set group =>   6
Atom  58H    basis set group =>   6
Atom  59H    basis set group =>   6
Atom  60H    basis set group =>   6
Atom  61H    basis set group =>   6
Atom  62H    basis set group =>   6
------------------------------------------------------------------------------
                             ORCA STARTUP CALCULATIONS
                           -- RI-GTO INTEGRALS CHOSEN --
------------------------------------------------------------------------------
------------------------------------------------------------------------------
                   ___                                                        
                  /   \      - P O W E R E D   B Y -                         
                 /     \                                                     
                 |  |  |   _    _      __       _____    __    __             
                 |  |  |  | |  | |    /  \     |  _  \  |  |  /  |          
                  \  \/   | |  | |   /    \    | | | |  |  | /  /          
                 / \  \   | |__| |  /  /\  \   | |_| |  |  |/  /          
                |  |  |   |  __  | /  /__\  \  |    /   |      \           
                |  |  |   | |  | | |   __   |  |    \   |  |\   \          
                \     /   | |  | | |  |  |  |  | |\  \  |  | \   \       
                 \___/    |_|  |_| |__|  |__|  |_| \__\ |__|  \__/        
                                                                              
                      - O R C A' S   B I G   F R I E N D -                    
                                      &                                       
                       - I N T E G R A L  F E E D E R -                       
                                                                              
 v1 FN, 2020, v2 2021, v3 2022-2024                                           
------------------------------------------------------------------------------


----------------------
SHARK INTEGRAL PACKAGE
----------------------

Number of atoms                             ...     63
Number of basis functions                   ...    574
Number of shells                            ...    276
Maximum angular momentum                    ...      2
Integral batch strategy                     ... SHARK/LIBINT Hybrid
RI-J (if used) integral strategy            ... SPLIT-RIJ (Revised 2003 algorithm where possible)
Printlevel                                  ...      1
Contraction scheme used                     ... SEGMENTED contraction
Prescreening option                         ... SCHWARTZ
   Thresh                                   ... 1.000e-10
   Tcut                                     ... 1.000e-11
   Tpresel                                  ... 1.000e-11 
Coulomb Range Separation                    ... NOT USED
Exchange Range Separation                   ... NOT USED
Multipole approximations                    ... NOT USED
Finite Nucleus Model                        ... NOT USED
CABS basis                                  ... NOT available
Auxiliary Coulomb fitting basis             ... AVAILABLE
   # of basis functions in Aux-J            ...   2101
   # of shells in Aux-J                     ...    687
   Maximum angular momentum in Aux-J        ...      4
Auxiliary J/K fitting basis                 ... NOT available
Auxiliary Correlation fitting basis         ... NOT available
Auxiliary 'external' fitting basis          ... NOT available

Checking pre-screening integrals            ... done (  0.0 sec) Dimension = 276
Check shell pair data                       ... done (  0.0 sec)
Shell pair information
Shell pair cut-off parameter TPreSel        ...   1.0e-11
Total number of shell pairs                 ...     38226
Shell pairs after pre-screening             ...     17055
Total number of primitive shell pairs       ...    226341
Primitive shell pairs kept                  ...     53231
          la=0 lb=0:   5567 shell pairs
          la=1 lb=0:   5955 shell pairs
          la=1 lb=1:   1640 shell pairs
          la=2 lb=0:   2308 shell pairs
          la=2 lb=1:   1322 shell pairs
          la=2 lb=2:    263 shell pairs

Calculating one electron integrals          ... done (  0.2 sec)
Calculating RI/J V-Matrix + Cholesky decomp.... done (  0.6 sec)
Calculating Nuclear repulsion               ... done (  0.0 sec) ENN=   4078.549209276216 Eh

Diagonalization of the overlap matrix:
Smallest eigenvalue                        ... 3.897e-04
Time for diagonalization                   ...    0.044 sec
Threshold for overlap eigenvalues          ... 1.000e-07
Number of eigenvalues below threshold      ... 0
Time for construction of square roots      ...    0.036 sec
Total time needed                          ...    0.089 sec

-------------------
DFT GRID GENERATION
-------------------

General Integration Accuracy     IntAcc      ... 4.388
Radial Grid Type                 RadialGrid  ... OptM3 with GC (2021)
Angular Grid (max. ang.)         AngularGrid ... 4 (Lebedev-302)
Angular grid pruning method      GridPruning ... 4 (adaptive)
Weight generation scheme         WeightScheme... mBecke (2022)
Basis function cutoff            BFCut       ... 1.0000e-10
Integration weight cutoff        WCut        ... 1.0000e-14
Partially contracted basis set               ... off
Rotationally invariant grid construction     ... off
Angular grids for H and He will be reduced by one unit

Total number of grid points                  ...   305486
Total number of batches                      ...     4802
Average number of points per batch           ...       63
Average number of grid points per atom       ...     4849

--------------------
COSX GRID GENERATION
--------------------

GRIDX 1
-------
General Integration Accuracy     IntAcc      ... 3.816
Radial Grid Type                 RadialGrid  ... OptM3 with GC (2021)
Angular Grid (max. ang.)         AngularGrid ... 1 (Lebedev-50)
Angular grid pruning method      GridPruning ... 4 (adaptive)
Weight generation scheme         WeightScheme... mBecke (2022)
Basis function cutoff            BFCut       ... 1.0000e-10
Integration weight cutoff        WCut        ... 1.0000e-14
Partially contracted basis set               ... on
Rotationally invariant grid construction     ... off
Angular grids for H and He will be reduced by one unit

Total number of grid points                  ...    39735
Total number of batches                      ...      349
Average number of points per batch           ...      113
Average number of grid points per atom       ...      631
UseSFitting                                  ... on

GRIDX 2
-------
General Integration Accuracy     IntAcc      ... 4.020
Radial Grid Type                 RadialGrid  ... OptM3 with GC (2021)
Angular Grid (max. ang.)         AngularGrid ... 2 (Lebedev-110)
Angular grid pruning method      GridPruning ... 4 (adaptive)
Weight generation scheme         WeightScheme... mBecke (2022)
Basis function cutoff            BFCut       ... 1.0000e-10
Integration weight cutoff        WCut        ... 1.0000e-14
Partially contracted basis set               ... on
Rotationally invariant grid construction     ... off
Angular grids for H and He will be reduced by one unit

Total number of grid points                  ...    84198
Total number of batches                      ...      694
Average number of points per batch           ...      121
Average number of grid points per atom       ...     1336
UseSFitting                                  ... on

GRIDX 3
-------
General Integration Accuracy     IntAcc      ... 4.338
Radial Grid Type                 RadialGrid  ... OptM3 with GC (2021)
Angular Grid (max. ang.)         AngularGrid ... 3 (Lebedev-194)
Angular grid pruning method      GridPruning ... 4 (adaptive)
Weight generation scheme         WeightScheme... mBecke (2022)
Basis function cutoff            BFCut       ... 1.0000e-10
Integration weight cutoff        WCut        ... 1.0000e-14
Partially contracted basis set               ... on
Rotationally invariant grid construction     ... off
Angular grids for H and He will be reduced by one unit

Total number of grid points                  ...   184571
Total number of batches                      ...     1473
Average number of points per batch           ...      125
Average number of grid points per atom       ...     2930
UseSFitting                                  ... on
Initializing property integral containers    ... done (  0.0 sec)

SHARK setup successfully completed in  12.1 seconds

Maximum memory used throughout the entire STARTUP-calculation: 128.9 MB
-------------------------------------------------------------------------------
                                 ORCA GUESS
                   Start orbitals & Density for SCF / CASSCF
-------------------------------------------------------------------------------

------------
SCF SETTINGS
------------
Hamiltonian:
 Density Functional     Method          .... DFT(GTOs)
 Exchange Functional    Exchange        .... B88
   X-Alpha parameter    XAlpha          ....  0.666667
   Becke's b parameter  XBeta           ....  0.004200
 Correlation Functional Correlation     .... LYP
 LDA part of GGA corr.  LDAOpt          .... VWN-5
 Gradients option       PostSCFGGA      .... off
 Hybrid DFT is turned on
   Fraction HF Exchange ScalHFX         ....  0.200000
   Scaling of DF-GGA-X  ScalDFX         ....  0.720000
   Scaling of DF-GGA-C  ScalDFC         ....  0.810000
   Scaling of DF-LDA-C  ScalLDAC        ....  1.000000
   Perturbative correction              ....  0.000000
   NL short-range parameter             ....  4.800000
 RI-approximation to the Coulomb term is turned on
   Number of AuxJ basis functions       .... 2101
   RIJ-COSX (HFX calculated with COS-X)).... on


General Settings:
 Integral files         IntName         .... /home/nmrbox/aojoawo/Documents/ERDOS/inputs/CHEMBL3904770
 Hartree-Fock type      HFTyp           .... RHF
 Total Charge           Charge          ....    0
 Multiplicity           Mult            ....    1
 Number of Electrons    NEL             ....  278
 Basis Dimension        Dim             ....  574
 Nuclear Repulsion      ENuc            ....   4078.5492092762 Eh

Convergence Acceleration:
 AO-DIIS                CNVDIIS         .... on
   Start iteration      DIISMaxIt       ....    12
   Startup error        DIISStart       ....  0.200000
   # of expansion vecs  DIISMaxEq       ....     5
   Bias factor          DIISBfac        ....   1.050
   Max. coefficient     DIISMaxC        ....  10.000
 MO-DIIS                CNVKDIIS        .... off
 Trust-Rad. Augm. Hess. CNVTRAH         .... auto
   Auto Start mean grad. ratio tolernc. ....  1.125000
   Auto Start start iteration           ....    50
   Auto Start num. interpolation iter.  ....    10
   Max. Number of Micro iterations      ....    24
   Max. Number of Macro iterations      .... Maxiter - #DIIS iter
   Number of Davidson start vectors     ....     2
   Converg. threshold    (grad. norm)   ....   5.000e-05
   Grad. Scal. Fac. for Micro threshold ....   0.100
   Minimum threshold for Micro iter.    ....   1.000e-02
   NR start threshold (gradient norm)   ....   1.000e-04
   Initial trust radius                 ....   0.400
   Minimum AH scaling param. (alpha)    ....   1.000
   Maximum AH scaling param. (alpha)    .... 1000.000
   Quad. conv. algorithm                .... NR
   White noise on init. David. guess    .... on
   Maximum white noise                  ....   0.010
   Pseudo random numbers                .... off
   Inactive MOs                         .... canonical
   Orbital update algorithm             .... Taylor
   Preconditioner                       .... Diag
   Full preconditioner red. dimension   ....   250
 SOSCF                  CNVSOSCF        .... on
   Start iteration      SOSCFMaxIt      ....   150
   Startup grad/error   SOSCFStart      ....  0.003300
   Hessian update       SOSCFHessUp     .... L-BFGS
 Level Shifting         CNVShift        .... on
   Level shift para.    LevelShift      ....    0.2500
   Turn off err/grad.   ShiftErr        ....    0.0010
 Zerner damping         CNVZerner       .... off
 Static damping         CNVDamp         .... on
   Fraction old density DampFac         ....    0.7000
   Max. Damping (<1)    DampMax         ....    0.9800
   Min. Damping (>=0)   DampMin         ....    0.0000
   Turn off err/grad.   DampErr         ....    0.1000

SCF Procedure:
 Maximum # iterations   MaxIter         ....   125
 SCF integral mode      SCFMode         .... Direct
   Integral package                     .... SHARK and LIBINT hybrid scheme
 Reset frequency        DirectResetFreq ....    20
 Integral Threshold     Thresh          ....  1.000e-10 Eh
 Primitive CutOff       TCut            ....  1.000e-11 Eh

Convergence Tolerance:
 Convergence Check Mode ConvCheckMode   .... Total+1el-Energy
 Convergence forced     ConvForced      .... 0
 Energy Change          TolE            ....  1.000e-06 Eh
 1-El. energy change                    ....  1.000e-03 Eh
 Orbital Gradient       TolG            ....  5.000e-05
 Orbital Rotation angle TolX            ....  5.000e-05
 DIIS Error             TolErr          ....  1.000e-06

------------------------------
INITIAL GUESS: MODEL POTENTIAL
------------------------------
Loading Hartree-Fock densities                     ... done
Calculating cut-offs                               ... done
Initializing the effective Hamiltonian             ... done
Setting up the integral package (SHARK)            ... done
Starting the Coulomb interaction                   ... done (   2.6 sec)
Making the grid                                    ... done (   1.5 sec)
Mapping shells                                     ... done
Starting the XC term evaluation                    ... done (   1.1 sec)
  promolecular density results
     # of electrons  =    277.975711293
     EX              =   -248.775730780
     EC              =     -9.740495175
     EX+EC           =   -258.516225955
Transforming the Hamiltonian                       ... done (   0.0 sec)
Diagonalizing the Hamiltonian                      ... done (   0.0 sec)
Back transforming the eigenvectors                 ... done (   0.0 sec)
Now organizing SCF variables                       ... done
                      ------------------
                      INITIAL GUESS DONE (   5.3 sec)
                      ------------------
             **** ENERGY FILE WAS UPDATED (/home/nmrbox/aojoawo/Documents/ERDOS/inputs/CHEMBL3904770.en.tmp) ****
Finished Guess after   5.6 sec
Maximum memory used throughout the entire GUESS-calculation: 68.8 MB

-------------------------------------------------------------------------------------------
                                      ORCA LEAN-SCF
                              memory conserving SCF solver
-------------------------------------------------------------------------------------------

----------------------------------------D-I-I-S--------------------------------------------
Iteration    Energy (Eh)           Delta-E    RMSDP     MaxDP     DIISErr   Damp  Time(sec)
-------------------------------------------------------------------------------------------
               ***  Starting incremental Fock matrix formation  ***
    1    -2159.2079320999764604     0.00e+00  2.32e-03  1.15e-01  2.89e-01  0.700  50.0
    2    -2159.7046365924525162    -4.97e-01  1.42e-03  6.14e-02  1.01e-01  0.700  22.1
                               ***Turning on AO-DIIS***
    3    -2159.8690702929989129    -1.64e-01  5.48e-04  2.40e-02  3.52e-02  0.700  21.5
    4    -2159.9773449458962205    -1.08e-01  9.97e-04  6.20e-02  1.61e-02  0.000  19.4
    5    -2160.2236909467046644    -2.46e-01  2.41e-04  1.17e-02  8.60e-03  0.000  21.4
                              *** Initializing SOSCF ***
---------------------------------------S-O-S-C-F--------------------------------------
Iteration    Energy (Eh)           Delta-E    RMSDP     MaxDP     MaxGrad    Time(sec)
--------------------------------------------------------------------------------------
    6    -2160.2259196854802212    -2.23e-03  8.97e-05  4.69e-03  3.28e-03    18.1
               *** Restarting incremental Fock matrix formation ***
    7    -2160.2260974122673360    -1.78e-04  7.09e-05  2.91e-03  5.41e-04    49.9
    8    -2160.2260355316248024     6.19e-05  4.19e-05  2.22e-03  1.40e-03    28.6
    9    -2160.2261392833470381    -1.04e-04  1.02e-05  5.22e-04  8.54e-05    24.8
   10    -2160.2261379183801182     1.36e-06  5.89e-06  3.39e-04  1.97e-04    21.0
   11    -2160.2261400217585106    -2.10e-06  3.29e-06  2.14e-04  3.36e-05    17.9
   12    -2160.2261399736917156     4.81e-08  1.89e-06  1.45e-04  4.11e-05    17.6
                 **** Energy Check signals convergence ****

               *****************************************************
               *                     SUCCESS                       *
               *           SCF CONVERGED AFTER  12 CYCLES          *
               *****************************************************

Recomputing exchange energy using gridx3       ... done (   83.373 sec)
Old exchange energy                            :    -50.333275993 Eh
New exchange energy                            :    -50.333352101 Eh
Exchange energy change after final integration :     -0.000076108 Eh
Total energy after final integration           :  -2160.226216082 Eh
             **** ENERGY FILE WAS UPDATED (/home/nmrbox/aojoawo/Documents/ERDOS/inputs/CHEMBL3904770.en.tmp) ****

----------------
TOTAL SCF ENERGY
----------------

Total Energy       :      -2160.22621608199233 Eh          -58782.74380 eV

Components:
Nuclear Repulsion  :       4078.54920927621606 Eh          110982.96625 eV
Electronic Energy  :      -6238.77534924990778 Eh         -169765.70797 eV
One Electron Energy:     -11073.34285229596935 Eh         -301320.97787 eV
Two Electron Energy:       4834.56750304606157 Eh          131555.26990 eV

Virial components:
Potential Energy   :      -4308.97528377067465 Eh         -117253.17851 eV
Kinetic Energy     :       2148.74906768868277 Eh           58470.43471 eV
Virial Ratio       :          2.00534131628765

DFT components:
N(Alpha)           :      139.000063992046 electrons
N(Beta)            :      139.000063992046 electrons
N(Total)           :      278.000127984093 electrons
E(X)               :     -200.055697426479 Eh       
E(C)               :      -11.438042005488 Eh       
E(XC)              :     -211.493739431966 Eh       

---------------
SCF CONVERGENCE
---------------

  Last Energy change         ...   -4.8067e-08  Tolerance :   1.0000e-06
  Last MAX-Density change    ...    1.4510e-04  Tolerance :   1.0000e-05
  Last RMS-Density change    ...    1.8874e-06  Tolerance :   1.0000e-06
  Last DIIS Error            ...    3.2773e-03  Tolerance :   1.0000e-06
  Last Orbital Gradient      ...    4.1113e-05  Tolerance :   5.0000e-05
  Last Orbital Rotation      ...    6.8713e-05  Tolerance :   5.0000e-05


----------------
ORBITAL ENERGIES
----------------

  NO   OCC          E(Eh)            E(eV) 
   0   2.0000     -88.904145     -2419.2048 
   1   2.0000     -24.705735      -672.2772 
   2   2.0000     -24.696916      -672.0372 
   3   2.0000     -19.256179      -523.9873 
   4   2.0000     -19.162008      -521.4247 
   5   2.0000     -19.120509      -520.2955 
   6   2.0000     -19.119183      -520.2594 
   7   2.0000     -19.115382      -520.1560 
   8   2.0000     -14.420328      -392.3971 
   9   2.0000     -14.404919      -391.9778 
  10   2.0000     -14.387583      -391.5060 
  11   2.0000     -14.321873      -389.7180 
  12   2.0000     -10.337561      -281.2993 
  13   2.0000     -10.304582      -280.4019 
  14   2.0000     -10.300189      -280.2824 
  15   2.0000     -10.299596      -280.2663 
  16   2.0000     -10.286491      -279.9097 
  17   2.0000     -10.269968      -279.4600 
  18   2.0000     -10.269900      -279.4582 
  19   2.0000     -10.255435      -279.0646 
  20   2.0000     -10.254791      -279.0471 
  21   2.0000     -10.245069      -278.7825 
  22   2.0000     -10.226637      -278.2809 
  23   2.0000     -10.226004      -278.2637 
  24   2.0000     -10.224284      -278.2169 
  25   2.0000     -10.206013      -277.7197 
  26   2.0000     -10.203011      -277.6380 
  27   2.0000     -10.202726      -277.6303 
  28   2.0000     -10.201755      -277.6039 
  29   2.0000     -10.196309      -277.4557 
  30   2.0000     -10.193551      -277.3806 
  31   2.0000     -10.189585      -277.2727 
  32   2.0000     -10.187486      -277.2156 
  33   2.0000     -10.181785      -277.0605 
  34   2.0000     -10.166213      -276.6367 
  35   2.0000     -10.159636      -276.4578 
  36   2.0000     -10.157955      -276.4120 
  37   2.0000      -7.981813      -217.1962 
  38   2.0000      -5.944896      -161.7689 
  39   2.0000      -5.940788      -161.6571 
  40   2.0000      -5.938629      -161.5983 
  41   2.0000      -1.219466       -33.1834 
  42   2.0000      -1.208835       -32.8941 
  43   2.0000      -1.186473       -32.2856 
  44   2.0000      -1.075499       -29.2658 
  45   2.0000      -1.037465       -28.2309 
  46   2.0000      -1.029284       -28.0083 
  47   2.0000      -1.018387       -27.7117 
  48   2.0000      -0.982293       -26.7295 
  49   2.0000      -0.971152       -26.4264 
  50   2.0000      -0.947614       -25.7859 
  51   2.0000      -0.910455       -24.7747 
  52   2.0000      -0.861076       -23.4311 
  53   2.0000      -0.856914       -23.3178 
  54   2.0000      -0.811846       -22.0914 
  55   2.0000      -0.810252       -22.0481 
  56   2.0000      -0.808070       -21.9887 
  57   2.0000      -0.777206       -21.1489 
  58   2.0000      -0.767970       -20.8975 
  59   2.0000      -0.748116       -20.3573 
  60   2.0000      -0.746582       -20.3155 
  61   2.0000      -0.729523       -19.8513 
  62   2.0000      -0.721798       -19.6411 
  63   2.0000      -0.711362       -19.3571 
  64   2.0000      -0.678505       -18.4631 
  65   2.0000      -0.672430       -18.2978 
  66   2.0000      -0.669626       -18.2214 
  67   2.0000      -0.669025       -18.2051 
  68   2.0000      -0.636413       -17.3177 
  69   2.0000      -0.628118       -17.0920 
  70   2.0000      -0.626578       -17.0500 
  71   2.0000      -0.616216       -16.7681 
  72   2.0000      -0.607436       -16.5292 
  73   2.0000      -0.592623       -16.1261 
  74   2.0000      -0.582719       -15.8566 
  75   2.0000      -0.558220       -15.1899 
  76   2.0000      -0.542678       -14.7670 
  77   2.0000      -0.539352       -14.6765 
  78   2.0000      -0.534853       -14.5541 
  79   2.0000      -0.530444       -14.4341 
  80   2.0000      -0.517623       -14.0852 
  81   2.0000      -0.513080       -13.9616 
  82   2.0000      -0.508778       -13.8446 
  83   2.0000      -0.502778       -13.6813 
  84   2.0000      -0.492708       -13.4073 
  85   2.0000      -0.483283       -13.1508 
  86   2.0000      -0.481453       -13.1010 
  87   2.0000      -0.478610       -13.0237 
  88   2.0000      -0.474020       -12.8987 
  89   2.0000      -0.466597       -12.6967 
  90   2.0000      -0.461093       -12.5470 
  91   2.0000      -0.454610       -12.3706 
  92   2.0000      -0.449712       -12.2373 
  93   2.0000      -0.448846       -12.2137 
  94   2.0000      -0.448383       -12.2011 
  95   2.0000      -0.445847       -12.1321 
  96   2.0000      -0.440457       -11.9854 
  97   2.0000      -0.437022       -11.8920 
  98   2.0000      -0.429283       -11.6814 
  99   2.0000      -0.427113       -11.6223 
 100   2.0000      -0.425697       -11.5838 
 101   2.0000      -0.420117       -11.4320 
 102   2.0000      -0.418440       -11.3863 
 103   2.0000      -0.417215       -11.3530 
 104   2.0000      -0.411366       -11.1938 
 105   2.0000      -0.408329       -11.1112 
 106   2.0000      -0.406227       -11.0540 
 107   2.0000      -0.405442       -11.0327 
 108   2.0000      -0.395494       -10.7620 
 109   2.0000      -0.393181       -10.6990 
 110   2.0000      -0.390952       -10.6383 
 111   2.0000      -0.390339       -10.6217 
 112   2.0000      -0.380634       -10.3576 
 113   2.0000      -0.379152       -10.3173 
 114   2.0000      -0.373526       -10.1642 
 115   2.0000      -0.369855       -10.0643 
 116   2.0000      -0.368237       -10.0202 
 117   2.0000      -0.363406        -9.8888 
 118   2.0000      -0.360954        -9.8221 
 119   2.0000      -0.353682        -9.6242 
 120   2.0000      -0.353616        -9.6224 
 121   2.0000      -0.344007        -9.3609 
 122   2.0000      -0.332106        -9.0371 
 123   2.0000      -0.320458        -8.7201 
 124   2.0000      -0.317267        -8.6333 
 125   2.0000      -0.310767        -8.4564 
 126   2.0000      -0.299143        -8.1401 
 127   2.0000      -0.294266        -8.0074 
 128   2.0000      -0.292906        -7.9704 
 129   2.0000      -0.283655        -7.7186 
 130   2.0000      -0.278574        -7.5804 
 131   2.0000      -0.276614        -7.5270 
 132   2.0000      -0.275294        -7.4911 
 133   2.0000      -0.258240        -7.0271 
 134   2.0000      -0.240165        -6.5352 
 135   2.0000      -0.234171        -6.3721 
 136   2.0000      -0.231992        -6.3128 
 137   2.0000      -0.209245        -5.6939 
 138   2.0000      -0.200283        -5.4500 
 139   0.0000      -0.035032        -0.9533 
 140   0.0000      -0.028480        -0.7750 
 141   0.0000      -0.015834        -0.4309 
 142   0.0000      -0.007882        -0.2145 
 143   0.0000       0.003740         0.1018 
 144   0.0000       0.022679         0.6171 
 145   0.0000       0.025422         0.6918 
 146   0.0000       0.039493         1.0747 
 147   0.0000       0.059296         1.6135 
 148   0.0000       0.073911         2.0112 
 149   0.0000       0.082477         2.2443 
*Only the first 10 virtual orbitals were printed.

                    ********************************
                    * MULLIKEN POPULATION ANALYSIS *
                    ********************************

-----------------------
MULLIKEN ATOMIC CHARGES
-----------------------
   0 C :   -0.529687
   1 C :    0.256654
   2 O :   -0.401649
   3 C :    0.487554
   4 C :    0.031039
   5 C :    0.016305
   6 C :   -0.436151
   7 C :    0.565877
   8 O :   -0.437021
   9 N :   -0.666916
  10 C :    0.254414
  11 N :   -0.378787
  12 C :    0.217486
  13 C :    0.147470
  14 C :   -0.283669
  15 C :    0.375097
  16 F :   -0.310222
  17 C :    0.217618
  18 O :   -0.519483
  19 C :   -0.033694
  20 C :    0.089450
  21 C :   -0.435371
  22 C :   -0.453967
  23 C :   -0.445688
  24 C :    0.386058
  25 F :   -0.311592
  26 C :   -0.282400
  27 C :   -0.398075
  28 S :    0.251684
  29 C :    0.504236
  30 O :   -0.521488
  31 N :   -0.482828
  32 C :   -0.315864
  33 C :    0.676444
  34 O :   -0.503890
  35 N :   -0.501997
  36 C :   -0.329445
  37 H :    0.160635
  38 H :    0.177623
  39 H :    0.208717
  40 H :    0.199345
  41 H :    0.179990
  42 H :    0.360266
  43 H :    0.139522
  44 H :    0.148833
  45 H :    0.141502
  46 H :    0.133023
  47 H :    0.133517
  48 H :    0.154769
  49 H :    0.142953
  50 H :    0.148348
  51 H :    0.136186
  52 H :    0.138410
  53 H :    0.136120
  54 H :    0.143721
  55 H :    0.190181
  56 H :    0.182193
  57 H :    0.196462
  58 H :    0.180677
  59 H :    0.192927
  60 H :    0.189013
  61 H :    0.184306
  62 H :    0.203259
Sum of atomic charges:   -0.0000000

--------------------------------
MULLIKEN REDUCED ORBITAL CHARGES
--------------------------------
  0 C s       :     3.320063  s :     3.320063
      pz      :     1.085774  p :     3.175243
      px      :     1.076316
      py      :     1.013154
      dz2     :     0.008504  d :     0.034381
      dxz     :     0.003152
      dyz     :     0.007147
      dx2y2   :     0.007513
      dxy     :     0.008065

  1 C s       :     3.075116  s :     3.075116
      pz      :     0.838818  p :     2.595741
      px      :     0.821518
      py      :     0.935405
      dz2     :     0.015275  d :     0.072490
      dxz     :     0.017717
      dyz     :     0.011779
      dx2y2   :     0.015221
      dxy     :     0.012497

  2 O s       :     3.831665  s :     3.831665
      pz      :     1.580786  p :     4.529127
      px      :     1.453950
      py      :     1.494392
      dz2     :     0.008878  d :     0.040857
      dxz     :     0.006364
      dyz     :     0.008135
      dx2y2   :     0.010284
      dxy     :     0.007196

  3 C s       :     2.946773  s :     2.946773
      pz      :     0.922576  p :     2.470611
      px      :     0.807040
      py      :     0.740995
      dz2     :     0.018571  d :     0.095061
      dxz     :     0.013875
      dyz     :     0.017976
      dx2y2   :     0.022470
      dxy     :     0.022170

  4 C s       :     3.119065  s :     3.119065
      pz      :     0.962967  p :     2.807399
      px      :     1.009647
      py      :     0.834786
      dz2     :     0.009619  d :     0.042497
      dxz     :     0.005020
      dyz     :     0.009104
      dx2y2   :     0.008542
      dxy     :     0.010212

  5 C s       :     3.160565  s :     3.160565
      pz      :     0.902607  p :     2.779665
      px      :     0.966083
      py      :     0.910976
      dz2     :     0.007232  d :     0.043465
      dxz     :     0.007906
      dyz     :     0.010959
      dx2y2   :     0.009274
      dxy     :     0.008093

  6 C s       :     3.292067  s :     3.292067
      pz      :     1.025199  p :     3.104601
      px      :     0.984405
      py      :     1.094998
      dz2     :     0.004944  d :     0.039482
      dxz     :     0.009319
      dyz     :     0.010987
      dx2y2   :     0.007300
      dxy     :     0.006933

  7 C s       :     3.006716  s :     3.006716
      pz      :     0.793019  p :     2.328427
      px      :     0.814078
      py      :     0.721329
      dz2     :     0.008027  d :     0.098980
      dxz     :     0.014511
      dyz     :     0.016679
      dx2y2   :     0.037341
      dxy     :     0.022422

  8 O s       :     3.892834  s :     3.892834
      pz      :     1.478172  p :     4.518243
      px      :     1.477154
      py      :     1.562916
      dz2     :     0.002458  d :     0.025945
      dxz     :     0.005812
      dyz     :     0.003233
      dx2y2   :     0.006701
      dxy     :     0.007740

  9 N s       :     3.625330  s :     3.625330
      pz      :     1.539474  p :     4.013399
      px      :     1.232578
      py      :     1.241347
      dz2     :     0.005080  d :     0.028186
      dxz     :     0.003667
      dyz     :     0.004025
      dx2y2   :     0.004935
      dxy     :     0.010478

 10 C s       :     3.047163  s :     3.047163
      pz      :     0.965643  p :     2.624559
      px      :     0.806050
      py      :     0.852866
      dz2     :     0.009378  d :     0.073865
      dxz     :     0.015271
      dyz     :     0.009396
      dx2y2   :     0.022313
      dxy     :     0.017507

 11 N s       :     3.733917  s :     3.733917
      pz      :     1.189121  p :     3.605449
      px      :     0.998801
      py      :     1.417527
      dz2     :     0.005820  d :     0.039421
      dxz     :     0.005692
      dyz     :     0.008144
      dx2y2   :     0.006414
      dxy     :     0.013352

 12 C s       :     3.059204  s :     3.059204
      pz      :     0.937502  p :     2.663753
      px      :     0.880139
      py      :     0.846112
      dz2     :     0.007486  d :     0.059557
      dxz     :     0.009540
      dyz     :     0.009972
      dx2y2   :     0.016798
      dxy     :     0.015762

 13 C s       :     3.129950  s :     3.129950
      pz      :     0.913286  p :     2.682141
      px      :     0.906230
      py      :     0.862625
      dz2     :     0.007097  d :     0.040439
      dxz     :     0.007201
      dyz     :     0.006912
      dx2y2   :     0.009500
      dxy     :     0.009728

 14 C s       :     3.213192  s :     3.213192
      pz      :     1.035956  p :     3.035915
      px      :     1.008917
      py      :     0.991042
      dz2     :     0.005048  d :     0.034561
      dxz     :     0.006371
      dyz     :     0.006854
      dx2y2   :     0.009107
      dxy     :     0.007181

 15 C s       :     3.098316  s :     3.098316
      pz      :     0.834927  p :     2.455318
      px      :     0.783235
      py      :     0.837156
      dz2     :     0.012903  d :     0.071269
      dxz     :     0.014968
      dyz     :     0.011917
      dx2y2   :     0.016030
      dxy     :     0.015450

 16 F s       :     3.976074  s :     3.976074
      pz      :     1.731204  p :     5.316867
      px      :     1.759126
      py      :     1.826537
      dz2     :     0.003592  d :     0.017280
      dxz     :     0.004608
      dyz     :     0.003266
      dx2y2   :     0.002496
      dxy     :     0.003319

 17 C s       :     3.095736  s :     3.095736
      pz      :     0.994101  p :     2.622082
      px      :     0.720755
      py      :     0.907226
      dz2     :     0.008783  d :     0.064565
      dxz     :     0.013118
      dyz     :     0.008308
      dx2y2   :     0.018088
      dxy     :     0.016267

 18 O s       :     3.876670  s :     3.876670
      pz      :     1.648314  p :     4.616984
      px      :     1.348417
      py      :     1.620252
      dz2     :     0.003711  d :     0.025830
      dxz     :     0.006870
      dyz     :     0.004926
      dx2y2   :     0.005610
      dxy     :     0.004712

 19 C s       :     3.213822  s :     3.213822
      pz      :     0.936234  p :     2.756340
      px      :     0.907141
      py      :     0.912965
      dz2     :     0.006730  d :     0.063532
      dxz     :     0.017546
      dyz     :     0.014793
      dx2y2   :     0.008158
      dxy     :     0.016304

 20 C s       :     3.171996  s :     3.171996
      pz      :     0.902900  p :     2.691039
      px      :     0.891457
      py      :     0.896682
      dz2     :     0.006737  d :     0.047515
      dxz     :     0.011953
      dyz     :     0.011005
      dx2y2   :     0.005902
      dxy     :     0.011917

 21 C s       :     3.308797  s :     3.308797
      pz      :     1.036622  p :     3.092343
      px      :     1.041268
      py      :     1.014452
      dz2     :     0.002586  d :     0.034230
      dxz     :     0.010945
      dyz     :     0.008073
      dx2y2   :     0.002652
      dxy     :     0.009974

 22 C s       :     3.315263  s :     3.315263
      pz      :     1.016690  p :     3.104375
      px      :     1.033353
      py      :     1.054332
      dz2     :     0.004338  d :     0.034329
      dxz     :     0.009302
      dyz     :     0.007909
      dx2y2   :     0.001492
      dxy     :     0.011287

 23 C s       :     3.313668  s :     3.313668
      pz      :     1.045816  p :     3.097631
      px      :     1.021141
      py      :     1.030675
      dz2     :     0.002277  d :     0.034389
      dxz     :     0.010988
      dyz     :     0.008580
      dx2y2   :     0.003616
      dxy     :     0.008927

 24 C s       :     3.092533  s :     3.092533
      pz      :     0.913690  p :     2.449600
      px      :     0.890337
      py      :     0.645573
      dz2     :     0.010718  d :     0.071809
      dxz     :     0.009809
      dyz     :     0.014615
      dx2y2   :     0.018818
      dxy     :     0.017850

 25 F s       :     3.978998  s :     3.978998
      pz      :     1.839608  p :     5.315322
      px      :     1.899137
      py      :     1.576576
      dz2     :     0.002429  d :     0.017272
      dxz     :     0.001045
      dyz     :     0.005178
      dx2y2   :     0.004891
      dxy     :     0.003728

 26 C s       :     3.234770  s :     3.234770
      pz      :     1.021596  p :     3.013399
      px      :     0.960872
      py      :     1.030930
      dz2     :     0.003668  d :     0.034232
      dxz     :     0.006779
      dyz     :     0.006999
      dx2y2   :     0.008085
      dxy     :     0.008701

 27 C s       :     3.265329  s :     3.265329
      pz      :     1.135304  p :     3.098956
      px      :     0.896376
      py      :     1.067277
      dz2     :     0.003249  d :     0.033789
      dxz     :     0.005899
      dyz     :     0.006597
      dx2y2   :     0.010128
      dxy     :     0.007916

 28 S s       :     5.796296  s :     5.796296
      pz      :     3.469484  p :     9.845041
      px      :     3.169306
      py      :     3.206251
      dz2     :     0.017672  d :     0.106980
      dxz     :     0.016784
      dyz     :     0.017939
      dx2y2   :     0.037964
      dxy     :     0.016620

 29 C s       :     2.965256  s :     2.965256
      pz      :     0.743922  p :     2.421612
      px      :     0.785702
      py      :     0.891988
      dz2     :     0.024853  d :     0.108897
      dxz     :     0.022822
      dyz     :     0.022857
      dx2y2   :     0.022777
      dxy     :     0.015587

 30 O s       :     3.887734  s :     3.887734
      pz      :     1.404730  p :     4.608916
      px      :     1.583916
      py      :     1.620271
      dz2     :     0.007668  d :     0.024837
      dxz     :     0.004762
      dyz     :     0.006444
      dx2y2   :     0.002419
      dxy     :     0.003544

 31 N s       :     3.610608  s :     3.610608
      pz      :     1.290317  p :     3.834824
      px      :     1.345005
      py      :     1.199502
      dz2     :     0.006480  d :     0.037396
      dxz     :     0.006160
      dyz     :     0.009380
      dx2y2   :     0.007117
      dxy     :     0.008259

 32 C s       :     3.269149  s :     3.269149
      pz      :     1.109876  p :     3.001538
      px      :     1.057928
      py      :     0.833734
      dz2     :     0.006503  d :     0.045176
      dxz     :     0.009931
      dyz     :     0.007867
      dx2y2   :     0.009703
      dxy     :     0.011173

 33 C s       :     2.846754  s :     2.846754
      pz      :     0.794043  p :     2.354878
      px      :     0.792244
      py      :     0.768591
      dz2     :     0.027902  d :     0.121924
      dxz     :     0.018633
      dyz     :     0.022651
      dx2y2   :     0.024339
      dxy     :     0.028399

 34 O s       :     3.887920  s :     3.887920
      pz      :     1.510627  p :     4.590285
      px      :     1.397113
      py      :     1.682544
      dz2     :     0.005245  d :     0.025686
      dxz     :     0.006605
      dyz     :     0.003833
      dx2y2   :     0.005654
      dxy     :     0.004348

 35 N s       :     3.613415  s :     3.613415
      pz      :     1.319933  p :     3.848489
      px      :     1.341503
      py      :     1.187053
      dz2     :     0.008135  d :     0.040093
      dxz     :     0.007097
      dyz     :     0.008176
      dx2y2   :     0.009826
      dxy     :     0.006859

 36 C s       :     3.278918  s :     3.278918
      pz      :     0.916193  p :     3.004424
      px      :     1.097613
      py      :     0.990619
      dz2     :     0.013396  d :     0.046102
      dxz     :     0.007072
      dyz     :     0.009832
      dx2y2   :     0.010819
      dxy     :     0.004983

 37 H s       :     0.839365  s :     0.839365

 38 H s       :     0.822377  s :     0.822377

 39 H s       :     0.791283  s :     0.791283

 40 H s       :     0.800655  s :     0.800655

 41 H s       :     0.820010  s :     0.820010

 42 H s       :     0.639734  s :     0.639734

 43 H s       :     0.860478  s :     0.860478

 44 H s       :     0.851167  s :     0.851167

 45 H s       :     0.858498  s :     0.858498

 46 H s       :     0.866977  s :     0.866977

 47 H s       :     0.866483  s :     0.866483

 48 H s       :     0.845231  s :     0.845231

 49 H s       :     0.857047  s :     0.857047

 50 H s       :     0.851652  s :     0.851652

 51 H s       :     0.863814  s :     0.863814

 52 H s       :     0.861590  s :     0.861590

 53 H s       :     0.863880  s :     0.863880

 54 H s       :     0.856279  s :     0.856279

 55 H s       :     0.809819  s :     0.809819

 56 H s       :     0.817807  s :     0.817807

 57 H s       :     0.803538  s :     0.803538

 58 H s       :     0.819323  s :     0.819323

 59 H s       :     0.807073  s :     0.807073

 60 H s       :     0.810987  s :     0.810987

 61 H s       :     0.815694  s :     0.815694

 62 H s       :     0.796741  s :     0.796741



                     *******************************
                     * LOEWDIN POPULATION ANALYSIS *
                     *******************************

----------------------
LOEWDIN ATOMIC CHARGES
----------------------
   0 C :   -0.362521
   1 C :    0.029327
   2 O :    0.001178
   3 C :    0.094018
   4 C :   -0.115818
   5 C :   -0.048920
   6 C :   -0.241707
   7 C :    0.157286
   8 O :   -0.255573
   9 N :   -0.208785
  10 C :   -0.079869
  11 N :   -0.155686
  12 C :   -0.000549
  13 C :   -0.020563
  14 C :   -0.159544
  15 C :    0.103445
  16 F :   -0.095415
  17 C :    0.034812
  18 O :   -0.179942
  19 C :   -0.085296
  20 C :   -0.055420
  21 C :   -0.348356
  22 C :   -0.353781
  23 C :   -0.347366
  24 C :    0.090403
  25 F :   -0.090332
  26 C :   -0.145022
  27 C :   -0.351728
  28 S :    0.389389
  29 C :    0.109675
  30 O :   -0.319348
  31 N :   -0.027425
  32 C :   -0.260145
  33 C :    0.142482
  34 O :   -0.312411
  35 N :   -0.021742
  36 C :   -0.259578
  37 H :    0.140802
  38 H :    0.148747
  39 H :    0.161840
  40 H :    0.160736
  41 H :    0.154821
  42 H :    0.272681
  43 H :    0.142916
  44 H :    0.118684
  45 H :    0.123712
  46 H :    0.119722
  47 H :    0.120007
  48 H :    0.128809
  49 H :    0.122959
  50 H :    0.126174
  51 H :    0.121490
  52 H :    0.120876
  53 H :    0.119724
  54 H :    0.125816
  55 H :    0.166739
  56 H :    0.160124
  57 H :    0.153089
  58 H :    0.141804
  59 H :    0.151754
  60 H :    0.144550
  61 H :    0.146094
  62 H :    0.156158

-------------------------------
LOEWDIN REDUCED ORBITAL CHARGES
-------------------------------
  0 C s       :     2.970179  s :     2.970179
      pz      :     1.131937  p :     3.324736
      px      :     1.116897
      py      :     1.075902
      dz2     :     0.016157  d :     0.067605
      dxz     :     0.005566
      dyz     :     0.013903
      dx2y2   :     0.015484
      dxy     :     0.016495

  1 C s       :     2.854001  s :     2.854001
      pz      :     0.939133  p :     2.948098
      px      :     0.952047
      py      :     1.056918
      dz2     :     0.035030  d :     0.168575
      dxz     :     0.041150
      dyz     :     0.030109
      dx2y2   :     0.033273
      dxy     :     0.029013

  2 O s       :     3.389995  s :     3.389995
      pz      :     1.570255  p :     4.514867
      px      :     1.444016
      py      :     1.500597
      dz2     :     0.018428  d :     0.093960
      dxz     :     0.015730
      dyz     :     0.017002
      dx2y2   :     0.024997
      dxy     :     0.017803

  3 C s       :     2.799574  s :     2.799574
      pz      :     1.005521  p :     2.882292
      px      :     0.960252
      py      :     0.916519
      dz2     :     0.042230  d :     0.224116
      dxz     :     0.032012
      dyz     :     0.044176
      dx2y2   :     0.051771
      dxy     :     0.053928

  4 C s       :     2.837340  s :     2.837340
      pz      :     1.053146  p :     3.160885
      px      :     1.068895
      py      :     1.038844
      dz2     :     0.024441  d :     0.117594
      dxz     :     0.014439
      dyz     :     0.027329
      dx2y2   :     0.022781
      dxy     :     0.028603

  5 C s       :     2.860436  s :     2.860436
      pz      :     1.030786  p :     3.080828
      px      :     1.016506
      py      :     1.033535
      dz2     :     0.015331  d :     0.107657
      dxz     :     0.019013
      dyz     :     0.028560
      dx2y2   :     0.024390
      dxy     :     0.020363

  6 C s       :     2.927683  s :     2.927683
      pz      :     1.072430  p :     3.229989
      px      :     1.039289
      py      :     1.118270
      dz2     :     0.010265  d :     0.084036
      dxz     :     0.021261
      dyz     :     0.021912
      dx2y2   :     0.015936
      dxy     :     0.014661

  7 C s       :     2.868077  s :     2.868077
      pz      :     0.842651  p :     2.745969
      px      :     0.995292
      py      :     0.908027
      dz2     :     0.018332  d :     0.228668
      dxz     :     0.030037
      dyz     :     0.037266
      dx2y2   :     0.089527
      dxy     :     0.053506

  8 O s       :     3.593858  s :     3.593858
      pz      :     1.474484  p :     4.611007
      px      :     1.543273
      py      :     1.593250
      dz2     :     0.006498  d :     0.050708
      dxz     :     0.008165
      dyz     :     0.004817
      dx2y2   :     0.011792
      dxy     :     0.019436

  9 N s       :     3.150964  s :     3.150964
[...]
      dxz     :     0.010056
      dyz     :     0.015714
      dx2y2   :     0.004971
      dxy     :     0.006368

 31 N s       :     3.085234  s :     3.085234
      pz      :     1.295036  p :     3.844691
      px      :     1.332582
      py      :     1.217073
      dz2     :     0.016731  d :     0.097500
      dxz     :     0.017562
      dyz     :     0.024169
      dx2y2   :     0.017928
      dxy     :     0.021110

 32 C s       :     2.970826  s :     2.970826
      pz      :     1.152688  p :     3.199909
      px      :     1.113082
      py      :     0.934140
      dz2     :     0.012232  d :     0.089410
      dxz     :     0.018305
      dyz     :     0.015672
      dx2y2   :     0.020460
      dxy     :     0.022740

 33 C s       :     2.802460  s :     2.802460
      pz      :     0.923860  p :     2.772205
      px      :     0.928157
      py      :     0.920188
      dz2     :     0.062058  d :     0.282853
      dxz     :     0.045219
      dyz     :     0.052785
      dx2y2   :     0.055646
      dxy     :     0.067145

 34 O s       :     3.586581  s :     3.586581
      pz      :     1.539770  p :     4.675291
      px      :     1.443847
      py      :     1.691674
      dz2     :     0.008143  d :     0.050538
      dxz     :     0.016098
      dyz     :     0.007240
      dx2y2   :     0.009967
      dxy     :     0.009090

 35 N s       :     3.061633  s :     3.061633
      pz      :     1.312493  p :     3.856594
      px      :     1.331292
      py      :     1.212809
      dz2     :     0.019493  d :     0.103514
      dxz     :     0.017446
      dyz     :     0.021761
      dx2y2   :     0.025006
      dxy     :     0.019809

 36 C s       :     2.971434  s :     2.971434
      pz      :     1.001049  p :     3.196976
      px      :     1.135354
      py      :     1.060574
      dz2     :     0.027410  d :     0.091167
      dxz     :     0.013728
      dyz     :     0.020006
      dx2y2   :     0.020290
      dxy     :     0.009733

 37 H s       :     0.859198  s :     0.859198

 38 H s       :     0.851253  s :     0.851253

 39 H s       :     0.838160  s :     0.838160

 40 H s       :     0.839264  s :     0.839264

 41 H s       :     0.845179  s :     0.845179

 42 H s       :     0.727319  s :     0.727319

 43 H s       :     0.857084  s :     0.857084

 44 H s       :     0.881316  s :     0.881316

 45 H s       :     0.876288  s :     0.876288

 46 H s       :     0.880278  s :     0.880278

 47 H s       :     0.879993  s :     0.879993

 48 H s       :     0.871191  s :     0.871191

 49 H s       :     0.877041  s :     0.877041

 50 H s       :     0.873826  s :     0.873826

 51 H s       :     0.878510  s :     0.878510

 52 H s       :     0.879124  s :     0.879124

 53 H s       :     0.880276  s :     0.880276

 54 H s       :     0.874184  s :     0.874184

 55 H s       :     0.833261  s :     0.833261

 56 H s       :     0.839876  s :     0.839876

 57 H s       :     0.846911  s :     0.846911

 58 H s       :     0.858196  s :     0.858196

 59 H s       :     0.848246  s :     0.848246

 60 H s       :     0.855450  s :     0.855450

 61 H s       :     0.853906  s :     0.853906

 62 H s       :     0.843842  s :     0.843842



                      *****************************
                      * MAYER POPULATION ANALYSIS *
                      *****************************

  NA   - Mulliken gross atomic population
  ZA   - Total nuclear charge
  QA   - Mulliken gross atomic charge
  VA   - Mayer's total valence
  BVA  - Mayer's bonded valence
  FA   - Mayer's free valence

  ATOM       NA         ZA         QA         VA         BVA        FA
  0 C      6.5297     6.0000    -0.5297     3.8303     3.8303    -0.0000
  1 C      5.7433     6.0000     0.2567     3.7395     3.7395    -0.0000
  2 O      8.4016     8.0000    -0.4016     2.2354     2.2354     0.0000
  3 C      5.5124     6.0000     0.4876     3.6155     3.6155     0.0000
  4 C      5.9690     6.0000     0.0310     3.9008     3.9008    -0.0000
  5 C      5.9837     6.0000     0.0163     3.9478     3.9478    -0.0000
  6 C      6.4362     6.0000    -0.4362     3.7762     3.7762     0.0000
  7 C      5.4341     6.0000     0.5659     3.8961     3.8961     0.0000
  8 O      8.4370     8.0000    -0.4370     2.0740     2.0740     0.0000
  9 N      7.6669     7.0000    -0.6669     2.8984     2.8984     0.0000
 10 C      5.7456     6.0000     0.2544     3.8148     3.8148     0.0000
 11 N      7.3788     7.0000    -0.3788     2.9792     2.9792     0.0000
 12 C      5.7825     6.0000     0.2175     4.0054     4.0054     0.0000
 13 C      5.8525     6.0000     0.1475     3.9361     3.9361     0.0000
 14 C      6.2837     6.0000    -0.2837     3.8564     3.8564    -0.0000
 15 C      5.6249     6.0000     0.3751     3.7736     3.7736     0.0000
 16 F      9.3102     9.0000    -0.3102     1.0559     1.0559    -0.0000
 17 C      5.7824     6.0000     0.2176     3.7020     3.7020     0.0000
 18 O      8.5195     8.0000    -0.5195     1.9489     1.9489     0.0000
 19 C      6.0337     6.0000    -0.0337     3.7468     3.7468    -0.0000
 20 C      5.9106     6.0000     0.0894     3.9159     3.9159     0.0000
 21 C      6.4354     6.0000    -0.4354     3.8267     3.8267    -0.0000
 22 C      6.4540     6.0000    -0.4540     3.8275     3.8275    -0.0000
 23 C      6.4457     6.0000    -0.4457     3.8241     3.8241    -0.0000
 24 C      5.6139     6.0000     0.3861     3.6881     3.6881     0.0000
 25 F      9.3116     9.0000    -0.3116     1.0522     1.0522    -0.0000
 26 C      6.2824     6.0000    -0.2824     3.8476     3.8476     0.0000
 27 C      6.3981     6.0000    -0.3981     3.7542     3.7542    -0.0000
 28 S     15.7483    16.0000     0.2517     2.4624     2.4624    -0.0000
 29 C      5.4958     6.0000     0.5042     3.8577     3.8577    -0.0000
 30 O      8.5215     8.0000    -0.5215     2.0144     2.0144     0.0000
 31 N      7.4828     7.0000    -0.4828     3.0559     3.0559    -0.0000
 32 C      6.3159     6.0000    -0.3159     3.7688     3.7688    -0.0000
 33 C      5.3236     6.0000     0.6764     3.9554     3.9554    -0.0000
 34 O      8.5039     8.0000    -0.5039     2.0360     2.0360     0.0000
 35 N      7.5020     7.0000    -0.5020     3.0790     3.0790    -0.0000
 36 C      6.3294     6.0000    -0.3294     3.7715     3.7715     0.0000
 37 H      0.8394     1.0000     0.1606     0.9345     0.9345     0.0000
 38 H      0.8224     1.0000     0.1776     0.9303     0.9303     0.0000
 39 H      0.7913     1.0000     0.2087     0.9254     0.9254     0.0000
 40 H      0.8007     1.0000     0.1993     0.9356     0.9356     0.0000
 41 H      0.8200     1.0000     0.1800     0.9351     0.9351     0.0000
 42 H      0.6397     1.0000     0.3603     0.8618     0.8618     0.0000
 43 H      0.8605     1.0000     0.1395     0.9421     0.9421    -0.0000
 44 H      0.8512     1.0000     0.1488     0.9446     0.9446     0.0000
 45 H      0.8585     1.0000     0.1415     0.9364     0.9364    -0.0000
 46 H      0.8670     1.0000     0.1330     0.9404     0.9404    -0.0000
 47 H      0.8665     1.0000     0.1335     0.9416     0.9416    -0.0000
 48 H      0.8452     1.0000     0.1548     0.9448     0.9448    -0.0000
 49 H      0.8570     1.0000     0.1430     0.9447     0.9447    -0.0000
 50 H      0.8517     1.0000     0.1483     0.9423     0.9423    -0.0000
 51 H      0.8638     1.0000     0.1362     0.9410     0.9410     0.0000
 52 H      0.8616     1.0000     0.1384     0.9392     0.9392    -0.0000
 53 H      0.8639     1.0000     0.1361     0.9402     0.9402    -0.0000
 54 H      0.8563     1.0000     0.1437     0.9416     0.9416    -0.0000
 55 H      0.8098     1.0000     0.1902     0.9379     0.9379    -0.0000
 56 H      0.8178     1.0000     0.1822     0.9370     0.9370    -0.0000
 57 H      0.8035     1.0000     0.1965     0.9336     0.9336    -0.0000
 58 H      0.8193     1.0000     0.1807     0.9269     0.9269    -0.0000
 59 H      0.8071     1.0000     0.1929     0.9360     0.9360    -0.0000
 60 H      0.8110     1.0000     0.1890     0.9232     0.9232    -0.0000
 61 H      0.8157     1.0000     0.1843     0.9316     0.9316    -0.0000
 62 H      0.7967     1.0000     0.2033     0.9294     0.9294     0.0000

  Mayer bond orders larger than 0.100000
B(  0-C ,  1-C ) :   1.0409 B(  0-C , 37-H ) :   0.9347 B(  0-C , 38-H ) :   0.9304 
B(  0-C , 39-H ) :   0.9126 B(  1-C ,  2-O ) :   0.9862 B(  1-C ,  5-C ) :   1.5494 
B(  2-O ,  3-C ) :   1.0751 B(  3-C ,  4-C ) :   1.3628 B(  3-C , 35-N ) :   0.9787 
B(  4-C ,  5-C ) :   1.2784 B(  4-C , 29-C ) :   1.0910 B(  5-C ,  6-C ) :   0.9959 
B(  6-C ,  7-C ) :   0.9592 B(  6-C , 40-H ) :   0.8943 B(  6-C , 41-H ) :   0.9136 
B(  7-C ,  8-O ) :   1.8743 B(  7-C ,  9-N ) :   0.9985 B(  9-N , 10-C ) :   0.9555 
B(  9-N , 42-H ) :   0.7900 B( 10-C , 11-N ) :   1.5086 B( 10-C , 27-C ) :   0.1076 
B( 10-C , 28-S ) :   1.1405 B( 11-N , 12-C ) :   1.2679 B( 12-C , 13-C ) :   1.0603 
B( 12-C , 27-C ) :   1.5121 B( 13-C , 14-C ) :   1.3634 B( 13-C , 26-C ) :   1.3728 
B( 14-C , 15-C ) :   1.3976 B( 14-C , 43-H ) :   0.9108 B( 15-C , 16-F ) :   0.9261 
B( 15-C , 17-C ) :   1.2939 B( 17-C , 18-O ) :   0.9171 B( 17-C , 24-C ) :   1.2817 
B( 18-O , 19-C ) :   0.8859 B( 19-C , 20-C ) :   0.9696 B( 19-C , 44-H ) :   0.9122 
B( 19-C , 45-H ) :   0.9297 B( 20-C , 21-C ) :   0.9985 B( 20-C , 22-C ) :   0.9989 
B( 20-C , 23-C ) :   0.9863 B( 21-C , 46-H ) :   0.9465 B( 21-C , 47-H ) :   0.9473 
B( 21-C , 48-H ) :   0.9390 B( 22-C , 49-H ) :   0.9417 B( 22-C , 50-H ) :   0.9380 
B( 22-C , 51-H ) :   0.9454 B( 23-C , 52-H ) :   0.9452 B( 23-C , 53-H ) :   0.9448 
B( 23-C , 54-H ) :   0.9446 B( 24-C , 25-F ) :   0.8787 B( 24-C , 26-C ) :   1.3696 
B( 26-C , 55-H ) :   0.8964 B( 27-C , 28-S ) :   1.1125 B( 27-C , 56-H ) :   0.9016 
B( 29-C , 30-O ) :   1.7253 B( 29-C , 31-N ) :   0.9788 B( 31-N , 32-C ) :   0.9171 
B( 31-N , 33-C ) :   1.0386 B( 32-C , 57-H ) :   0.9259 B( 32-C , 58-H ) :   0.9401 
B( 32-C , 59-H ) :   0.9246 B( 33-C , 34-O ) :   1.7934 B( 33-C , 35-N ) :   1.0482 
B( 35-N , 36-C ) :   0.9246 B( 36-C , 60-H ) :   0.9342 B( 36-C , 61-H ) :   0.9299 
B( 36-C , 62-H ) :   0.9268 

-------
TIMINGS
-------

Total SCF time: 0 days 0 hours 6 min 36 sec 

Total time                  ....     396.267 sec
Sum of individual times     ....     395.878 sec  ( 99.9%)

SCF preparation             ....       0.339 sec  (  0.1%)
Fock matrix formation       ....     392.880 sec  ( 99.1%)
  Startup                   ....       0.118 sec  (  0.0% of F)
  Split-RI-J                ....      59.331 sec  ( 15.1% of F)
  Chain of spheres X        ....     298.078 sec  ( 75.9% of F)
  XC integration            ....      34.339 sec  (  8.7% of F)
    XC Preparation          ....       0.000 sec  (  0.0% of XC)
    Basis function eval.    ....      13.461 sec  ( 39.2% of XC)
    Density eval.           ....       7.927 sec  ( 23.1% of XC)
    XC-Functional eval.     ....       1.597 sec  (  4.7% of XC)
    XC-Potential eval.      ....       9.533 sec  ( 27.8% of XC)
Diagonalization             ....       0.000 sec  (  0.0%)
Density matrix formation    ....       0.494 sec  (  0.1%)
Total Energy calculation    ....       0.094 sec  (  0.0%)
Population analysis         ....       0.070 sec  (  0.0%)
Orbital Transformation      ....       0.206 sec  (  0.1%)
Orbital Orthonormalization  ....       0.000 sec  (  0.0%)
DIIS solution               ....       1.014 sec  (  0.3%)
SOSCF solution              ....       0.781 sec  (  0.2%)
Finished LeanSCF after 396.3 sec

Maximum memory used throughout the entire LEANSCF-calculation: 95.5 MB

-------------------------   --------------------
FINAL SINGLE POINT ENERGY     -2160.226216081992
-------------------------   --------------------


------------------------------------------------------------------------------
                              ORCA PROPERTY CALCULATIONS
------------------------------------------------------------------------------

GBWName                                 ... /home/nmrbox/aojoawo/Documents/ERDOS/inputs/CHEMBL3904770.gbw
Number of atoms                         ...     63
Number of basis functions               ...    574
Max core memory                         ...   1024 MB

Electric properties:
Dipole moment                           ... YES
Quadrupole moment                       ...  NO
Static polarizability (Dipole/Dipole)   ...  NO
Static polarizability (Dipole/Quad.)    ...  NO
Static polarizability (Quad./Quad.)     ...  NO
Static polarizability (Velocity)        ...  NO

Atomic electric properties:
Dipole moment                           ...  NO
Quadrupole moment                       ...  NO
Static polarizability                   ...  NO

Choice of electric origin               ... Center of mass
Position of electric origin             ...    -1.100978    -0.501666     0.602382

General magnetic properties:
Magnetizability                         ...  NO

EPR properties:
g-Tensor (aka g-matrix)                 ...  NO
Zero-Field splitting spin-orbit         ...  NO
Zero-field splitting spin-spin          ...  NO
Hyperfine couplings                     ...  NO (   0 nuclei)
Quadrupole couplings                    ...  NO (   0 nuclei)
Contact density                         ...  NO (   0 nuclei)

NMR properties:
Chemical shifts                         ...  NO (   0 nuclei)
Spin-rotation constants                 ...  NO (   0 nuclei)
Spin-spin couplings                     ...  NO (   0 nuclei,    0 pairs)

Choice of magnetic origin               ... GIAO
Position of magnetic origin             ...     0.000000     0.000000     0.000000

Properties with geometric perturbations:
SCF Hessian                             ...  NO
IR spectrum                             ...  NO
VCD spectrum                            ...  NO
X-ray spectroscopy properties:
SCF XES/XAS/RIXS spectra                ...  NO


-------------
DIPOLE MOMENT
-------------

Method             : SCF
Type of density    : Electron Density
Multiplicity       :   1
Irrep              :   0
Energy             : -2160.2262160819923338 Eh
Relativity type    : 
Basis              : AO
                                X                 Y                 Z
Electronic contribution:    -27.982382240     -11.640069733       8.953741940
Nuclear contribution   :     26.568607424      12.153378978      -8.812098556
                        -----------------------------------------
Total Dipole Moment    :     -1.413774817       0.513309245       0.141643385
                        -----------------------------------------
Magnitude (a.u.)       :      1.510731102
Magnitude (Debye)      :      3.839973293



--------------------
Rotational spectrum 
--------------------
 
Rotational constants in cm-1:             0.007474             0.001066             0.001019 
Rotational constants in MHz :           224.076068            31.959742            30.545610 

Dipole components along the rotational axes: 
x,y,z [a.u.] :    -1.390620     0.497356    -0.317996 
x,y,z [Debye]:    -3.534675     1.264180    -0.808282 

 

Dipole moment calculation done in   0.0 sec 

Maximum memory used throughout the entire PROP-calculation: 46.8 MB

--------------------------------
SUGGESTED CITATIONS FOR THIS RUN
--------------------------------

Below you find a list of papers that are relevant to this ORCA run
We neither can nor want to force you to cite these papers, but we appreciate if you do
You receive ORCA, which is the product of decades of hard work by many enthusiastic individuals, for free
The only thing we kindly ask in return is that you cite our papers,
We deeply appreciate it, if you show your appreciation for ORCA by not just citing the generic ORCA reference.

Please note that relegating all ORCA citations to the supporting information does *not* help us.
SI sections are not indexed - citations you put there will not count into any citation statistics
But we need these citations in order to attract the funding resources that allow us to do what we are doing

Therefore, if you are a happy ORCA user, please consider citing a few of the papers listed below in the main body of your paper

In addition to the list printed below, the program has created the file /home/nmrbox/aojoawo/Documents/ERDOS/inputs/CHEMBL3904770.bibtex that contains the list in bibtex format
You can import this file easily into all common literature databanks and citation aid programs


List of essential papers. We consider these as the minimum necessary citations

  1. Neese,F.
     Software update: the ORCA program system, version 5.0
     WIRES Comput. Molec. Sci., 2022 12(1)e1606
     doi.org/10.1002/wcms.1606

List of papers to cite with high priority. The work reported in these papers was absolutely
necessary for this run to complete.
Our perspective: the developers of density functionals and basis sets usually get cited in chemistry papers
Good! But without the algorithms to do something with them, the functionals or basis sets would not do anything.
Hence, in our opinion, the algorithm design and method developments papers are equally worthy of getting cited

  1. Neese,F.
     An improvement of the resolution of the identity approximation for the formation of the Coulomb matrix
     J. Comp. Chem., 2003 24(14)1740-1747
     doi.org/10.1002/jcc.10318
  2. Neese,F.; Wennmohs,F.; Hansen,A.; Becker,U.
     Efficient, approximate and parallel Hartree-Fock and hybrid DFT calculations. A 'chain-of-spheres' algorithm for the Hartree-Fock exchange
     Chem. Phys., 2009 356(1-3)98-109
     doi.org/10.1016/j.chemphys.2008.10.036
  3. Helmich-Paris,B.; de Souza,B.; Neese,F.; Izsák,R.
     An improved chain of spheres for exchange algorithm
     J. Chem. Phys., 2021 155 104109
     doi.org/doi: 10.1063/5.0058766.
  4. Neese,F.
     The SHARK Integral Generation and Digestion System
     J. Comp. Chem., 2022  1-16
     doi.org/10.1002/jcc.26942

List of suggested additional citations. These are papers that are important in the 'surrounding' of 
of this run, or papers that preceded the highly important papers. If you like your results we are grateful for a citation.

  1. Izsak,R.; Neese,F.
     An overlap fitted chain of spheres exchange method
     J. Chem. Phys., 2011 135 144105
     doi.org/10.1063/1.3646921
  2. Izsak,R.; Hansen,A.; Neese,F.
     The resolution of identity and chain of spheres approximations for the LPNO-CCSD singles Fock term
     Molec. Phys., 2012 110 2413-2417
     doi.org/10.1080/00268976.2012.687466
  3. Neese,F.
     The ORCA program system
     WIRES Comput. Molec. Sci., 2012 2(1)73-78
     doi.org/10.1002/wcms.81
  4. Izsak,R.; Neese,F.; Klopper,W.
     Robust fitting techniques in the chain of spheres approximation to the Fock exchange: The role of the complementary space
     J. Chem. Phys., 2013 139 
     doi.org/10.1063/1.4819264
  5. Neese,F.
     Software update: the ORCA program system, version 4.0
     WIRES Comput. Molec. Sci., 2018 8(1)1-6
     doi.org/10.1002/wcms.1327
  6. Neese,F.; Wennmohs,F.; Becker,U.; Riplinger,C.
     The ORCA quantum chemistry program package
     J. Chem. Phys., 2020 152 Art. No. L224108
     doi.org/10.1063/5.0004608

List of optional additional citations

  1. Neese,F.
     Approximate second-order SCF convergence for spin unrestricted wavefunctions
     Chem. Phys. Lett., 2000 325(1-3)93-98
     doi.org/10.1016/s0009-2614(00)00662-x

Timings for individual modules:

Sum of individual times          ...      414.454 sec (=   6.908 min)
Startup calculation              ...       12.223 sec (=   0.204 min)   2.9 %
SCF iterations                   ...      402.055 sec (=   6.701 min)  97.0 %
Property calculations            ...        0.176 sec (=   0.003 min)   0.0 %
                             ****ORCA TERMINATED NORMALLY****
TOTAL RUN TIME: 0 days 0 hours 6 minutes 55 seconds 223 msec
