
                                 *****************
                                 * O   R   C   A *
                                 *****************

                                            #,                                       
                                            ###                                      
                                            ####                                     
                                            #####                                    
                                            ######                                   
                                           ########,                                 
                                     ,,################,,,,,                         
                               ,,#################################,,                 
                          ,,##########################################,,             
                       ,#########################################, ''#####,          
                    ,#############################################,,   '####,        
                  ,##################################################,,,,####,       
                ,###########''''           ''''###############################       
              ,#####''   ,,,,##########,,,,          '''####'''          '####       
            ,##' ,,,,###########################,,,                        '##       
           ' ,,###''''                  '''############,,,                           
         ,,##''                                '''############,,,,        ,,,,,,###''
      ,#''                                            '''#######################'''  
     '                                                          ''''####''''         
             ,#######,   #######,   ,#######,      ##                                
            ,#'     '#,  ##    ##  ,#'     '#,    #''#        ,####,   ,####,        
            ##       ##  ##   ,#'  ##            #'  '#       #'       #'  '#        
            ##       ##  #######   ##           ,######,      #####,   #    #        
            '#,     ,#'  ##    ##  '#,     ,#' ,#      #,     #,   #   #,  ,#        
             '#######'   ##     ##  '#######'  #'      '#     '####' # '####'        



                #########################################################
                #                        -***-                          #
                #          Department of theory and spectroscopy        #
                #                                                       #
                #                      Frank Neese                      #
                #                                                       #
                #     Directorship, Architecture, Infrastructure        #
                #                    SHARK, DRIVERS                     #
                #        Core code/Algorithms in most modules           #
                #                                                       #
                #        Max Planck Institute fuer Kohlenforschung      #
                #                Kaiser Wilhelm Platz 1                 #
                #                 D-45470 Muelheim/Ruhr                 #
                #                      Germany                          #
                #                                                       #
                #                  All rights reserved                  #
                #                        -***-                          #
                #########################################################


                         Program Version 6.0.0  -   RELEASE  -


 With contributions from (in alphabetic order):
   Daniel Aravena         : Magnetic Suceptibility
   Michael Atanasov       : Ab Initio Ligand Field Theory (pilot matlab implementation)
   Alexander A. Auer      : GIAO ZORA, VPT2 properties, NMR spectrum
   Ute Becker             : All parallelization in ORCA, NUMFREQ, NUMCALC
   Giovanni Bistoni       : ED, misc. LED, open-shell LED, HFLD
   Martin Brehm           : Molecular dynamics
   Dmytro Bykov           : pre 5.0 version of the SCF Hessian
   Marcos Casanova-Páez   : Triplet and SCS-CIS(D). UHF-(DLPNO)-IP/EA/STEOM-CCSD. UHF-CVS-IP/STEOM-CCSD
   Vijay G. Chilkuri      : MRCI spin determinant printing, contributions to CSF-ICE
   Pauline Colinet        : FMM embedding
   Dipayan Datta          : RHF DLPNO-CCSD density
   Achintya Kumar Dutta   : EOM-CC, STEOM-CC
   Nicolas Foglia         : Exact transition moments, OPA infrastructure, MCD improvements
   Dmitry Ganyushin       : Spin-Orbit,Spin-Spin,Magnetic field MRCI
   Miquel Garcia          : C-PCM and meta-GGA Hessian, CCSD/C-PCM, Gaussian charge scheme
   Tiago L. C. Gouveia    : GS-ROHF, GS-ROCIS
   Yang Guo               : DLPNO-NEVPT2, F12-NEVPT2, CIM, IAO-localization
   Andreas Hansen         : Spin unrestricted coupled pair/coupled cluster methods
   Ingolf Harden          : AUTO-CI MPn and infrastructure 
   Benjamin Helmich-Paris : MC-RPA, TRAH-(SCF,CASSCF), AVAS, COSX integrals, SCF dyn. polar.
   Lee Huntington         : MR-EOM, pCC
   Robert Izsak           : Overlap fitted RIJCOSX, COSX-SCS-MP3, EOM
   Riya Kayal             : Wick's Theorem for AUTO-CI, AUTO-CI UHF-CCSDT
   Emily Kempfer          : AUTO-CI, RHF CISDT and CCSDT
   Christian Kollmar      : KDIIS, OOCD, Brueckner-CCSD(T), CCSD density, CASPT2, CASPT2-K, improved NEVPT2
   Axel Koslowski         : Symmetry handling
   Simone Kossmann        : Meta GGA functionals, TD-DFT gradient, OOMP2, (MP2 Hessian; deprecated post 5.0)
   Lucas Lang             : DCDCAS
   Marvin Lechner         : AUTO-CI (C++ implementation), FIC-MRCC
   Spencer Leger          : CASSCF response
   Dagmar Lenk            : GEPOL surface, SMD, ORCA-2-JSON
   Dimitrios Liakos       : Extrapolation schemes; Compound Job, initial MDCI parallelization
   Dimitrios Manganas     : Further ROCIS development; embedding schemes. LFT, Crystal Embedding
   Dimitrios Pantazis     : SARC Basis sets
   Anastasios Papadopoulos: AUTO-CI, single reference methods and gradients
   Taras Petrenko         : pre 6.0 DFT Hessian and TD-DFT gradient, (ASA, deprecated), ECA, 1-Electron XAS/XES, NRVS
   Peter Pinski           : DLPNO-MP2, DLPNO-MP2 Gradient
   Christoph Reimann      : Effective Core Potentials
   Marius Retegan         : Local ZFS, SOC
   Christoph Riplinger    : Optimizer, TS searches, QM/MM, DLPNO-CCSD(T), (RO)-DLPNO pert. Triples
   Michael Roemelt        : Original ROCIS implementation
   Masaaki Saitow         : Open-shell DLPNO-CCSD energy and density
   Barbara Sandhoefer     : DKH picture change effects
   Kantharuban Sivalingam : CASSCF convergence/infrastructure, NEVPT2 and variants, FIC-MRCI
   Bernardo de Souza      : ESD, SOC TD-DFT
   Georgi Stoychev        : AutoAux, RI-MP2 NMR, DLPNO-MP2 response, X2C
   Van Anh Tran           : RI-MP2 g-tensors
   Willem Van den Heuvel  : Paramagnetic NMR
   Zikuan Wang            : NOTCH, Electric field optimization 
   Frank Wennmohs         : Technical directorship and infrastructure
   Hang Xu                : AUTO-CI-Response properties 


 We gratefully acknowledge several colleagues who have allowed us to
 interface, adapt or use parts of their codes:
   Stefan Grimme, W. Hujo, H. Kruse, P. Pracht,  : VdW corrections, initial TS optimization,
                  C. Bannwarth, S. Ehlert,         DFT functionals, gCP, sTDA/sTD-DF
                  L. Wittmann, M. Mueller
   Ed Valeev, F. Pavosevic, A. Kumar             : LibInt (2-el integral package), F12 methods
   Garnet Chan, S. Sharma, J. Yang, R. Olivares  : DMRG
   Ulf Ekstrom                                   : XCFun DFT Library
   Mihaly Kallay                                 : mrcc  (arbitrary order and MRCC methods)
   Frank Weinhold                                : gennbo (NPA and NBO analysis)
   Simon Mueller                                 : openCOSMO-RS
   Christopher J. Cramer and Donald G. Truhlar   : smd solvation model
   Lars Goerigk                                  : TD-DFT with DH, B97 family of functionals
   V. Asgeirsson, H. Jonsson                     : NEB implementation
   FAccTs GmbH                                   : IRC, NEB, NEB-TS, DLPNO-Multilevel, CI-OPT
                                                   MM, QMMM, 2- and 3-layer-ONIOM, Crystal-QMMM,
                                                   LR-CPCM, SF, NACMEs, symmetry and pop. for TD-DFT,
                                                   nearIR, NL-DFT gradient (VV10), updates on ESD,
                                                   ML-optimized integration grids, MBIS, APM,
                                                   GOAT, DOCKER, SOLVATOR, interface openCOSMO-RS
   S Lehtola, MJT Oliveira, MAL Marques          : LibXC Library
   Liviu Ungur et al                             : ANISO software


 Your calculation uses the libint2 library for the computation of 2-el integrals
 For citations please refer to: http://libint.valeyev.net

 Your ORCA version has been built with support for libXC version: 6.2.2
 For citations please refer to: https://libxc.gitlab.io

 This ORCA versions uses:
   CBLAS   interface :  Fast vector & matrix operations
   LAPACKE interface :  Fast linear algebra routines
   SCALAPACK package :  Parallel linear algebra routines
   Shared memory     :  Shared parallel matrices
   BLAS/LAPACK       :  OpenBLAS 0.3.27  USE64BITINT DYNAMIC_ARCH NO_AFFINITY SkylakeX SINGLE_THREADED
        Core in use  :  SkylakeX
   Copyright (c) 2011-2014, The OpenBLAS Project


Warning: RI is on but no J-basis has been assigned. Assigning Def2/J (nothing to worry about!)
================================================================================

----- Orbital basis set information -----
Your calculation utilizes the basis: 6-31G*
   H-He, Li-Ne : W. J. Hehre, R. Ditchfield and J.A. Pople, J. Chem. Phys. 56, 2257 (1972).
                 Note: He and Ne are unpublished basis sets taken from the Gaussian program.
                 Note: Li and B from J. D. Dill and J. A. Pople, J. Chem. Phys. 62, 2921 (1975).
   Na - Ar     : M. M. Francl, W. J. Pietro, W. J. Hehre, J. S. Binkley, M. S. Gordon, 
                 D. J. DeFrees and J. A. Pople, J. Chem. Phys. 77, 3654 (1982).
   K - Zn      : V. A. Rassolov, J. A. Pople, M. A. Ratner, and T. L. Windus, J. Chem. Phys. 109, 1223 (1998).

----- AuxJ basis set information -----
Your calculation utilizes the auxiliary basis: def2/J
   F. Weigend, Phys. Chem. Chem. Phys. 8, 1057 (2006).

================================================================================
                                        WARNINGS
                       Please study these warnings very carefully!
================================================================================


================================================================================
                                       INPUT FILE
================================================================================
NAME = /home/nmrbox/aojoawo/Documents/ERDOS/inputs/CHEMBL2442033.inp
|  1> ! B3LYP 6-31G* SP
|  2> 
|  3> * xyz 0 1
|  4> N -5.3789 -1.2097 -0.1543
|  5> C -3.9804 -1.5826 0.0888
|  6> C -3.3825 -2.2615 -1.1717
|  7> C -2.6356 -1.2663 -2.0624
|  8> C -1.4059 -0.7081 -1.3321
|  9> C -1.6861 -0.3954 0.1639
| 10> N -0.9482 0.7959 0.6457
| 11> C -0.1640 0.6359 1.8448
| 12> O -0.6987 0.1275 2.8673
| 13> C 1.2480 1.0818 1.9082
| 14> C 1.7486 1.6067 3.1121
| 15> C 3.0749 2.0342 3.2017
| 16> C 3.9192 1.9301 2.0961
| 17> C 3.4440 1.3898 0.8993
| 18> C 2.1079 0.9525 0.7932
| 19> O 1.6103 0.3781 -0.3903
| 20> C 2.4000 -0.0661 -1.4930
| 21> C 3.2152 -1.2693 -1.1009
| 22> C 4.6005 -1.3058 -1.3388
| 23> C 5.3489 -2.4270 -0.9619
| 24> C 4.7204 -3.5196 -0.3531
| 25> C 3.3397 -3.4967 -0.1277
| 26> C 2.5881 -2.3786 -0.5034
| 27> C -0.9972 2.1677 0.0720
| 28> C -1.7399 3.1363 0.9943
| 29> C -2.7495 3.4213 -0.1074
| 30> C -2.0069 2.4782 -1.0429
| 31> C -3.1821 -0.3282 0.5445
| 32> H -5.7759 -0.8162 0.7311
| 33> H -5.9368 -2.0722 -0.3646
| 34> H -3.9539 -2.3337 0.9159
| 35> H -2.6721 -3.0602 -0.8572
| 36> H -4.1790 -2.7590 -1.7671
| 37> H -3.3197 -0.4380 -2.3504
| 38> H -2.3092 -1.7747 -2.9963
| 39> H -1.0129 0.1681 -1.8865
| 40> H -0.5956 -1.4685 -1.3874
| 41> H -1.3009 -1.2877 0.7130
| 42> H 1.1076 1.7021 3.9806
| 43> H 3.4482 2.4486 4.1299
| 44> H 4.9448 2.2688 2.1675
| 45> H 4.1241 1.3211 0.0623
| 46> H 3.0304 0.7670 -1.8733
| 47> H 1.7175 -0.3603 -2.3190
| 48> H 5.1002 -0.4668 -1.8116
| 49> H 6.4172 -2.4495 -1.1424
| 50> H 5.3023 -4.3851 -0.0596
| 51> H 2.8526 -4.3454 0.3414
| 52> H 1.5194 -2.3717 -0.3208
| 53> H 0.0173 2.5425 -0.1916
| 54> H -1.1279 4.0283 1.2526
| 55> H -2.2107 2.6478 1.8766
| 56> H -3.7652 3.0517 0.1515
| 57> H -2.7249 4.4756 -0.4524
| 58> H -1.5308 3.0326 -1.8805
| 59> H -2.6537 1.6663 -1.4107
| 60> H -3.2646 -0.2352 1.6513
| 61> H -3.6574 0.5822 0.1298
| 62> *
| 63> 
| 64>                          ****END OF INPUT****
================================================================================

                       ****************************
                       * Single Point Calculation *
                       ****************************

---------------------------------
CARTESIAN COORDINATES (ANGSTROEM)
---------------------------------
  N     -5.378900   -1.209700   -0.154300
  C     -3.980400   -1.582600    0.088800
  C     -3.382500   -2.261500   -1.171700
  C     -2.635600   -1.266300   -2.062400
  C     -1.405900   -0.708100   -1.332100
  C     -1.686100   -0.395400    0.163900
  N     -0.948200    0.795900    0.645700
  C     -0.164000    0.635900    1.844800
  O     -0.698700    0.127500    2.867300
  C      1.248000    1.081800    1.908200
  C      1.748600    1.606700    3.112100
  C      3.074900    2.034200    3.201700
  C      3.919200    1.930100    2.096100
  C      3.444000    1.389800    0.899300
  C      2.107900    0.952500    0.793200
  O      1.610300    0.378100   -0.390300
  C      2.400000   -0.066100   -1.493000
  C      3.215200   -1.269300   -1.100900
  C      4.600500   -1.305800   -1.338800
  C      5.348900   -2.427000   -0.961900
  C      4.720400   -3.519600   -0.353100
  C      3.339700   -3.496700   -0.127700
  C      2.588100   -2.378600   -0.503400
  C     -0.997200    2.167700    0.072000
  C     -1.739900    3.136300    0.994300
  C     -2.749500    3.421300   -0.107400
  C     -2.006900    2.478200   -1.042900
  C     -3.182100   -0.328200    0.544500
  H     -5.775900   -0.816200    0.731100
  H     -5.936800   -2.072200   -0.364600
  H     -3.953900   -2.333700    0.915900
  H     -2.672100   -3.060200   -0.857200
  H     -4.179000   -2.759000   -1.767100
  H     -3.319700   -0.438000   -2.350400
  H     -2.309200   -1.774700   -2.996300
  H     -1.012900    0.168100   -1.886500
  H     -0.595600   -1.468500   -1.387400
  H     -1.300900   -1.287700    0.713000
  H      1.107600    1.702100    3.980600
  H      3.448200    2.448600    4.129900
  H      4.944800    2.268800    2.167500
  H      4.124100    1.321100    0.062300
  H      3.030400    0.767000   -1.873300
  H      1.717500   -0.360300   -2.319000
  H      5.100200   -0.466800   -1.811600
  H      6.417200   -2.449500   -1.142400
  H      5.302300   -4.385100   -0.059600
  H      2.852600   -4.345400    0.341400
  H      1.519400   -2.371700   -0.320800
  H      0.017300    2.542500   -0.191600
  H     -1.127900    4.028300    1.252600
  H     -2.210700    2.647800    1.876600
  H     -3.765200    3.051700    0.151500
  H     -2.724900    4.475600   -0.452400
  H     -1.530800    3.032600   -1.880500
  H     -2.653700    1.666300   -1.410700
  H     -3.264600   -0.235200    1.651300
  H     -3.657400    0.582200    0.129800

----------------------------
CARTESIAN COORDINATES (A.U.)
----------------------------
  NO LB      ZA    FRAG     MASS         X           Y           Z
   0 N     7.0000    0    14.007  -10.164648   -2.286002   -0.291585
   1 C     6.0000    0    12.011   -7.521866   -2.990681    0.167808
   2 C     6.0000    0    12.011   -6.391999   -4.273616   -2.214192
   3 C     6.0000    0    12.011   -4.980562   -2.392960   -3.897371
   4 C     6.0000    0    12.011   -2.656766   -1.338115   -2.517304
   5 C     6.0000    0    12.011   -3.186267   -0.747198    0.309726
   6 N     7.0000    0    14.007   -1.791838    1.504033    1.220196
   7 C     6.0000    0    12.011   -0.309915    1.201677    3.486167
   8 O     8.0000    0    15.999   -1.320352    0.240940    5.418412
   9 C     6.0000    0    12.011    2.358378    2.044306    3.605975
  10 C     6.0000    0    12.011    3.304375    3.036223    5.881017
  11 C     6.0000    0    12.011    5.810719    3.844081    6.050336
  12 C     6.0000    0    12.011    7.406215    3.647360    3.961055
  13 C     6.0000    0    12.011    6.508217    2.626341    1.699431
  14 C     6.0000    0    12.011    3.983354    1.799964    1.498931
  15 O     8.0000    0    15.999    3.043026    0.714505   -0.737560
  16 C     6.0000    0    12.011    4.535343   -0.124911   -2.821361
  17 C     6.0000    0    12.011    6.075847   -2.398629   -2.080400
  18 C     6.0000    0    12.011    8.693685   -2.467604   -2.529965
  19 C     6.0000    0    12.011   10.107956   -4.586365   -1.817728
  20 C     6.0000    0    12.011    8.920263   -6.651080   -0.667262
  21 C     6.0000    0    12.011    6.311118   -6.607805   -0.241318
  22 C     6.0000    0    12.011    4.890800   -4.494903   -0.951288
  23 C     6.0000    0    12.011   -1.884435    4.096359    0.136060
  24 C     6.0000    0    12.011   -3.287935    5.926748    1.878955
  25 C     6.0000    0    12.011   -5.195802    6.465320   -0.202957
  26 C     6.0000    0    12.011   -3.792491    4.683119   -1.970795
  27 C     6.0000    0    12.011   -6.013298   -0.620208    1.028956
  28 H     1.0000    0     1.008  -10.914869   -1.542394    1.381579
  29 H     1.0000    0     1.008  -11.218926   -3.915890   -0.688994
  30 H     1.0000    0     1.008   -7.471788   -4.410054    1.730800
  31 H     1.0000    0     1.008   -5.049537   -5.782940   -1.619873
  32 H     1.0000    0     1.008   -7.897166   -5.213754   -3.339335
  33 H     1.0000    0     1.008   -6.273324   -0.827700   -4.441612
  34 H     1.0000    0     1.008   -4.363756   -3.353697   -5.662186
  35 H     1.0000    0     1.008   -1.914104    0.317663   -3.564968
  36 H     1.0000    0     1.008   -1.125521   -2.775063   -2.621806
  37 H     1.0000    0     1.008   -2.458345   -2.433400    1.347375
  38 H     1.0000    0     1.008    2.093061    3.216503    7.522244
  39 H     1.0000    0     1.008    6.516154    4.627183    7.804380
  40 H     1.0000    0     1.008    9.344318    4.287411    4.095981
  41 H     1.0000    0     1.008    7.793420    2.496517    0.117730
  42 H     1.0000    0     1.008    5.726626    1.449420   -3.540024
  43 H     1.0000    0     1.008    3.245605   -0.680868   -4.382275
  44 H     1.0000    0     1.008    9.637981   -0.882124   -3.423428
  45 H     1.0000    0     1.008   12.126751   -4.628884   -2.158823
  46 H     1.0000    0     1.008   10.019895   -8.286638   -0.112628
  47 H     1.0000    0     1.008    5.390633   -8.211616    0.645153
  48 H     1.0000    0     1.008    2.871250   -4.481863   -0.606224
  49 H     1.0000    0     1.008    0.032692    4.804629   -0.362072
  50 H     1.0000    0     1.008   -2.131422    7.612384    2.367071
  51 H     1.0000    0     1.008   -4.177618    5.003617    3.546260
  52 H     1.0000    0     1.008   -7.115197    5.766877    0.286294
  53 H     1.0000    0     1.008   -5.149315    8.457658   -0.854912
  54 H     1.0000    0     1.008   -2.892793    5.730783   -3.553630
  55 H     1.0000    0     1.008   -5.014766    3.148851   -2.665837
  56 H     1.0000    0     1.008   -6.169200   -0.444464    3.120505
  57 H     1.0000    0     1.008   -6.911484    1.100199    0.245286

--------------------------------
INTERNAL COORDINATES (ANGSTROEM)
--------------------------------
 N      0   0   0     0.000000000000     0.00000000     0.00000000
 C      1   0   0     1.467635605319     0.00000000     0.00000000
 C      2   1   0     1.551531459559   110.10953423     0.00000000
 C      3   2   1     1.530238262494   112.11096892    94.88149512
 C      4   3   2     1.535280892866   110.51945600    64.84491815
 C      5   4   3     1.553804791472   112.75017278   319.12823005
 N      6   5   4     1.481831076743   112.64588066   215.03165317
 C      7   6   5     1.441669327551   116.87710333   232.04493644
 O      8   7   6     1.260904794186   119.24611741   309.25973806
 C      8   7   6     1.482089865696   121.36031898   130.52580982
 C     10   8   7     1.405523240647   119.23029033   145.02351539
 C     11  10   8     1.396372478961   120.50331831   179.97089592
 C     12  11  10     1.395002028672   120.07676608   359.34627254
 C     13  12  11     1.396448842600   120.14245258   359.55619536
 C     14  13  12     1.409841022953   120.46425977     0.38322815
 O     15  14  13     1.406489733343   121.68729752   181.38829616
 C     16  15  14     1.427195508681   125.55518156    12.77460635
 C     17  16  15     1.505318467966   110.31436884    67.96660745
 C     18  17  16     1.406052897298   120.67920437   231.06846453
 C     19  18  17     1.399730549070   120.13355263   179.59741940
 C     20  19  18     1.399794431336   120.15013485     0.34290843
 C     21  20  19     1.399164772284   120.02369613     0.41515632
 C     22  21  20     1.398642434649   120.00643106   359.61781283
 C      7   6   5     1.487739200935   126.83458194    56.22943769
 C     24   7   6     1.529845266685   111.54961721   109.05746884
 C     25  24   7     1.521269223379    90.24084788   239.48104628
 C     26  25  24     1.521858278553    90.30014394   359.11683958
 C      6   5   4     1.545117535982   114.86692671   344.21145140
 H      1   2   3     1.047083764558   108.46406811   176.09856464
 H      1   2   3     1.048515498216   109.34389419    60.83927157
 H      2   1   3     1.117563362857   108.41817069   242.84117655
 H      3   2   1     1.114226233760   109.27118093   215.35481728
 H      3   2   1     1.111944090321   110.77835909   332.61211362
 H      4   3   2     1.112212974210   109.56317484   303.24350968
 H      4   3   2     1.112284464514   109.55335468   185.33925811
 H      5   4   3     1.108843902450   109.47216072   192.79128221
 H      5   4   3     1.112588126847   108.13203368    79.04368819
 H      6   5   4     1.116283628833   104.50742210    97.91064863
 H     11  10   8     1.083639428039   120.57670855   358.91614726
 H     12  11  10     1.082882953047   119.97272512   179.24213583
 H     13  12  11     1.082437531685   119.85614371   179.58466569
 H     14  13  12     1.080659382044   118.30935889   180.13650369
 H     17  16  15     1.111794882161   110.16996184   303.30229937
 H     17  16  15     1.111141705634   108.47549062   186.48399204
 H     19  18  17     1.084970474253   120.49246465   359.81926904
 H     20  19  18     1.083674946651   119.92526137   180.30366024
 H     21  20  19     1.083439019973   120.01343688   180.18103491
 H     22  21  20     1.085178745645   119.98548865   179.80235919
 H     23  22  21     1.084209417041   119.31026959   180.17766426
 H     24   7   6     1.113180241470   111.82373953   235.14397955
 H     25  24   7     1.112172149445   112.37509637   124.89502668
 H     25  24   7     1.112986154451   113.91524401   353.85769792
 H     26  25  24     1.111431446379   112.05501000   113.66202489
 H     26  25  24     1.109584899861   112.85923142   244.15168419
 H     27  26  25     1.111577406212   111.29175736   247.73760593
 H     27  26  25     1.101275937265   112.06014001   122.03220328
 H     28   6   5     1.113760068417   108.67110659   172.57081410
 H     28   6   5     1.107571370161   111.03973253   288.49728028

---------------------------
INTERNAL COORDINATES (A.U.)
---------------------------
 N      0   0   0     0.000000000000     0.00000000     0.00000000
 C      1   0   0     2.773429358445     0.00000000     0.00000000
 C      2   1   0     2.931969546729   110.10953423     0.00000000
 C      3   2   1     2.891731235761   112.11096892    94.88149512
 C      4   3   2     2.901260426159   110.51945600    64.84491815
 C      5   4   3     2.936265521456   112.75017278   319.12823005
 N      6   5   4     2.800254911777   112.64588066   215.03165317
 C      7   6   5     2.724360204745   116.87710333   232.04493644
 O      8   7   6     2.382764741959   119.24611741   309.25973806
 C      8   7   6     2.800743952026   121.36031898   130.52580982
 C     10   8   7     2.656053999685   119.23029033   145.02351539
 C     11  10   8     2.638761566181   120.50331831   179.97089592
 C     12  11  10     2.636171790455   120.07676608   359.34627254
 C     13  12  11     2.638905872546   120.14245258   359.55619536
 C     14  13  12     2.664213425748   120.46425977     0.38322815
 O     15  14  13     2.657880406191   121.68729752   181.38829616
 C     16  15  14     2.697008650970   125.55518156    12.77460635
 C     17  16  15     2.844639648790   110.31436884    67.96660745
 C     18  17  16     2.657054905700   120.67920437   231.06846453
 C     19  18  17     2.645107399026   120.13355263   179.59741940
 C     20  19  18     2.645228119014   120.15013485     0.34290843
 C     21  20  19     2.644038235847   120.02369613     0.41515632
 C     22  21  20     2.643051160767   120.00643106   359.61781283
 C      7   6   5     2.811419648467   126.83458194    56.22943769
 C     24   7   6     2.890988581311   111.54961721   109.05746884
 C     25  24   7     2.874782208149    90.24084788   239.48104628
 C     26  25  24     2.875895361106    90.30014394   359.11683958
 C      6   5   4     2.919848987726   114.86692671   344.21145140
 H      1   2   3     1.978701554289   108.46406811   176.09856464
 H      1   2   3     1.981407138801   109.34389419    60.83927157
 H      2   1   3     2.111888693104   108.41817069   242.84117655
 H      3   2   1     2.105582433038   109.27118093   215.35481728
 H      3   2   1     2.101269806939   110.77835909   332.61211362
 H      4   3   2     2.101777923850   109.56317484   303.24350968
 H      4   3   2     2.101913020947   109.55335468   185.33925811
 H      5   4   3     2.095411300899   109.47216072   192.79128221
 H      5   4   3     2.102486859592   108.13203368    79.04368819
 H      6   5   4     2.109470346274   104.50742210    97.91064863
 H     11  10   8     2.047781746912   120.57670855   358.91614726
 H     12  11  10     2.046352216351   119.97272512   179.24213583
 H     13  12  11     2.045510491962   119.85614371   179.58466569
 H     14  13  12     2.042150276116   118.30935889   180.13650369
 H     17  16  15     2.100987844380   110.16996184   303.30229937
 H     17  16  15     2.099753519627   108.47549062   186.48399204
 H     19  18  17     2.050297059728   120.49246465   359.81926904
 H     20  19  18     2.047848867363   119.92526137   180.30366024
 H     21  20  19     2.047403030553   120.01343688   180.18103491
 H     22  21  20     2.050690635622   119.98548865   179.80235919
 H     23  22  21     2.048858870026   119.31026959   180.17766426
 H     24   7   6     2.103605794071   111.82373953   235.14397955
 H     25  24   7     2.101700776225   112.37509637   124.89502668
 H     25  24   7     2.103239022759   113.91524401   353.85769792
 H     26  25  24     2.100301050284   112.05501000   113.66202489
 H     26  25  24     2.096811583072   112.85923142   244.15168419
 H     27  26  25     2.100576874394   111.29175736   247.73760593
 H     27  26  25     2.081109919309   112.06014001   122.03220328
 H     28   6   5     2.104701508205   108.67110659   172.57081410
 H     28   6   5     2.093006563376   111.03973253   288.49728028

---------------------
BASIS SET INFORMATION
---------------------
There are 4 groups of distinct atoms

 Group   1 Type N   : 10s4p1d contracted to 3s2p1d pattern {631/31/1}
 Group   2 Type C   : 10s4p1d contracted to 3s2p1d pattern {631/31/1}
 Group   3 Type O   : 10s4p1d contracted to 3s2p1d pattern {631/31/1}
 Group   4 Type H   : 4s contracted to 2s pattern {31}

Atom   0N    basis set group =>   1
Atom   1C    basis set group =>   2
Atom   2C    basis set group =>   2
Atom   3C    basis set group =>   2
Atom   4C    basis set group =>   2
Atom   5C    basis set group =>   2
Atom   6N    basis set group =>   1
Atom   7C    basis set group =>   2
Atom   8O    basis set group =>   3
Atom   9C    basis set group =>   2
Atom  10C    basis set group =>   2
Atom  11C    basis set group =>   2
Atom  12C    basis set group =>   2
Atom  13C    basis set group =>   2
Atom  14C    basis set group =>   2
Atom  15O    basis set group =>   3
Atom  16C    basis set group =>   2
Atom  17C    basis set group =>   2
Atom  18C    basis set group =>   2
Atom  19C    basis set group =>   2
Atom  20C    basis set group =>   2
Atom  21C    basis set group =>   2
Atom  22C    basis set group =>   2
Atom  23C    basis set group =>   2
Atom  24C    basis set group =>   2
Atom  25C    basis set group =>   2
Atom  26C    basis set group =>   2
Atom  27C    basis set group =>   2
Atom  28H    basis set group =>   4
Atom  29H    basis set group =>   4
Atom  30H    basis set group =>   4
Atom  31H    basis set group =>   4
Atom  32H    basis set group =>   4
Atom  33H    basis set group =>   4
Atom  34H    basis set group =>   4
Atom  35H    basis set group =>   4
Atom  36H    basis set group =>   4
Atom  37H    basis set group =>   4
Atom  38H    basis set group =>   4
Atom  39H    basis set group =>   4
Atom  40H    basis set group =>   4
Atom  41H    basis set group =>   4
Atom  42H    basis set group =>   4
Atom  43H    basis set group =>   4
Atom  44H    basis set group =>   4
Atom  45H    basis set group =>   4
Atom  46H    basis set group =>   4
Atom  47H    basis set group =>   4
Atom  48H    basis set group =>   4
Atom  49H    basis set group =>   4
Atom  50H    basis set group =>   4
Atom  51H    basis set group =>   4
Atom  52H    basis set group =>   4
Atom  53H    basis set group =>   4
Atom  54H    basis set group =>   4
Atom  55H    basis set group =>   4
Atom  56H    basis set group =>   4
Atom  57H    basis set group =>   4
---------------------------------
AUXILIARY/J BASIS SET INFORMATION
---------------------------------
There are 4 groups of distinct atoms

 Group   1 Type N   : 12s5p4d2f1g contracted to 6s4p3d1f1g pattern {711111/2111/211/2/1}
 Group   2 Type C   : 12s5p4d2f1g contracted to 6s4p3d1f1g pattern {711111/2111/211/2/1}
 Group   3 Type O   : 12s5p4d2f1g contracted to 6s4p3d1f1g pattern {711111/2111/211/2/1}
 Group   4 Type H   : 5s2p1d contracted to 3s1p1d pattern {311/2/1}

Atom   0N    basis set group =>   1
Atom   1C    basis set group =>   2
Atom   2C    basis set group =>   2
Atom   3C    basis set group =>   2
Atom   4C    basis set group =>   2
Atom   5C    basis set group =>   2
Atom   6N    basis set group =>   1
Atom   7C    basis set group =>   2
Atom   8O    basis set group =>   3
Atom   9C    basis set group =>   2
Atom  10C    basis set group =>   2
Atom  11C    basis set group =>   2
Atom  12C    basis set group =>   2
Atom  13C    basis set group =>   2
Atom  14C    basis set group =>   2
Atom  15O    basis set group =>   3
Atom  16C    basis set group =>   2
Atom  17C    basis set group =>   2
Atom  18C    basis set group =>   2
Atom  19C    basis set group =>   2
Atom  20C    basis set group =>   2
Atom  21C    basis set group =>   2
Atom  22C    basis set group =>   2
Atom  23C    basis set group =>   2
Atom  24C    basis set group =>   2
Atom  25C    basis set group =>   2
Atom  26C    basis set group =>   2
Atom  27C    basis set group =>   2
Atom  28H    basis set group =>   4
Atom  29H    basis set group =>   4
Atom  30H    basis set group =>   4
Atom  31H    basis set group =>   4
Atom  32H    basis set group =>   4
Atom  33H    basis set group =>   4
Atom  34H    basis set group =>   4
Atom  35H    basis set group =>   4
Atom  36H    basis set group =>   4
Atom  37H    basis set group =>   4
Atom  38H    basis set group =>   4
Atom  39H    basis set group =>   4
Atom  40H    basis set group =>   4
Atom  41H    basis set group =>   4
Atom  42H    basis set group =>   4
Atom  43H    basis set group =>   4
Atom  44H    basis set group =>   4
Atom  45H    basis set group =>   4
Atom  46H    basis set group =>   4
Atom  47H    basis set group =>   4
Atom  48H    basis set group =>   4
Atom  49H    basis set group =>   4
Atom  50H    basis set group =>   4
Atom  51H    basis set group =>   4
Atom  52H    basis set group =>   4
Atom  53H    basis set group =>   4
Atom  54H    basis set group =>   4
Atom  55H    basis set group =>   4
Atom  56H    basis set group =>   4
Atom  57H    basis set group =>   4
------------------------------------------------------------------------------
                             ORCA STARTUP CALCULATIONS
                           -- RI-GTO INTEGRALS CHOSEN --
------------------------------------------------------------------------------
------------------------------------------------------------------------------
                   ___                                                        
                  /   \      - P O W E R E D   B Y -                         
                 /     \                                                     
                 |  |  |   _    _      __       _____    __    __             
                 |  |  |  | |  | |    /  \     |  _  \  |  |  /  |          
                  \  \/   | |  | |   /    \    | | | |  |  | /  /          
                 / \  \   | |__| |  /  /\  \   | |_| |  |  |/  /          
                |  |  |   |  __  | /  /__\  \  |    /   |      \           
                |  |  |   | |  | | |   __   |  |    \   |  |\   \          
                \     /   | |  | | |  |  |  |  | |\  \  |  | \   \       
                 \___/    |_|  |_| |__|  |__|  |_| \__\ |__|  \__/        
                                                                              
                      - O R C A' S   B I G   F R I E N D -                    
                                      &                                       
                       - I N T E G R A L  F E E D E R -                       
                                                                              
 v1 FN, 2020, v2 2021, v3 2022-2024                                           
------------------------------------------------------------------------------


----------------------
SHARK INTEGRAL PACKAGE
----------------------

Number of atoms                             ...     58
Number of basis functions                   ...    452
Number of shells                            ...    228
Maximum angular momentum                    ...      2
Integral batch strategy                     ... SHARK/LIBINT Hybrid
RI-J (if used) integral strategy            ... SPLIT-RIJ (Revised 2003 algorithm where possible)
Printlevel                                  ...      1
Contraction scheme used                     ... SEGMENTED contraction
Prescreening option                         ... SCHWARTZ
   Thresh                                   ... 1.000e-10
   Tcut                                     ... 1.000e-11
   Tpresel                                  ... 1.000e-11 
Coulomb Range Separation                    ... NOT USED
Exchange Range Separation                   ... NOT USED
Multipole approximations                    ... NOT USED
Finite Nucleus Model                        ... NOT USED
CABS basis                                  ... NOT available
Auxiliary Coulomb fitting basis             ... AVAILABLE
   # of basis functions in Aux-J            ...   1702
   # of shells in Aux-J                     ...    570
   Maximum angular momentum in Aux-J        ...      4
Auxiliary J/K fitting basis                 ... NOT available
Auxiliary Correlation fitting basis         ... NOT available
Auxiliary 'external' fitting basis          ... NOT available

Checking pre-screening integrals            ... done (  0.0 sec) Dimension = 228
Check shell pair data                       ... done (  0.0 sec)
Shell pair information
Shell pair cut-off parameter TPreSel        ...   1.0e-11
Total number of shell pairs                 ...     26106
Shell pairs after pre-screening             ...     17342
Total number of primitive shell pairs       ...    146748
Primitive shell pairs kept                  ...     51104
          la=0 lb=0:   6552 shell pairs
          la=1 lb=0:   5885 shell pairs
          la=1 lb=1:   1317 shell pairs
          la=2 lb=0:   2294 shell pairs
          la=2 lb=1:   1094 shell pairs
          la=2 lb=2:    200 shell pairs

Calculating one electron integrals          ... done (  0.3 sec)
Calculating RI/J V-Matrix + Cholesky decomp.... done (  0.5 sec)
Calculating Nuclear repulsion               ... done (  0.0 sec) ENN=   2698.325045183272 Eh

Diagonalization of the overlap matrix:
Smallest eigenvalue                        ... 4.425e-04
Time for diagonalization                   ...    0.033 sec
Threshold for overlap eigenvalues          ... 1.000e-07
Number of eigenvalues below threshold      ... 0
Time for construction of square roots      ...    0.029 sec
Total time needed                          ...    0.076 sec

-------------------
DFT GRID GENERATION
-------------------

General Integration Accuracy     IntAcc      ... 4.388
Radial Grid Type                 RadialGrid  ... OptM3 with GC (2021)
Angular Grid (max. ang.)         AngularGrid ... 4 (Lebedev-302)
Angular grid pruning method      GridPruning ... 4 (adaptive)
Weight generation scheme         WeightScheme... mBecke (2022)
Basis function cutoff            BFCut       ... 1.0000e-10
Integration weight cutoff        WCut        ... 1.0000e-14
Partially contracted basis set               ... off
Rotationally invariant grid construction     ... off
Angular grids for H and He will be reduced by one unit

Total number of grid points                  ...   260892
Total number of batches                      ...     4106
Average number of points per batch           ...       63
Average number of grid points per atom       ...     4498

--------------------
COSX GRID GENERATION
--------------------

GRIDX 1
-------
General Integration Accuracy     IntAcc      ... 3.816
Radial Grid Type                 RadialGrid  ... OptM3 with GC (2021)
Angular Grid (max. ang.)         AngularGrid ... 1 (Lebedev-50)
Angular grid pruning method      GridPruning ... 4 (adaptive)
Weight generation scheme         WeightScheme... mBecke (2022)
Basis function cutoff            BFCut       ... 1.0000e-10
Integration weight cutoff        WCut        ... 1.0000e-14
Partially contracted basis set               ... on
Rotationally invariant grid construction     ... off
Angular grids for H and He will be reduced by one unit

Total number of grid points                  ...    33123
Total number of batches                      ...      293
Average number of points per batch           ...      113
Average number of grid points per atom       ...      571
UseSFitting                                  ... on

GRIDX 2
-------
General Integration Accuracy     IntAcc      ... 4.020
Radial Grid Type                 RadialGrid  ... OptM3 with GC (2021)
Angular Grid (max. ang.)         AngularGrid ... 2 (Lebedev-110)
Angular grid pruning method      GridPruning ... 4 (adaptive)
Weight generation scheme         WeightScheme... mBecke (2022)
Basis function cutoff            BFCut       ... 1.0000e-10
Integration weight cutoff        WCut        ... 1.0000e-14
Partially contracted basis set               ... on
Rotationally invariant grid construction     ... off
Angular grids for H and He will be reduced by one unit

Total number of grid points                  ...    70069
Total number of batches                      ...      576
Average number of points per batch           ...      121
Average number of grid points per atom       ...     1208
UseSFitting                                  ... on

GRIDX 3
-------
General Integration Accuracy     IntAcc      ... 4.338
Radial Grid Type                 RadialGrid  ... OptM3 with GC (2021)
Angular Grid (max. ang.)         AngularGrid ... 3 (Lebedev-194)
Angular grid pruning method      GridPruning ... 4 (adaptive)
Weight generation scheme         WeightScheme... mBecke (2022)
Basis function cutoff            BFCut       ... 1.0000e-10
Integration weight cutoff        WCut        ... 1.0000e-14
Partially contracted basis set               ... on
Rotationally invariant grid construction     ... off
Angular grids for H and He will be reduced by one unit

Total number of grid points                  ...   152325
Total number of batches                      ...     1215
Average number of points per batch           ...      125
Average number of grid points per atom       ...     2626
UseSFitting                                  ... on
Initializing property integral containers    ... done (  0.1 sec)

SHARK setup successfully completed in  15.9 seconds

Maximum memory used throughout the entire STARTUP-calculation: 113.3 MB
-------------------------------------------------------------------------------
                                 ORCA GUESS
                   Start orbitals & Density for SCF / CASSCF
-------------------------------------------------------------------------------

------------
SCF SETTINGS
------------
Hamiltonian:
 Density Functional     Method          .... DFT(GTOs)
 Exchange Functional    Exchange        .... B88
   X-Alpha parameter    XAlpha          ....  0.666667
   Becke's b parameter  XBeta           ....  0.004200
 Correlation Functional Correlation     .... LYP
 LDA part of GGA corr.  LDAOpt          .... VWN-5
 Gradients option       PostSCFGGA      .... off
 Hybrid DFT is turned on
   Fraction HF Exchange ScalHFX         ....  0.200000
   Scaling of DF-GGA-X  ScalDFX         ....  0.720000
   Scaling of DF-GGA-C  ScalDFC         ....  0.810000
   Scaling of DF-LDA-C  ScalLDAC        ....  1.000000
   Perturbative correction              ....  0.000000
   NL short-range parameter             ....  4.800000
 RI-approximation to the Coulomb term is turned on
   Number of AuxJ basis functions       .... 1702
   RIJ-COSX (HFX calculated with COS-X)).... on


General Settings:
 Integral files         IntName         .... /home/nmrbox/aojoawo/Documents/ERDOS/inputs/CHEMBL2442033
 Hartree-Fock type      HFTyp           .... RHF
 Total Charge           Charge          ....    0
 Multiplicity           Mult            ....    1
 Number of Electrons    NEL             ....  204
 Basis Dimension        Dim             ....  452
 Nuclear Repulsion      ENuc            ....   2698.3250451833 Eh

Convergence Acceleration:
 AO-DIIS                CNVDIIS         .... on
   Start iteration      DIISMaxIt       ....    12
   Startup error        DIISStart       ....  0.200000
   # of expansion vecs  DIISMaxEq       ....     5
   Bias factor          DIISBfac        ....   1.050
   Max. coefficient     DIISMaxC        ....  10.000
 MO-DIIS                CNVKDIIS        .... off
 Trust-Rad. Augm. Hess. CNVTRAH         .... auto
   Auto Start mean grad. ratio tolernc. ....  1.125000
   Auto Start start iteration           ....    50
   Auto Start num. interpolation iter.  ....    10
   Max. Number of Micro iterations      ....    24
   Max. Number of Macro iterations      .... Maxiter - #DIIS iter
   Number of Davidson start vectors     ....     2
   Converg. threshold    (grad. norm)   ....   5.000e-05
   Grad. Scal. Fac. for Micro threshold ....   0.100
   Minimum threshold for Micro iter.    ....   1.000e-02
   NR start threshold (gradient norm)   ....   1.000e-04
   Initial trust radius                 ....   0.400
   Minimum AH scaling param. (alpha)    ....   1.000
   Maximum AH scaling param. (alpha)    .... 1000.000
   Quad. conv. algorithm                .... NR
   White noise on init. David. guess    .... on
   Maximum white noise                  ....   0.010
   Pseudo random numbers                .... off
   Inactive MOs                         .... canonical
   Orbital update algorithm             .... Taylor
   Preconditioner                       .... Diag
   Full preconditioner red. dimension   ....   250
 SOSCF                  CNVSOSCF        .... on
   Start iteration      SOSCFMaxIt      ....   150
   Startup grad/error   SOSCFStart      ....  0.003300
   Hessian update       SOSCFHessUp     .... L-BFGS
 Level Shifting         CNVShift        .... on
   Level shift para.    LevelShift      ....    0.2500
   Turn off err/grad.   ShiftErr        ....    0.0010
 Zerner damping         CNVZerner       .... off
 Static damping         CNVDamp         .... on
   Fraction old density DampFac         ....    0.7000
   Max. Damping (<1)    DampMax         ....    0.9800
   Min. Damping (>=0)   DampMin         ....    0.0000
   Turn off err/grad.   DampErr         ....    0.1000

SCF Procedure:
 Maximum # iterations   MaxIter         ....   125
 SCF integral mode      SCFMode         .... Direct
   Integral package                     .... SHARK and LIBINT hybrid scheme
 Reset frequency        DirectResetFreq ....    20
 Integral Threshold     Thresh          ....  1.000e-10 Eh
 Primitive CutOff       TCut            ....  1.000e-11 Eh

Convergence Tolerance:
 Convergence Check Mode ConvCheckMode   .... Total+1el-Energy
 Convergence forced     ConvForced      .... 0
 Energy Change          TolE            ....  1.000e-06 Eh
 1-El. energy change                    ....  1.000e-03 Eh
 Orbital Gradient       TolG            ....  5.000e-05
 Orbital Rotation angle TolX            ....  5.000e-05
 DIIS Error             TolErr          ....  1.000e-06

------------------------------
INITIAL GUESS: MODEL POTENTIAL
------------------------------
Loading Hartree-Fock densities                     ... done
Calculating cut-offs                               ... done
Initializing the effective Hamiltonian             ... done
Setting up the integral package (SHARK)            ... done
Starting the Coulomb interaction                   ... done (   4.6 sec)
Making the grid                                    ... done (   1.8 sec)
Mapping shells                                     ... done
Starting the XC term evaluation                    ... done (   1.5 sec)
  promolecular density results
     # of electrons  =    203.994166721
     EX              =   -161.809296772
     EC              =     -6.849967581
     EX+EC           =   -168.659264354
Transforming the Hamiltonian                       ... done (   0.0 sec)
Diagonalizing the Hamiltonian                      ... done (   0.0 sec)
Back transforming the eigenvectors                 ... done (   0.0 sec)
Now organizing SCF variables                       ... done
                      ------------------
                      INITIAL GUESS DONE (   8.0 sec)
                      ------------------
             **** ENERGY FILE WAS UPDATED (/home/nmrbox/aojoawo/Documents/ERDOS/inputs/CHEMBL2442033.en.tmp) ****
Finished Guess after   8.4 sec
Maximum memory used throughout the entire GUESS-calculation: 60.5 MB

-------------------------------------------------------------------------------------------
                                      ORCA LEAN-SCF
                              memory conserving SCF solver
-------------------------------------------------------------------------------------------

----------------------------------------D-I-I-S--------------------------------------------
Iteration    Energy (Eh)           Delta-E    RMSDP     MaxDP     DIISErr   Damp  Time(sec)
-------------------------------------------------------------------------------------------
               ***  Starting incremental Fock matrix formation  ***
    1    -1190.9706030084566919     0.00e+00  2.10e-03  9.94e-02  2.62e-01  0.700  72.0
    2    -1191.3156879230605227    -3.45e-01  1.49e-03  5.55e-02  1.14e-01  0.700  32.9
                               ***Turning on AO-DIIS***
    3    -1191.4518198991959252    -1.36e-01  6.28e-04  1.67e-02  3.12e-02  0.700  31.3
    4    -1191.5332524581490361    -8.14e-02  9.77e-04  2.50e-02  1.61e-02  0.000  26.8
    5    -1191.7116667852915270    -1.78e-01  2.33e-04  8.05e-03  9.85e-03  0.000  30.8
    6    -1191.7129214886699629    -1.25e-03  8.03e-05  3.24e-03  3.69e-03  0.000  26.3
                              *** Initializing SOSCF ***
---------------------------------------S-O-S-C-F--------------------------------------
Iteration    Energy (Eh)           Delta-E    RMSDP     MaxDP     MaxGrad    Time(sec)
--------------------------------------------------------------------------------------
    7    -1191.7130148473429472    -9.34e-05  2.57e-05  1.25e-03  2.07e-03    23.3
               *** Restarting incremental Fock matrix formation ***
    8    -1191.7130273890993521    -1.25e-05  2.08e-05  5.70e-04  9.75e-05    71.9
    9    -1191.7130259159339403     1.47e-06  1.03e-05  4.95e-04  3.06e-04    35.5
   10    -1191.7130294005610267    -3.48e-06  6.77e-06  3.94e-04  7.87e-05    28.7
   11    -1191.7130290600330227     3.41e-07  4.27e-06  2.57e-04  8.73e-05    27.7
                 **** Energy Check signals convergence ****

               *****************************************************
               *                     SUCCESS                       *
               *           SCF CONVERGED AFTER  11 CYCLES          *
               *****************************************************

Recomputing exchange energy using gridx3       ... done (  124.535 sec)
Old exchange energy                            :    -32.963050013 Eh
New exchange energy                            :    -32.963016050 Eh
Exchange energy change after final integration :      0.000033964 Eh
Total energy after final integration           :  -1191.712995096 Eh
             **** ENERGY FILE WAS UPDATED (/home/nmrbox/aojoawo/Documents/ERDOS/inputs/CHEMBL2442033.en.tmp) ****

----------------
TOTAL SCF ENERGY
----------------

Total Energy       :      -1191.71299509636992 Eh          -32428.15921 eV

Components:
Nuclear Repulsion  :       2698.32504518327187 Eh           73425.15734 eV
Electronic Energy  :      -3890.03807424330489 Eh         -105853.31748 eV
One Electron Energy:      -6984.66504790099225 Eh         -190062.39854 eV
Two Electron Energy:       3094.62697365768736 Eh           84209.08106 eV

Virial components:
Potential Energy   :      -2375.85795780960234 Eh          -64650.38179 eV
Kinetic Energy     :       1184.14496271323242 Eh           32222.22258 eV
Virial Ratio       :          2.00639113674545

DFT components:
N(Alpha)           :      102.000097878103 electrons
N(Beta)            :      102.000097878103 electrons
N(Total)           :      204.000195756206 electrons
E(X)               :     -130.817727013952 Eh       
E(C)               :       -8.065577724682 Eh       
E(XC)              :     -138.883304738634 Eh       

---------------
SCF CONVERGENCE
---------------

  Last Energy change         ...   -3.4053e-07  Tolerance :   1.0000e-06
  Last MAX-Density change    ...    2.5705e-04  Tolerance :   1.0000e-05
  Last RMS-Density change    ...    4.2700e-06  Tolerance :   1.0000e-06
  Last DIIS Error            ...    2.0672e-03  Tolerance :   1.0000e-06
  Last Orbital Gradient      ...    8.7321e-05  Tolerance :   5.0000e-05
  Last Orbital Rotation      ...    1.9227e-04  Tolerance :   5.0000e-05


----------------
ORBITAL ENERGIES
----------------

  NO   OCC          E(Eh)            E(eV) 
   0   2.0000     -19.167371      -521.5707 
   1   2.0000     -19.102533      -519.8064 
   2   2.0000     -14.316108      -389.5611 
   3   2.0000     -14.297260      -389.0482 
   4   2.0000     -10.271113      -279.4912 
   5   2.0000     -10.253979      -279.0249 
   6   2.0000     -10.245484      -278.7938 
   7   2.0000     -10.207066      -277.7484 
   8   2.0000     -10.203620      -277.6546 
   9   2.0000     -10.195618      -277.4369 
  10   2.0000     -10.192997      -277.3656 
  11   2.0000     -10.190266      -277.2912 
  12   2.0000     -10.187962      -277.2285 
  13   2.0000     -10.186967      -277.2015 
  14   2.0000     -10.185271      -277.1553 
  15   2.0000     -10.185185      -277.1530 
  16   2.0000     -10.184519      -277.1348 
  17   2.0000     -10.183837      -277.1163 
  18   2.0000     -10.183639      -277.1109 
  19   2.0000     -10.183625      -277.1105 
  20   2.0000     -10.176913      -276.9279 
  21   2.0000     -10.167289      -276.6660 
  22   2.0000     -10.165935      -276.6292 
  23   2.0000     -10.165525      -276.6180 
  24   2.0000     -10.165346      -276.6131 
  25   2.0000     -10.161008      -276.4951 
  26   2.0000     -10.157546      -276.4009 
  27   2.0000     -10.155952      -276.3575 
  28   2.0000      -1.047631       -28.5075 
  29   2.0000      -0.997433       -27.1415 
  30   2.0000      -0.897138       -24.4124 
  31   2.0000      -0.868596       -23.6357 
  32   2.0000      -0.855385       -23.2762 
  33   2.0000      -0.847774       -23.0691 
  34   2.0000      -0.827507       -22.5176 
  35   2.0000      -0.790195       -21.5023 
  36   2.0000      -0.775920       -21.1139 
  37   2.0000      -0.753893       -20.5145 
  38   2.0000      -0.744285       -20.2530 
  39   2.0000      -0.738283       -20.0897 
  40   2.0000      -0.720500       -19.6058 
  41   2.0000      -0.701701       -19.0943 
  42   2.0000      -0.683451       -18.5977 
  43   2.0000      -0.651567       -17.7301 
  44   2.0000      -0.646245       -17.5852 
  45   2.0000      -0.630713       -17.1626 
  46   2.0000      -0.608448       -16.5567 
  47   2.0000      -0.603863       -16.4319 
  48   2.0000      -0.601915       -16.3789 
  49   2.0000      -0.582488       -15.8503 
  50   2.0000      -0.577824       -15.7234 
  51   2.0000      -0.549502       -14.9527 
  52   2.0000      -0.530392       -14.4327 
  53   2.0000      -0.519896       -14.1471 
  54   2.0000      -0.512588       -13.9482 
  55   2.0000      -0.510599       -13.8941 
  56   2.0000      -0.497150       -13.5281 
  57   2.0000      -0.480688       -13.0802 
  58   2.0000      -0.476530       -12.9670 
  59   2.0000      -0.474009       -12.8984 
  60   2.0000      -0.469311       -12.7706 
  61   2.0000      -0.466432       -12.6923 
  62   2.0000      -0.458883       -12.4868 
  63   2.0000      -0.453731       -12.3466 
  64   2.0000      -0.448807       -12.2127 
  65   2.0000      -0.437821       -11.9137 
  66   2.0000      -0.434663       -11.8278 
  67   2.0000      -0.429668       -11.6919 
  68   2.0000      -0.423525       -11.5247 
  69   2.0000      -0.418967       -11.4007 
  70   2.0000      -0.416338       -11.3291 
  71   2.0000      -0.405731       -11.0405 
  72   2.0000      -0.399393       -10.8680 
  73   2.0000      -0.390918       -10.6374 
  74   2.0000      -0.385713       -10.4958 
  75   2.0000      -0.379172       -10.3178 
  76   2.0000      -0.374414       -10.1883 
  77   2.0000      -0.366972        -9.9858 
  78   2.0000      -0.361385        -9.8338 
  79   2.0000      -0.358764        -9.7625 
  80   2.0000      -0.357682        -9.7330 
  81   2.0000      -0.354401        -9.6438 
  82   2.0000      -0.349876        -9.5206 
  83   2.0000      -0.346615        -9.4319 
  84   2.0000      -0.344875        -9.3845 
  85   2.0000      -0.341256        -9.2861 
  86   2.0000      -0.332900        -9.0587 
  87   2.0000      -0.320292        -8.7156 
  88   2.0000      -0.315401        -8.5825 
  89   2.0000      -0.311555        -8.4779 
  90   2.0000      -0.303943        -8.2707 
  91   2.0000      -0.298350        -8.1185 
  92   2.0000      -0.295875        -8.0512 
  93   2.0000      -0.290868        -7.9149 
  94   2.0000      -0.286810        -7.8045 
  95   2.0000      -0.253414        -6.8957 
  96   2.0000      -0.249727        -6.7954 
  97   2.0000      -0.244238        -6.6461 
  98   2.0000      -0.231274        -6.2933 
  99   2.0000      -0.221508        -6.0275 
 100   2.0000      -0.219737        -5.9793 
 101   2.0000      -0.190580        -5.1860 
 102   0.0000      -0.035566        -0.9678 
 103   0.0000      -0.008867        -0.2413 
 104   0.0000      -0.002585        -0.0703 
 105   0.0000       0.008385         0.2282 
 106   0.0000       0.044730         1.2172 
 107   0.0000       0.066071         1.7979 
 108   0.0000       0.078197         2.1278 
 109   0.0000       0.081971         2.2305 
 110   0.0000       0.086420         2.3516 
 111   0.0000       0.091010         2.4765 
 112   0.0000       0.102931         2.8009 
*Only the first 10 virtual orbitals were printed.

                    ********************************
                    * MULLIKEN POPULATION ANALYSIS *
                    ********************************

-----------------------
MULLIKEN ATOMIC CHARGES
-----------------------
   0 N :   -0.720809
   1 C :    0.050302
   2 C :   -0.261552
   3 C :   -0.265932
   4 C :   -0.283261
   5 C :    0.049219
   6 N :   -0.432653
   7 C :    0.439354
   8 O :   -0.464567
   9 C :    0.037470
  10 C :   -0.150241
  11 C :   -0.137642
  12 C :   -0.115628
  13 C :   -0.192719
  14 C :    0.334327
  15 O :   -0.513079
  16 C :   -0.110366
  17 C :    0.122184
  18 C :   -0.175515
  19 C :   -0.125625
  20 C :   -0.123991
  21 C :   -0.124765
  22 C :   -0.161723
  23 C :    0.037297
  24 C :   -0.268229
  25 C :   -0.276645
  26 C :   -0.295139
  27 C :   -0.295941
  28 H :    0.287554
  29 H :    0.283826
  30 H :    0.102136
  31 H :    0.121852
  32 H :    0.126680
  33 H :    0.149060
  34 H :    0.123552
  35 H :    0.148529
  36 H :    0.128877
  37 H :    0.145090
  38 H :    0.157243
  39 H :    0.128729
  40 H :    0.133399
  41 H :    0.133614
  42 H :    0.137537
  43 H :    0.168816
  44 H :    0.122824
  45 H :    0.129138
  46 H :    0.130141
  47 H :    0.133733
  48 H :    0.147334
  49 H :    0.135663
  50 H :    0.127561
  51 H :    0.158052
  52 H :    0.141514
  53 H :    0.131216
  54 H :    0.133928
  55 H :    0.160653
  56 H :    0.156025
  57 H :    0.141596
Sum of atomic charges:    0.0000000

--------------------------------
MULLIKEN REDUCED ORBITAL CHARGES
--------------------------------
  0 N s       :     3.698254  s :     3.698254
      pz      :     1.479961  p :     3.989350
      px      :     1.102216
      py      :     1.407172
      dz2     :     0.008969  d :     0.033206
      dxz     :     0.006954
      dyz     :     0.002683
      dx2y2   :     0.004405
      dxy     :     0.010195

  1 C s       :     3.166509  s :     3.166509
      pz      :     0.962760  p :     2.724963
      px      :     0.809381
      py      :     0.952822
      dz2     :     0.008684  d :     0.058225
      dxz     :     0.009938
      dyz     :     0.014999
      dx2y2   :     0.012934
      dxy     :     0.011671

  2 C s       :     3.255219  s :     3.255219
      pz      :     0.960571  p :     2.967409
      px      :     1.019202
      py      :     0.987636
      dz2     :     0.006167  d :     0.038924
      dxz     :     0.009199
      dyz     :     0.009156
      dx2y2   :     0.002768
      dxy     :     0.011633

  3 C s       :     3.251803  s :     3.251803
      pz      :     0.988311  p :     2.973929
      px      :     0.977587
      py      :     1.008031
      dz2     :     0.007067  d :     0.040200
      dxz     :     0.007911
      dyz     :     0.008951
      dx2y2   :     0.004448
      dxy     :     0.011824

  4 C s       :     3.265971  s :     3.265971
      pz      :     0.950512  p :     2.978456
      px      :     0.980602
      py      :     1.047343
      dz2     :     0.009449  d :     0.038833
      dxz     :     0.006478
      dyz     :     0.007691
      dx2y2   :     0.003743
      dxy     :     0.011472

  5 C s       :     3.173521  s :     3.173521
      pz      :     0.939648  p :     2.718999
      px      :     0.909043
      py      :     0.870308
      dz2     :     0.011491  d :     0.058262
      dxz     :     0.008646
      dyz     :     0.012543
      dx2y2   :     0.013002
      dxy     :     0.012579

  6 N s       :     3.544914  s :     3.544914
      pz      :     1.291077  p :     3.855370
      px      :     1.460837
      py      :     1.103456
      dz2     :     0.006589  d :     0.032369
      dxz     :     0.005279
      dyz     :     0.007356
      dx2y2   :     0.007142
      dxy     :     0.006003

  7 C s       :     3.059057  s :     3.059057
      pz      :     0.753348  p :     2.401324
      px      :     0.841533
      py      :     0.806444
      dz2     :     0.034250  d :     0.100265
      dxz     :     0.029237
      dyz     :     0.013949
      dx2y2   :     0.011130
      dxy     :     0.011700

  8 O s       :     3.888709  s :     3.888709
      pz      :     1.448021  p :     4.550873
      px      :     1.703990
      py      :     1.398863
      dz2     :     0.006920  d :     0.024984
      dxz     :     0.006113
      dyz     :     0.006586
      dx2y2   :     0.002867
      dxy     :     0.002499

  9 C s       :     3.155646  s :     3.155646
      pz      :     0.869506  p :     2.769739
      px      :     0.873249
      py      :     1.026984
      dz2     :     0.009449  d :     0.037146
      dxz     :     0.011017
      dyz     :     0.005957
      dx2y2   :     0.005636
      dxy     :     0.005087

 10 C s       :     3.213599  s :     3.213599
      pz      :     0.986916  p :     2.900209
      px      :     0.952517
      py      :     0.960776
      dz2     :     0.008092  d :     0.036433
      dxz     :     0.012920
      dyz     :     0.004314
      dx2y2   :     0.005870
      dxy     :     0.005236

 11 C s       :     3.184618  s :     3.184618
      pz      :     0.963827  p :     2.917226
      px      :     0.941980
      py      :     1.011419
      dz2     :     0.008765  d :     0.035799
      dxz     :     0.010885
      dyz     :     0.005207
      dx2y2   :     0.005208
      dxy     :     0.005734

 12 C s       :     3.190310  s :     3.190310
      pz      :     0.941933  p :     2.888239
      px      :     0.978077
      py      :     0.968229
      dz2     :     0.010734  d :     0.037078
      dxz     :     0.009102
      dyz     :     0.006712
      dx2y2   :     0.006020
      dxy     :     0.004510

 13 C s       :     3.180180  s :     3.180180
      pz      :     0.988361  p :     2.978448
      px      :     0.952672
      py      :     1.037415
      dz2     :     0.007947  d :     0.034092
      dxz     :     0.011588
      dyz     :     0.003833
      dx2y2   :     0.005704
      dxy     :     0.005020

 14 C s       :     3.106534  s :     3.106534
      pz      :     0.698011  p :     2.493288
      px      :     0.882245
      py      :     0.913032
      dz2     :     0.017082  d :     0.065851
      dxz     :     0.018088
      dyz     :     0.013010
      dx2y2   :     0.008588
      dxy     :     0.009083

 15 O s       :     3.881442  s :     3.881442
      pz      :     1.271705  p :     4.605230
      px      :     1.625864
      py      :     1.707661
      dz2     :     0.004887  d :     0.026407
      dxz     :     0.009055
      dyz     :     0.004795
      dx2y2   :     0.003708
      dxy     :     0.003962

 16 C s       :     3.225263  s :     3.225263
      pz      :     0.854493  p :     2.819662
      px      :     0.975427
      py      :     0.989742
      dz2     :     0.011798  d :     0.065440
      dxz     :     0.019326
      dyz     :     0.012639
      dx2y2   :     0.006338
      dxy     :     0.015339

 17 C s       :     3.135540  s :     3.135540
      pz      :     0.944675  p :     2.702986
      px      :     0.873573
      py      :     0.884738
      dz2     :     0.004159  d :     0.039289
      dxz     :     0.007091
      dyz     :     0.004841
      dx2y2   :     0.011424
      dxy     :     0.011775

 18 C s       :     3.194878  s :     3.194878
      pz      :     0.999957  p :     2.944733
      px      :     0.965483
      py      :     0.979293
      dz2     :     0.002803  d :     0.035903
      dxz     :     0.006631
      dyz     :     0.005321
      dx2y2   :     0.009920
      dxy     :     0.011229

 19 C s       :     3.189945  s :     3.189945
      pz      :     0.979103  p :     2.899738
      px      :     0.980681
      py      :     0.939953
      dz2     :     0.004797  d :     0.035942
      dxz     :     0.003819
      dyz     :     0.005805
      dx2y2   :     0.013042
      dxy     :     0.008479

 20 C s       :     3.187351  s :     3.187351
      pz      :     0.981652  p :     2.900701
      px      :     0.949238
      py      :     0.969810
      dz2     :     0.004136  d :     0.035939
      dxz     :     0.006137
      dyz     :     0.004166
      dx2y2   :     0.009225
      dxy     :     0.012275

 21 C s       :     3.191004  s :     3.191004
      pz      :     0.984190  p :     2.897681
      px      :     0.937375
      py      :     0.976117
      dz2     :     0.002867  d :     0.036079
      dxz     :     0.006584
      dyz     :     0.005302
      dx2y2   :     0.009926
      dxy     :     0.011400

 22 C s       :     3.198569  s :     3.198569
      pz      :     0.979811  p :     2.927549
      px      :     0.997861
      py      :     0.949878
      dz2     :     0.004697  d :     0.035605
      dxz     :     0.003717
      dyz     :     0.005771
      dx2y2   :     0.012931
      dxy     :     0.008489

 23 C s       :     3.174286  s :     3.174286
      pz      :     0.926921  p :     2.728437
      px      :     1.000071
      py      :     0.801445
      dz2     :     0.009338  d :     0.059980
      dxz     :     0.009350
      dyz     :     0.013745
      dx2y2   :     0.014160
      dxy     :     0.013387

 24 C s       :     3.253078  s :     3.253078
      pz      :     0.985722  p :     2.974697
      px      :     0.978202
      py      :     1.010774
      dz2     :     0.007814  d :     0.040453
      dxz     :     0.010023
      dyz     :     0.008913
      dx2y2   :     0.004115
      dxy     :     0.009589

 25 C s       :     3.248647  s :     3.248647
      pz      :     0.959239  p :     2.986450
      px      :     1.007198
      py      :     1.020014
      dz2     :     0.007509  d :     0.041547
      dxz     :     0.008721
      dyz     :     0.007760
      dx2y2   :     0.010899
      dxy     :     0.006659

 26 C s       :     3.262459  s :     3.262459
      pz      :     0.979429  p :     2.991759
      px      :     0.978327
      py      :     1.034003
      dz2     :     0.007266  d :     0.040922
      dxz     :     0.010742
      dyz     :     0.009818
      dx2y2   :     0.003699
      dxy     :     0.009397

 27 C s       :     3.267889  s :     3.267889
      pz      :     1.062521  p :     2.990409
      px      :     0.946249
      py      :     0.981639
      dz2     :     0.011412  d :     0.037643
      dxz     :     0.004608
      dyz     :     0.005165
      dx2y2   :     0.007577
      dxy     :     0.008881

 28 H s       :     0.712446  s :     0.712446

 29 H s       :     0.716174  s :     0.716174

 30 H s       :     0.897864  s :     0.897864

 31 H s       :     0.878148  s :     0.878148

 32 H s       :     0.873320  s :     0.873320

 33 H s       :     0.850940  s :     0.850940

 34 H s       :     0.876448  s :     0.876448

 35 H s       :     0.851471  s :     0.851471

 36 H s       :     0.871123  s :     0.871123

 37 H s       :     0.854910  s :     0.854910

 38 H s       :     0.842757  s :     0.842757

 39 H s       :     0.871271  s :     0.871271

 40 H s       :     0.866601  s :     0.866601

 41 H s       :     0.866386  s :     0.866386

 42 H s       :     0.862463  s :     0.862463

 43 H s       :     0.831184  s :     0.831184

 44 H s       :     0.877176  s :     0.877176

 45 H s       :     0.870862  s :     0.870862

 46 H s       :     0.869859  s :     0.869859

 47 H s       :     0.866267  s :     0.866267

 48 H s       :     0.852666  s :     0.852666

 49 H s       :     0.864337  s :     0.864337

 50 H s       :     0.872439  s :     0.872439

 51 H s       :     0.841948  s :     0.841948

 52 H s       :     0.858486  s :     0.858486

 53 H s       :     0.868784  s :     0.868784

 54 H s       :     0.866072  s :     0.866072

 55 H s       :     0.839347  s :     0.839347

 56 H s       :     0.843975  s :     0.843975

 57 H s       :     0.858404  s :     0.858404



                     *******************************
                     * LOEWDIN POPULATION ANALYSIS *
                     *******************************

----------------------
LOEWDIN ATOMIC CHARGES
----------------------
   0 N :   -0.473224
   1 C :   -0.074571
   2 C :   -0.230574
   3 C :   -0.231419
   4 C :   -0.234896
   5 C :   -0.042971
   6 N :   -0.115953
   7 C :    0.150075
   8 O :   -0.268114
   9 C :   -0.073716
  10 C :   -0.089298
  11 C :   -0.148346
  12 C :   -0.110833
  13 C :   -0.168794
  14 C :    0.103752
  15 O :   -0.175278
  16 C :   -0.083996
  17 C :   -0.041107
  18 C :   -0.135892
  19 C :   -0.127484
  20 C :   -0.127603
  21 C :   -0.123598
  22 C :   -0.122040
  23 C :   -0.051122
  24 C :   -0.240631
  25 C :   -0.233657
  26 C :   -0.239169
  27 C :   -0.245715
  28 H :    0.219671
  29 H :    0.216417
  30 H :    0.092394
  31 H :    0.113619
  32 H :    0.119831
  33 H :    0.121471
  34 H :    0.117576
  35 H :    0.126209
  36 H :    0.113443
  37 H :    0.131564
  38 H :    0.149328
  39 H :    0.132275
  40 H :    0.134217
  41 H :    0.135845
  42 H :    0.114372
  43 H :    0.139015
  44 H :    0.127778
  45 H :    0.131664
  46 H :    0.132238
  47 H :    0.133708
  48 H :    0.137298
  49 H :    0.117048
  50 H :    0.117411
  51 H :    0.132744
  52 H :    0.121262
  53 H :    0.118026
  54 H :    0.123131
  55 H :    0.131424
  56 H :    0.133830
  57 H :    0.121366

-------------------------------
LOEWDIN REDUCED ORBITAL CHARGES
-------------------------------
  0 N s       :     3.310095  s :     3.310095
      pz      :     1.502099  p :     4.101110
      px      :     1.163137
      py      :     1.435873
      dz2     :     0.013637  d :     0.062020
      dxz     :     0.013480
      dyz     :     0.005069
      dx2y2   :     0.010101
      dxy     :     0.019733

  1 C s       :     2.900543  s :     2.900543
      pz      :     1.050761  p :     3.046625
      px      :     0.944807
      py      :     1.051057
      dz2     :     0.019000  d :     0.127403
      dxz     :     0.021865
      dyz     :     0.032229
      dx2y2   :     0.027833
      dxy     :     0.026476

  2 C s       :     2.947624  s :     2.947624
      pz      :     1.056170  p :     3.201508
      px      :     1.080234
      py      :     1.065103
      dz2     :     0.013011  d :     0.081442
      dxz     :     0.019756
      dyz     :     0.019932
      dx2y2   :     0.005276
      dxy     :     0.023466

  3 C s       :     2.937405  s :     2.937405
      pz      :     1.066209  p :     3.209276
      px      :     1.061685
      py      :     1.081382
      dz2     :     0.013993  d :     0.084739
      dxz     :     0.017598
      dyz     :     0.018878
      dx2y2   :     0.009507
      dxy     :     0.024762

  4 C s       :     2.946861  s :     2.946861
      pz      :     1.041161  p :     3.206477
      px      :     1.066873
      py      :     1.098444
      dz2     :     0.021266  d :     0.081559
      dxz     :     0.014823
      dyz     :     0.015320
      dx2y2   :     0.007630
      dxy     :     0.022521

  5 C s       :     2.892575  s :     2.892575
      pz      :     1.036049  p :     3.023004
      px      :     1.015773
      py      :     0.971182
      dz2     :     0.027700  d :     0.127392
      dxz     :     0.017387
      dyz     :     0.025650
      dx2y2   :     0.030106
      dxy     :     0.026548

  6 N s       :     3.114461  s :     3.114461
      pz      :     1.312093  p :     3.921501
      px      :     1.451684
      py      :     1.157725
      dz2     :     0.016404  d :     0.079991
      dxz     :     0.012883
      dyz     :     0.018860
      dx2y2   :     0.017273
      dxy     :     0.014571

  7 C s       :     2.865073  s :     2.865073
      pz      :     0.941799  p :     2.751399
      px      :     0.977296
      py      :     0.832303
      dz2     :     0.081792  d :     0.233454
      dxz     :     0.070219
      dyz     :     0.031287
      dx2y2   :     0.023890
      dxy     :     0.026265

  8 O s       :     3.590184  s :     3.590184
      pz      :     1.507744  p :     4.628022
      px      :     1.714695
      py      :     1.405583
      dz2     :     0.013707  d :     0.049907
      dxz     :     0.013764
      dyz     :     0.013328
      dx2y2   :     0.004248
      dxy     :     0.004859

  9 C s       :     2.879547  s :     2.879547
      pz      :     1.042626  p :     3.098263
      px      :     1.023388
      py      :     1.032249
      dz2     :     0.026070  d :     0.095905
      dxz     :     0.030660
      dyz     :     0.013615
      dx2y2   :     0.013892
      dxy     :     0.011669

 10 C s       :     2.918924  s :     2.918924
      pz      :     1.055576  p :     3.085374
      px      :     1.063697
      py      :     0.966101
      dz2     :     0.019288  d :     0.085000
      dxz     :     0.030329
      dyz     :     0.009360
      dx2y2   :     0.013655
      dxy     :     0.012369

 11 C s       :     2.914342  s :     2.914342
      pz      :     1.065192  p :     3.149122
      px      :     1.064176
      py      :     1.019754
      dz2     :     0.020310  d :     0.084882
      dxz     :     0.028193
      dyz     :     0.009770
      dx2y2   :     0.013580
      dxy     :     0.013027

 12 C s       :     2.917603  s :     2.917603
      pz      :     1.062674  p :     3.106102
      px      :     1.066479
      py      :     0.976949
      dz2     :     0.027384  d :     0.087129
      dxz     :     0.024184
      dyz     :     0.016003
      dx2y2   :     0.011129
      dxy     :     0.008429

 13 C s       :     2.916980  s :     2.916980
      pz      :     1.073594  p :     3.170744
      px      :     1.054521
      py      :     1.042630
      dz2     :     0.019481  d :     0.081070
      dxz     :     0.027488
      dyz     :     0.008878
      dx2y2   :     0.013389
      dxy     :     0.011834

 14 C s       :     2.863227  s :     2.863227
      pz      :     0.887763  p :     2.877840
      px      :     1.047694
      py      :     0.942383
      dz2     :     0.041090  d :     0.155181
      dxz     :     0.045262
      dyz     :     0.028383
      dx2y2   :     0.019769
      dxy     :     0.020677

 15 O s       :     3.464346  s :     3.464346
      pz      :     1.316395  p :     4.649938
      px      :     1.644187
      py      :     1.689355
      dz2     :     0.014345  d :     0.060994
      dxz     :     0.020743
      dyz     :     0.012707
      dx2y2   :     0.006157
      dxy     :     0.007043

 16 C s       :     2.927332  s :     2.927332
      pz      :     0.937658  p :     3.018495
      px      :     1.028283
      py      :     1.052554
      dz2     :     0.024777  d :     0.138169
      dxz     :     0.042458
      dyz     :     0.024754
      dx2y2   :     0.012572
      dxy     :     0.033608

 17 C s       :     2.883302  s :     2.883302
      pz      :     0.982136  p :     3.058718
      px      :     1.052775
      py      :     1.023808
      dz2     :     0.009089  d :     0.099087
      dxz     :     0.016560
      dyz     :     0.011028
      dx2y2   :     0.030545
      dxy     :     0.031865

 18 C s       :     2.919266  s :     2.919266
      pz      :     1.012164  p :     3.132614
      px      :     1.059255
      py      :     1.061195
      dz2     :     0.005880  d :     0.084011
      dxz     :     0.014458
      dyz     :     0.010105
      dx2y2   :     0.025384
      dxy     :     0.028185

 19 C s       :     2.919118  s :     2.919118
      pz      :     0.998384  p :     3.123827
      px      :     1.070109
      py      :     1.055334
      dz2     :     0.009288  d :     0.084539
      dxz     :     0.008009
      dyz     :     0.014444
      dx2y2   :     0.030286
      dxy     :     0.022513

 20 C s       :     2.919321  s :     2.919321
      pz      :     0.998015  p :     3.123956
      px      :     1.069537
      py      :     1.056404
      dz2     :     0.008110  d :     0.084326
      dxz     :     0.014377
      dyz     :     0.008666
      dx2y2   :     0.024089
      dxy     :     0.029085

 21 C s       :     2.919090  s :     2.919090
      pz      :     0.993689  p :     3.119775
      px      :     1.069075
      py      :     1.057011
      dz2     :     0.006003  d :     0.084734
      dxz     :     0.014544
      dyz     :     0.009897
      dx2y2   :     0.025849
      dxy     :     0.028441

 22 C s       :     2.918360  s :     2.918360
      pz      :     0.998603  p :     3.120448
      px      :     1.076938
      py      :     1.044907
      dz2     :     0.008886  d :     0.083232
      dxz     :     0.007700
      dyz     :     0.014189
      dx2y2   :     0.030083
      dxy     :     0.022375

 23 C s       :     2.895335  s :     2.895335
      pz      :     1.036882  p :     3.025934
      px      :     1.069185
      py      :     0.919868
      dz2     :     0.018164  d :     0.129853
      dxz     :     0.021969
      dyz     :     0.032660
      dx2y2   :     0.030398
      dxy     :     0.026661

 24 C s       :     2.952125  s :     2.952125
      pz      :     1.057591  p :     3.204247
      px      :     1.068858
      py      :     1.077798
      dz2     :     0.015048  d :     0.084260
      dxz     :     0.022886
      dyz     :     0.018646
      dx2y2   :     0.008458
      dxy     :     0.019223

 25 C s       :     2.936362  s :     2.936362
      pz      :     1.059865  p :     3.210583
      px      :     1.069930
      py      :     1.080788
      dz2     :     0.014980  d :     0.086711
      dxz     :     0.020438
      dyz     :     0.016749
      dx2y2   :     0.022327
      dxy     :     0.012218

 26 C s       :     2.942373  s :     2.942373
      pz      :     1.051521  p :     3.212033
      px      :     1.068431
      py      :     1.092081
      dz2     :     0.013691  d :     0.084763
      dxz     :     0.024392
      dyz     :     0.020515
      dx2y2   :     0.007560
      dxy     :     0.018604

 27 C s       :     2.955806  s :     2.955806
      pz      :     1.106748  p :     3.210937
      px      :     1.040534
      py      :     1.063656
      dz2     :     0.022238  d :     0.078973
      dxz     :     0.009269
      dyz     :     0.010010
      dx2y2   :     0.017810
      dxy     :     0.019646

 28 H s       :     0.780329  s :     0.780329

 29 H s       :     0.783583  s :     0.783583

 30 H s       :     0.907606  s :     0.907606

 31 H s       :     0.886381  s :     0.886381

 32 H s       :     0.880169  s :     0.880169

 33 H s       :     0.878529  s :     0.878529

 34 H s       :     0.882424  s :     0.882424

 35 H s       :     0.873791  s :     0.873791

 36 H s       :     0.886557  s :     0.886557

 37 H s       :     0.868436  s :     0.868436

 38 H s       :     0.850672  s :     0.850672

 39 H s       :     0.867725  s :     0.867725

 40 H s       :     0.865783  s :     0.865783

 41 H s       :     0.864155  s :     0.864155

 42 H s       :     0.885628  s :     0.885628

 43 H s       :     0.860985  s :     0.860985

 44 H s       :     0.872222  s :     0.872222

 45 H s       :     0.868336  s :     0.868336

 46 H s       :     0.867762  s :     0.867762

 47 H s       :     0.866292  s :     0.866292

 48 H s       :     0.862702  s :     0.862702

 49 H s       :     0.882952  s :     0.882952

 50 H s       :     0.882589  s :     0.882589

 51 H s       :     0.867256  s :     0.867256

 52 H s       :     0.878738  s :     0.878738

 53 H s       :     0.881974  s :     0.881974

 54 H s       :     0.876869  s :     0.876869

 55 H s       :     0.868576  s :     0.868576

 56 H s       :     0.866170  s :     0.866170

 57 H s       :     0.878634  s :     0.878634



                      *****************************
                      * MAYER POPULATION ANALYSIS *
                      *****************************

  NA   - Mulliken gross atomic population
  ZA   - Total nuclear charge
  QA   - Mulliken gross atomic charge
  VA   - Mayer's total valence
  BVA  - Mayer's bonded valence
  FA   - Mayer's free valence

  ATOM       NA         ZA         QA         VA         BVA        FA
  0 N      7.7208     7.0000    -0.7208     2.7221     2.7221    -0.0000
  1 C      5.9497     6.0000     0.0503     3.8508     3.8508     0.0000
  2 C      6.2616     6.0000    -0.2616     3.8559     3.8559     0.0000
  3 C      6.2659     6.0000    -0.2659     3.8665     3.8665    -0.0000
  4 C      6.2833     6.0000    -0.2833     3.8515     3.8515     0.0000
  5 C      5.9508     6.0000     0.0492     3.8872     3.8872    -0.0000
  6 N      7.4327     7.0000    -0.4327     3.0080     3.0080    -0.0000
  7 C      5.5606     6.0000     0.4394     3.9482     3.9482    -0.0000
  8 O      8.4646     8.0000    -0.4646     2.0287     2.0287    -0.0000
  9 C      5.9625     6.0000     0.0375     3.8356     3.8356    -0.0000
 10 C      6.1502     6.0000    -0.1502     3.9445     3.9445     0.0000
 11 C      6.1376     6.0000    -0.1376     3.9236     3.9236     0.0000
 12 C      6.1156     6.0000    -0.1156     3.9510     3.9510    -0.0000
 13 C      6.1927     6.0000    -0.1927     3.8883     3.8883     0.0000
 14 C      5.6657     6.0000     0.3343     3.8064     3.8064     0.0000
 15 O      8.5131     8.0000    -0.5131     1.9639     1.9639    -0.0000
 16 C      6.1104     6.0000    -0.1104     3.7947     3.7947    -0.0000
 17 C      5.8778     6.0000     0.1222     3.9330     3.9330     0.0000
 18 C      6.1755     6.0000    -0.1755     3.9415     3.9415     0.0000
 19 C      6.1256     6.0000    -0.1256     3.9483     3.9483     0.0000
 20 C      6.1240     6.0000    -0.1240     3.9478     3.9478     0.0000
 21 C      6.1248     6.0000    -0.1248     3.9421     3.9421    -0.0000
 22 C      6.1617     6.0000    -0.1617     3.9262     3.9262    -0.0000
 23 C      5.9627     6.0000     0.0373     3.8521     3.8521     0.0000
 24 C      6.2682     6.0000    -0.2682     3.8086     3.8086    -0.0000
 25 C      6.2766     6.0000    -0.2766     3.8526     3.8526     0.0000
 26 C      6.2951     6.0000    -0.2951     3.8457     3.8457    -0.0000
 27 C      6.2959     6.0000    -0.2959     3.8183     3.8183     0.0000
 28 H      0.7124     1.0000     0.2876     0.8719     0.8719    -0.0000
 29 H      0.7162     1.0000     0.2838     0.8754     0.8754     0.0000
 30 H      0.8979     1.0000     0.1021     0.9287     0.9287    -0.0000
 31 H      0.8781     1.0000     0.1219     0.9367     0.9367     0.0000
 32 H      0.8733     1.0000     0.1267     0.9411     0.9411     0.0000
 33 H      0.8509     1.0000     0.1491     0.9347     0.9347    -0.0000
 34 H      0.8764     1.0000     0.1236     0.9365     0.9365     0.0000
 35 H      0.8515     1.0000     0.1485     0.9359     0.9359     0.0000
 36 H      0.8711     1.0000     0.1289     0.9358     0.9358     0.0000
 37 H      0.8549     1.0000     0.1451     0.9385     0.9385     0.0000
 38 H      0.8428     1.0000     0.1572     0.9414     0.9414    -0.0000
 39 H      0.8713     1.0000     0.1287     0.9379     0.9379     0.0000
 40 H      0.8666     1.0000     0.1334     0.9364     0.9364    -0.0000
 41 H      0.8664     1.0000     0.1336     0.9438     0.9438     0.0000
 42 H      0.8625     1.0000     0.1375     0.9343     0.9343     0.0000
 43 H      0.8312     1.0000     0.1688     0.9277     0.9277     0.0000
 44 H      0.8772     1.0000     0.1228     0.9401     0.9401    -0.0000
 45 H      0.8709     1.0000     0.1291     0.9369     0.9369    -0.0000
 46 H      0.8699     1.0000     0.1301     0.9365     0.9365    -0.0000
 47 H      0.8663     1.0000     0.1337     0.9365     0.9365    -0.0000
 48 H      0.8527     1.0000     0.1473     0.9398     0.9398     0.0000
 49 H      0.8643     1.0000     0.1357     0.9364     0.9364     0.0000
 50 H      0.8724     1.0000     0.1276     0.9406     0.9406    -0.0000
 51 H      0.8419     1.0000     0.1581     0.9429     0.9429     0.0000
 52 H      0.8585     1.0000     0.1415     0.9388     0.9388     0.0000
 53 H      0.8688     1.0000     0.1312     0.9390     0.9390     0.0000
 54 H      0.8661     1.0000     0.1339     0.9381     0.9381    -0.0000
 55 H      0.8393     1.0000     0.1607     0.9397     0.9397    -0.0000
 56 H      0.8440     1.0000     0.1560     0.9422     0.9422     0.0000
 57 H      0.8584     1.0000     0.1416     0.9431     0.9431     0.0000

  Mayer bond orders larger than 0.100000
B(  0-N ,  1-C ) :   0.9701 B(  0-N , 28-H ) :   0.8630 B(  0-N , 29-H ) :   0.8618 
B(  1-C ,  2-C ) :   0.9845 B(  1-C , 27-C ) :   0.9726 B(  1-C , 30-H ) :   0.9364 
B(  2-C ,  3-C ) :   1.0136 B(  2-C , 31-H ) :   0.9393 B(  2-C , 32-H ) :   0.9403 
B(  3-C ,  4-C ) :   0.9958 B(  3-C , 33-H ) :   0.9307 B(  3-C , 34-H ) :   0.9422 
B(  4-C ,  5-C ) :   0.9733 B(  4-C , 35-H ) :   0.9331 B(  4-C , 36-H ) :   0.9375 
B(  5-C ,  6-N ) :   0.9385 B(  5-C , 27-C ) :   0.9948 B(  5-C , 37-H ) :   0.9257 
B(  6-N ,  7-C ) :   1.0525 B(  6-N , 23-C ) :   0.9396 B(  7-C ,  8-O ) :   1.8139 
B(  7-C ,  9-C ) :   0.9582 B(  9-C , 10-C ) :   1.4087 B(  9-C , 14-C ) :   1.3433 
B( 10-C , 11-C ) :   1.4378 B( 10-C , 38-H ) :   0.9160 B( 11-C , 12-C ) :   1.4371 
B( 11-C , 39-H ) :   0.9301 B( 12-C , 13-C ) :   1.4479 B( 12-C , 40-H ) :   0.9296 
B( 13-C , 14-C ) :   1.3591 B( 13-C , 41-H ) :   0.9150 B( 14-C , 15-O ) :   0.9054 
B( 15-O , 16-C ) :   0.9060 B( 16-C , 17-C ) :   0.9649 B( 16-C , 42-H ) :   0.9205 
B( 16-C , 43-H ) :   0.9212 B( 17-C , 18-C ) :   1.4358 B( 17-C , 22-C ) :   1.4245 
B( 18-C , 19-C ) :   1.4361 B( 18-C , 44-H ) :   0.9240 B( 19-C , 20-C ) :   1.4606 
B( 19-C , 45-H ) :   0.9295 B( 20-C , 21-C ) :   1.4444 B( 20-C , 46-H ) :   0.9302 
B( 21-C , 22-C ) :   1.4482 B( 21-C , 47-H ) :   0.9293 B( 22-C , 48-H ) :   0.9167 
B( 23-C , 24-C ) :   0.9866 B( 23-C , 26-C ) :   1.0014 B( 23-C , 49-H ) :   0.9172 
B( 24-C , 25-C ) :   1.0073 B( 24-C , 50-H ) :   0.9444 B( 24-C , 51-H ) :   0.9376 
B( 25-C , 26-C ) :   1.0058 B( 25-C , 52-H ) :   0.9446 B( 25-C , 53-H ) :   0.9499 
B( 26-C , 54-H ) :   0.9441 B( 26-C , 55-H ) :   0.9243 B( 27-C , 56-H ) :   0.9272 
B( 27-C , 57-H ) :   0.9201 

-------
TIMINGS
-------

Total SCF time: 0 days 0 hours 8 min 52 sec 

Total time                  ....     532.598 sec
Sum of individual times     ....     532.180 sec  ( 99.9%)

SCF preparation             ....       0.595 sec  (  0.1%)
Fock matrix formation       ....     529.124 sec  ( 99.3%)
  Startup                   ....       0.115 sec  (  0.0% of F)
  Split-RI-J                ....      66.093 sec  ( 12.5% of F)
  Chain of spheres X        ....     412.514 sec  ( 78.0% of F)
  XC integration            ....      49.335 sec  (  9.3% of F)
    XC Preparation          ....       0.000 sec  (  0.0% of XC)
    Basis function eval.    ....      19.837 sec  ( 40.2% of XC)
    Density eval.           ....      12.387 sec  ( 25.1% of XC)
    XC-Functional eval.     ....       2.228 sec  (  4.5% of XC)
    XC-Potential eval.      ....      12.698 sec  ( 25.7% of XC)
Diagonalization             ....       0.000 sec  (  0.0%)
Density matrix formation    ....       0.437 sec  (  0.1%)
Total Energy calculation    ....       0.097 sec  (  0.0%)
Population analysis         ....       0.081 sec  (  0.0%)
Orbital Transformation      ....       0.203 sec  (  0.0%)
Orbital Orthonormalization  ....       0.000 sec  (  0.0%)
DIIS solution               ....       1.232 sec  (  0.2%)
SOSCF solution              ....       0.410 sec  (  0.1%)
Finished LeanSCF after 532.7 sec

Maximum memory used throughout the entire LEANSCF-calculation: 85.0 MB

-------------------------   --------------------
FINAL SINGLE POINT ENERGY     -1191.712995096370
-------------------------   --------------------


------------------------------------------------------------------------------
                              ORCA PROPERTY CALCULATIONS
------------------------------------------------------------------------------

GBWName                                 ... /home/nmrbox/aojoawo/Documents/ERDOS/inputs/CHEMBL2442033.gbw
Number of atoms                         ...     58
Number of basis functions               ...    452
Max core memory                         ...   1024 MB

Electric properties:
Dipole moment                           ... YES
Quadrupole moment                       ...  NO
Static polarizability (Dipole/Dipole)   ...  NO
Static polarizability (Dipole/Quad.)    ...  NO
Static polarizability (Quad./Quad.)     ...  NO
Static polarizability (Velocity)        ...  NO

Atomic electric properties:
Dipole moment                           ...  NO
Quadrupole moment                       ...  NO
Static polarizability                   ...  NO

Choice of electric origin               ... Center of mass
Position of electric origin             ...     0.636797     0.001607     0.454481

General magnetic properties:
Magnetizability                         ...  NO

EPR properties:
g-Tensor (aka g-matrix)                 ...  NO
Zero-Field splitting spin-orbit         ...  NO
Zero-field splitting spin-spin          ...  NO
Hyperfine couplings                     ...  NO (   0 nuclei)
Quadrupole couplings                    ...  NO (   0 nuclei)
Contact density                         ...  NO (   0 nuclei)

NMR properties:
Chemical shifts                         ...  NO (   0 nuclei)
Spin-rotation constants                 ...  NO (   0 nuclei)
Spin-spin couplings                     ...  NO (   0 nuclei,    0 pairs)

Choice of magnetic origin               ... GIAO
Position of magnetic origin             ...     0.000000     0.000000     0.000000

Properties with geometric perturbations:
SCF Hessian                             ...  NO
IR spectrum                             ...  NO
VCD spectrum                            ...  NO
X-ray spectroscopy properties:
SCF XES/XAS/RIXS spectra                ...  NO


-------------
DIPOLE MOMENT
-------------

Method             : SCF
Type of density    : Electron Density
Multiplicity       :   1
Irrep              :   0
Energy             : -1191.7129950963699230 Eh
Relativity type    : 
Basis              : AO
                                X                 Y                 Z
Electronic contribution:     22.096893741      -0.085262204      10.507411417
Nuclear contribution   :    -21.161793770       0.054879509     -11.400161141
                        -----------------------------------------
Total Dipole Moment    :      0.935099971      -0.030382695      -0.892749723
                        -----------------------------------------
Magnitude (a.u.)       :      1.293188746
Magnitude (Debye)      :      3.287024568



--------------------
Rotational spectrum 
--------------------
 
Rotational constants in cm-1:             0.008005             0.004271             0.003329 
Rotational constants in MHz :           239.992266           128.044698            99.815441 

Dipole components along the rotational axes: 
x,y,z [a.u.] :     0.897508    -0.379956    -0.849970 
x,y,z [Debye]:     2.281284    -0.965772    -2.160453 

 

Dipole moment calculation done in   0.0 sec 

Maximum memory used throughout the entire PROP-calculation: 40.1 MB

--------------------------------
SUGGESTED CITATIONS FOR THIS RUN
--------------------------------

Below you find a list of papers that are relevant to this ORCA run
We neither can nor want to force you to cite these papers, but we appreciate if you do
You receive ORCA, which is the product of decades of hard work by many enthusiastic individuals, for free
The only thing we kindly ask in return is that you cite our papers,
We deeply appreciate it, if you show your appreciation for ORCA by not just citing the generic ORCA reference.

Please note that relegating all ORCA citations to the supporting information does *not* help us.
SI sections are not indexed - citations you put there will not count into any citation statistics
But we need these citations in order to attract the funding resources that allow us to do what we are doing

Therefore, if you are a happy ORCA user, please consider citing a few of the papers listed below in the main body of your paper

In addition to the list printed below, the program has created the file /home/nmrbox/aojoawo/Documents/ERDOS/inputs/CHEMBL2442033.bibtex that contains the list in bibtex format
You can import this file easily into all common literature databanks and citation aid programs


List of essential papers. We consider these as the minimum necessary citations

  1. Neese,F.
     Software update: the ORCA program system, version 5.0
     WIRES Comput. Molec. Sci., 2022 12(1)e1606
     doi.org/10.1002/wcms.1606

List of papers to cite with high priority. The work reported in these papers was absolutely
necessary for this run to complete.
Our perspective: the developers of density functionals and basis sets usually get cited in chemistry papers
Good! But without the algorithms to do something with them, the functionals or basis sets would not do anything.
Hence, in our opinion, the algorithm design and method developments papers are equally worthy of getting cited

  1. Neese,F.
     An improvement of the resolution of the identity approximation for the formation of the Coulomb matrix
     J. Comp. Chem., 2003 24(14)1740-1747
     doi.org/10.1002/jcc.10318
  2. Neese,F.; Wennmohs,F.; Hansen,A.; Becker,U.
     Efficient, approximate and parallel Hartree-Fock and hybrid DFT calculations. A 'chain-of-spheres' algorithm for the Hartree-Fock exchange
     Chem. Phys., 2009 356(1-3)98-109
     doi.org/10.1016/j.chemphys.2008.10.036
  3. Helmich-Paris,B.; de Souza,B.; Neese,F.; Izsák,R.
     An improved chain of spheres for exchange algorithm
     J. Chem. Phys., 2021 155 104109
     doi.org/doi: 10.1063/5.0058766.
  4. Neese,F.
     The SHARK Integral Generation and Digestion System
     J. Comp. Chem., 2022  1-16
     doi.org/10.1002/jcc.26942

List of suggested additional citations. These are papers that are important in the 'surrounding' of 
of this run, or papers that preceded the highly important papers. If you like your results we are grateful for a citation.

  1. Izsak,R.; Neese,F.
     An overlap fitted chain of spheres exchange method
     J. Chem. Phys., 2011 135 144105
     doi.org/10.1063/1.3646921
  2. Izsak,R.; Hansen,A.; Neese,F.
     The resolution of identity and chain of spheres approximations for the LPNO-CCSD singles Fock term
     Molec. Phys., 2012 110 2413-2417
     doi.org/10.1080/00268976.2012.687466
  3. Neese,F.
     The ORCA program system
     WIRES Comput. Molec. Sci., 2012 2(1)73-78
     doi.org/10.1002/wcms.81
  4. Izsak,R.; Neese,F.; Klopper,W.
     Robust fitting techniques in the chain of spheres approximation to the Fock exchange: The role of the complementary space
     J. Chem. Phys., 2013 139 
     doi.org/10.1063/1.4819264
  5. Neese,F.
     Software update: the ORCA program system, version 4.0
     WIRES Comput. Molec. Sci., 2018 8(1)1-6
     doi.org/10.1002/wcms.1327
  6. Neese,F.; Wennmohs,F.; Becker,U.; Riplinger,C.
     The ORCA quantum chemistry program package
     J. Chem. Phys., 2020 152 Art. No. L224108
     doi.org/10.1063/5.0004608

List of optional additional citations

  1. Neese,F.
     Approximate second-order SCF convergence for spin unrestricted wavefunctions
     Chem. Phys. Lett., 2000 325(1-3)93-98
     doi.org/10.1016/s0009-2614(00)00662-x

Timings for individual modules:

Sum of individual times          ...      557.569 sec (=   9.293 min)
Startup calculation              ...       16.069 sec (=   0.268 min)   2.9 %
SCF iterations                   ...      541.278 sec (=   9.021 min)  97.1 %
Property calculations            ...        0.222 sec (=   0.004 min)   0.0 %
                             ****ORCA TERMINATED NORMALLY****
TOTAL RUN TIME: 0 days 0 hours 9 minutes 18 seconds 629 msec
