
                                 *****************
                                 * O   R   C   A *
                                 *****************

                                            #,                                       
                                            ###                                      
                                            ####                                     
                                            #####                                    
                                            ######                                   
                                           ########,                                 
                                     ,,################,,,,,                         
                               ,,#################################,,                 
                          ,,##########################################,,             
                       ,#########################################, ''#####,          
                    ,#############################################,,   '####,        
                  ,##################################################,,,,####,       
                ,###########''''           ''''###############################       
              ,#####''   ,,,,##########,,,,          '''####'''          '####       
            ,##' ,,,,###########################,,,                        '##       
           ' ,,###''''                  '''############,,,                           
         ,,##''                                '''############,,,,        ,,,,,,###''
      ,#''                                            '''#######################'''  
     '                                                          ''''####''''         
             ,#######,   #######,   ,#######,      ##                                
            ,#'     '#,  ##    ##  ,#'     '#,    #''#        ,####,   ,####,        
            ##       ##  ##   ,#'  ##            #'  '#       #'       #'  '#        
            ##       ##  #######   ##           ,######,      #####,   #    #        
            '#,     ,#'  ##    ##  '#,     ,#' ,#      #,     #,   #   #,  ,#        
             '#######'   ##     ##  '#######'  #'      '#     '####' # '####'        



                #########################################################
                #                        -***-                          #
                #          Department of theory and spectroscopy        #
                #                                                       #
                #                      Frank Neese                      #
                #                                                       #
                #     Directorship, Architecture, Infrastructure        #
                #                    SHARK, DRIVERS                     #
                #        Core code/Algorithms in most modules           #
                #                                                       #
                #        Max Planck Institute fuer Kohlenforschung      #
                #                Kaiser Wilhelm Platz 1                 #
                #                 D-45470 Muelheim/Ruhr                 #
                #                      Germany                          #
                #                                                       #
                #                  All rights reserved                  #
                #                        -***-                          #
                #########################################################


                         Program Version 6.0.0  -   RELEASE  -


 With contributions from (in alphabetic order):
   Daniel Aravena         : Magnetic Suceptibility
   Michael Atanasov       : Ab Initio Ligand Field Theory (pilot matlab implementation)
   Alexander A. Auer      : GIAO ZORA, VPT2 properties, NMR spectrum
   Ute Becker             : All parallelization in ORCA, NUMFREQ, NUMCALC
   Giovanni Bistoni       : ED, misc. LED, open-shell LED, HFLD
   Martin Brehm           : Molecular dynamics
   Dmytro Bykov           : pre 5.0 version of the SCF Hessian
   Marcos Casanova-Páez   : Triplet and SCS-CIS(D). UHF-(DLPNO)-IP/EA/STEOM-CCSD. UHF-CVS-IP/STEOM-CCSD
   Vijay G. Chilkuri      : MRCI spin determinant printing, contributions to CSF-ICE
   Pauline Colinet        : FMM embedding
   Dipayan Datta          : RHF DLPNO-CCSD density
   Achintya Kumar Dutta   : EOM-CC, STEOM-CC
   Nicolas Foglia         : Exact transition moments, OPA infrastructure, MCD improvements
   Dmitry Ganyushin       : Spin-Orbit,Spin-Spin,Magnetic field MRCI
   Miquel Garcia          : C-PCM and meta-GGA Hessian, CCSD/C-PCM, Gaussian charge scheme
   Tiago L. C. Gouveia    : GS-ROHF, GS-ROCIS
   Yang Guo               : DLPNO-NEVPT2, F12-NEVPT2, CIM, IAO-localization
   Andreas Hansen         : Spin unrestricted coupled pair/coupled cluster methods
   Ingolf Harden          : AUTO-CI MPn and infrastructure 
   Benjamin Helmich-Paris : MC-RPA, TRAH-(SCF,CASSCF), AVAS, COSX integrals, SCF dyn. polar.
   Lee Huntington         : MR-EOM, pCC
   Robert Izsak           : Overlap fitted RIJCOSX, COSX-SCS-MP3, EOM
   Riya Kayal             : Wick's Theorem for AUTO-CI, AUTO-CI UHF-CCSDT
   Emily Kempfer          : AUTO-CI, RHF CISDT and CCSDT
   Christian Kollmar      : KDIIS, OOCD, Brueckner-CCSD(T), CCSD density, CASPT2, CASPT2-K, improved NEVPT2
   Axel Koslowski         : Symmetry handling
   Simone Kossmann        : Meta GGA functionals, TD-DFT gradient, OOMP2, (MP2 Hessian; deprecated post 5.0)
   Lucas Lang             : DCDCAS
   Marvin Lechner         : AUTO-CI (C++ implementation), FIC-MRCC
   Spencer Leger          : CASSCF response
   Dagmar Lenk            : GEPOL surface, SMD, ORCA-2-JSON
   Dimitrios Liakos       : Extrapolation schemes; Compound Job, initial MDCI parallelization
   Dimitrios Manganas     : Further ROCIS development; embedding schemes. LFT, Crystal Embedding
   Dimitrios Pantazis     : SARC Basis sets
   Anastasios Papadopoulos: AUTO-CI, single reference methods and gradients
   Taras Petrenko         : pre 6.0 DFT Hessian and TD-DFT gradient, (ASA, deprecated), ECA, 1-Electron XAS/XES, NRVS
   Peter Pinski           : DLPNO-MP2, DLPNO-MP2 Gradient
   Christoph Reimann      : Effective Core Potentials
   Marius Retegan         : Local ZFS, SOC
   Christoph Riplinger    : Optimizer, TS searches, QM/MM, DLPNO-CCSD(T), (RO)-DLPNO pert. Triples
   Michael Roemelt        : Original ROCIS implementation
   Masaaki Saitow         : Open-shell DLPNO-CCSD energy and density
   Barbara Sandhoefer     : DKH picture change effects
   Kantharuban Sivalingam : CASSCF convergence/infrastructure, NEVPT2 and variants, FIC-MRCI
   Bernardo de Souza      : ESD, SOC TD-DFT
   Georgi Stoychev        : AutoAux, RI-MP2 NMR, DLPNO-MP2 response, X2C
   Van Anh Tran           : RI-MP2 g-tensors
   Willem Van den Heuvel  : Paramagnetic NMR
   Zikuan Wang            : NOTCH, Electric field optimization 
   Frank Wennmohs         : Technical directorship and infrastructure
   Hang Xu                : AUTO-CI-Response properties 


 We gratefully acknowledge several colleagues who have allowed us to
 interface, adapt or use parts of their codes:
   Stefan Grimme, W. Hujo, H. Kruse, P. Pracht,  : VdW corrections, initial TS optimization,
                  C. Bannwarth, S. Ehlert,         DFT functionals, gCP, sTDA/sTD-DF
                  L. Wittmann, M. Mueller
   Ed Valeev, F. Pavosevic, A. Kumar             : LibInt (2-el integral package), F12 methods
   Garnet Chan, S. Sharma, J. Yang, R. Olivares  : DMRG
   Ulf Ekstrom                                   : XCFun DFT Library
   Mihaly Kallay                                 : mrcc  (arbitrary order and MRCC methods)
   Frank Weinhold                                : gennbo (NPA and NBO analysis)
   Simon Mueller                                 : openCOSMO-RS
   Christopher J. Cramer and Donald G. Truhlar   : smd solvation model
   Lars Goerigk                                  : TD-DFT with DH, B97 family of functionals
   V. Asgeirsson, H. Jonsson                     : NEB implementation
   FAccTs GmbH                                   : IRC, NEB, NEB-TS, DLPNO-Multilevel, CI-OPT
                                                   MM, QMMM, 2- and 3-layer-ONIOM, Crystal-QMMM,
                                                   LR-CPCM, SF, NACMEs, symmetry and pop. for TD-DFT,
                                                   nearIR, NL-DFT gradient (VV10), updates on ESD,
                                                   ML-optimized integration grids, MBIS, APM,
                                                   GOAT, DOCKER, SOLVATOR, interface openCOSMO-RS
   S Lehtola, MJT Oliveira, MAL Marques          : LibXC Library
   Liviu Ungur et al                             : ANISO software


 Your calculation uses the libint2 library for the computation of 2-el integrals
 For citations please refer to: http://libint.valeyev.net

 Your ORCA version has been built with support for libXC version: 6.2.2
 For citations please refer to: https://libxc.gitlab.io

 This ORCA versions uses:
   CBLAS   interface :  Fast vector & matrix operations
   LAPACKE interface :  Fast linear algebra routines
   SCALAPACK package :  Parallel linear algebra routines
   Shared memory     :  Shared parallel matrices
   BLAS/LAPACK       :  OpenBLAS 0.3.27  USE64BITINT DYNAMIC_ARCH NO_AFFINITY SkylakeX SINGLE_THREADED
        Core in use  :  SkylakeX
   Copyright (c) 2011-2014, The OpenBLAS Project


Warning: RI is on but no J-basis has been assigned. Assigning Def2/J (nothing to worry about!)
================================================================================

----- Orbital basis set information -----
Your calculation utilizes the basis: 6-31G*
   H-He, Li-Ne : W. J. Hehre, R. Ditchfield and J.A. Pople, J. Chem. Phys. 56, 2257 (1972).
                 Note: He and Ne are unpublished basis sets taken from the Gaussian program.
                 Note: Li and B from J. D. Dill and J. A. Pople, J. Chem. Phys. 62, 2921 (1975).
   Na - Ar     : M. M. Francl, W. J. Pietro, W. J. Hehre, J. S. Binkley, M. S. Gordon, 
                 D. J. DeFrees and J. A. Pople, J. Chem. Phys. 77, 3654 (1982).
   K - Zn      : V. A. Rassolov, J. A. Pople, M. A. Ratner, and T. L. Windus, J. Chem. Phys. 109, 1223 (1998).

----- AuxJ basis set information -----
Your calculation utilizes the auxiliary basis: def2/J
   F. Weigend, Phys. Chem. Chem. Phys. 8, 1057 (2006).

================================================================================
                                        WARNINGS
                       Please study these warnings very carefully!
================================================================================


================================================================================
                                       INPUT FILE
================================================================================
NAME = /home/nmrbox/aojoawo/Documents/ERDOS/inputs/CHEMBL3953123.inp
|  1> ! B3LYP 6-31G* SP
|  2> 
|  3> * xyz 0 1
|  4> C -1.9381 -0.8726 2.4904
|  5> N -3.1005 -0.5403 1.6734
|  6> N -4.0721 0.2659 2.0896
|  7> C -4.9426 0.3725 1.0671
|  8> C -4.5257 -0.3561 -0.0018
|  9> C -3.3410 -0.9475 0.3991
| 10> C -2.4272 -1.8063 -0.4285
| 11> C -1.4196 -0.9584 -1.1337
| 12> O -1.7415 -0.3752 -2.2034
| 13> N -0.1154 -0.7987 -0.5539
| 14> C 0.9012 -0.1402 -1.0369
| 15> S 0.9458 0.6873 -2.5057
| 16> C 2.5520 1.1487 -2.3298
| 17> C 3.0187 0.6501 -1.1155
| 18> C 4.4097 0.8764 -0.6768
| 19> C 5.4664 0.3304 -1.4162
| 20> C 6.7817 0.5015 -0.9893
| 21> C 7.0598 1.2374 0.1652
| 22> F 8.3510 1.3403 0.5701
| 23> C 6.0134 1.8453 0.8933
| 24> C 6.2862 2.6129 2.1683
| 25> F 6.0811 1.7795 3.2509
| 26> F 7.5848 3.0906 2.2087
| 27> F 5.4363 3.6987 2.2697
| 28> C 4.6832 1.6367 0.4726
| 29> F 3.6495 2.1679 1.1791
| 30> N 2.0998 -0.0766 -0.4002
| 31> C 2.3713 -0.7769 0.8673
| 32> O 2.1453 -2.1643 0.7372
| 33> P 3.4384 -2.8759 -0.1225
| 34> O 3.3829 -2.4618 -1.5751
| 35> O 4.9299 -2.4190 0.5394
| 36> O 3.2885 -4.5584 -0.0279
| 37> C -5.2645 -0.3595 -1.1766
| 38> O -4.8594 -1.0020 -2.1848
| 39> N -6.4398 0.3563 -1.2112
| 40> C -7.2448 0.3847 -2.4436
| 41> C -6.8346 1.1047 -0.1139
| 42> O -7.8998 1.7825 -0.1671
| 43> N -6.0770 1.1234 1.0370
| 44> C -6.5104 1.8920 2.2127
| 45> H -1.8309 -1.9749 2.5667
| 46> H -2.0566 -0.4576 3.5140
| 47> H -1.0244 -0.4377 2.0366
| 48> H -1.9076 -2.5418 0.2208
| 49> H -3.0117 -2.3932 -1.1680
| 50> H 3.1214 1.7355 -3.0358
| 51> H 5.2681 -0.2507 -2.3082
| 52> H 7.5913 0.0528 -1.5511
| 53> H 3.3829 -0.5618 1.2702
| 54> H 1.6684 -0.3892 1.6353
| 55> H 4.8934 -2.7289 1.4790
| 56> H 4.0515 -4.9108 -0.5504
| 57> H -7.1089 -0.5427 -3.0396
| 58> H -8.3294 0.4493 -2.2108
| 59> H -6.9502 1.2599 -3.0602
| 60> H -5.6861 2.0209 2.9448
| 61> H -7.3521 1.3667 2.7119
| 62> H -6.8423 2.9080 1.9078
| 63> *
| 64> 
| 65>                          ****END OF INPUT****
================================================================================

                       ****************************
                       * Single Point Calculation *
                       ****************************

---------------------------------
CARTESIAN COORDINATES (ANGSTROEM)
---------------------------------
  C     -1.938100   -0.872600    2.490400
  N     -3.100500   -0.540300    1.673400
  N     -4.072100    0.265900    2.089600
  C     -4.942600    0.372500    1.067100
  C     -4.525700   -0.356100   -0.001800
  C     -3.341000   -0.947500    0.399100
  C     -2.427200   -1.806300   -0.428500
  C     -1.419600   -0.958400   -1.133700
  O     -1.741500   -0.375200   -2.203400
  N     -0.115400   -0.798700   -0.553900
  C      0.901200   -0.140200   -1.036900
  S      0.945800    0.687300   -2.505700
  C      2.552000    1.148700   -2.329800
  C      3.018700    0.650100   -1.115500
  C      4.409700    0.876400   -0.676800
  C      5.466400    0.330400   -1.416200
  C      6.781700    0.501500   -0.989300
  C      7.059800    1.237400    0.165200
  F      8.351000    1.340300    0.570100
  C      6.013400    1.845300    0.893300
  C      6.286200    2.612900    2.168300
  F      6.081100    1.779500    3.250900
  F      7.584800    3.090600    2.208700
  F      5.436300    3.698700    2.269700
  C      4.683200    1.636700    0.472600
  F      3.649500    2.167900    1.179100
  N      2.099800   -0.076600   -0.400200
  C      2.371300   -0.776900    0.867300
  O      2.145300   -2.164300    0.737200
  P      3.438400   -2.875900   -0.122500
  O      3.382900   -2.461800   -1.575100
  O      4.929900   -2.419000    0.539400
  O      3.288500   -4.558400   -0.027900
  C     -5.264500   -0.359500   -1.176600
  O     -4.859400   -1.002000   -2.184800
  N     -6.439800    0.356300   -1.211200
  C     -7.244800    0.384700   -2.443600
  C     -6.834600    1.104700   -0.113900
  O     -7.899800    1.782500   -0.167100
  N     -6.077000    1.123400    1.037000
  C     -6.510400    1.892000    2.212700
  H     -1.830900   -1.974900    2.566700
  H     -2.056600   -0.457600    3.514000
  H     -1.024400   -0.437700    2.036600
  H     -1.907600   -2.541800    0.220800
  H     -3.011700   -2.393200   -1.168000
  H      3.121400    1.735500   -3.035800
  H      5.268100   -0.250700   -2.308200
  H      7.591300    0.052800   -1.551100
  H      3.382900   -0.561800    1.270200
  H      1.668400   -0.389200    1.635300
  H      4.893400   -2.728900    1.479000
  H      4.051500   -4.910800   -0.550400
  H     -7.108900   -0.542700   -3.039600
  H     -8.329400    0.449300   -2.210800
  H     -6.950200    1.259900   -3.060200
  H     -5.686100    2.020900    2.944800
  H     -7.352100    1.366700    2.711900
  H     -6.842300    2.908000    1.907800

----------------------------
CARTESIAN COORDINATES (A.U.)
----------------------------
  NO LB      ZA    FRAG     MASS         X           Y           Z
   0 C     6.0000    0    12.011   -3.662478   -1.648975    4.706174
   1 N     7.0000    0    14.007   -5.859096   -1.021019    3.162268
   2 N     7.0000    0    14.007   -7.695154    0.502478    3.948772
   3 C     6.0000    0    12.011   -9.340160    0.703923    2.016527
   4 C     6.0000    0    12.011   -8.552334   -0.672931   -0.003402
   5 C     6.0000    0    12.011   -6.313575   -1.790516    0.754190
   6 C     6.0000    0    12.011   -4.586743   -3.413412   -0.809748
   7 C     6.0000    0    12.011   -2.682655   -1.811114   -2.142383
   8 O     8.0000    0    15.999   -3.290958   -0.709025   -4.163823
   9 N     7.0000    0    14.007   -0.218074   -1.509324   -1.046719
  10 C     6.0000    0    12.011    1.703021   -0.264940   -1.959457
  11 S    16.0000    0    32.060    1.787303    1.298809   -4.735087
  12 C     6.0000    0    12.011    4.822581    2.170728   -4.402684
  13 C     6.0000    0    12.011    5.704516    1.228511   -2.107990
  14 C     6.0000    0    12.011    8.333125    1.656156   -1.278967
  15 C     6.0000    0    12.011   10.329999    0.624366   -2.676230
  16 C     6.0000    0    12.011   12.815556    0.947698   -1.869506
  17 C     6.0000    0    12.011   13.341089    2.338347    0.312183
  18 F     9.0000    0    18.998   15.781103    2.532800    1.077333
  19 C     6.0000    0    12.011   11.363679    3.487112    1.688092
  20 C     6.0000    0    12.011   11.879196    4.937665    4.097493
  21 F     9.0000    0    18.998   11.491614    3.362768    6.143311
  22 F     9.0000    0    18.998   14.333195    5.840388    4.173838
  23 F     9.0000    0    18.998   10.273118    6.989530    4.289111
  24 C     6.0000    0    12.011    8.849965    3.092915    0.893085
  25 F     9.0000    0    18.998    6.896556    4.096737    2.228176
  26 N     7.0000    0    14.007    3.968047   -0.144753   -0.756268
  27 C     6.0000    0    12.011    4.481108   -1.468128    1.638959
  28 O     8.0000    0    15.999    4.054029   -4.089934    1.393106
  29 P    15.0000    0    30.974    6.497634   -5.434663   -0.231491
  30 O     8.0000    0    15.999    6.392755   -4.652128   -2.976508
  31 O     8.0000    0    15.999    9.316161   -4.571248    1.019318
  32 O     8.0000    0    15.999    6.214364   -8.614128   -0.052723
  33 C     6.0000    0    12.011   -9.948463   -0.679357   -2.223452
  34 O     8.0000    0    15.999   -9.182935   -1.893506   -4.128674
  35 N     7.0000    0    14.007  -12.169458    0.673309   -2.288836
  36 C     6.0000    0    12.011  -13.690688    0.726978   -4.617735
  37 C     6.0000    0    12.011  -12.915522    2.087580   -0.215240
  38 O     8.0000    0    15.999  -14.928459    3.368437   -0.315773
  39 N     7.0000    0    14.007  -11.483866    2.122918    1.959646
  40 C     6.0000    0    12.011  -12.302873    3.575362    4.181397
  41 H     1.0000    0     1.008   -3.459900   -3.732020    4.850360
  42 H     1.0000    0     1.008   -3.886411   -0.864739    6.640498
  43 H     1.0000    0     1.008   -1.935835   -0.827133    3.848616
  44 H     1.0000    0     1.008   -3.604842   -4.803306    0.417252
  45 H     1.0000    0     1.008   -5.691288   -4.522493   -2.207200
  46 H     1.0000    0     1.008    5.898591    3.279620   -5.736831
  47 H     1.0000    0     1.008    9.955266   -0.473754   -4.361866
  48 H     1.0000    0     1.008   14.345478    0.099778   -2.931154
  49 H     1.0000    0     1.008    6.392755   -1.061648    2.400330
  50 H     1.0000    0     1.008    3.152819   -0.735481    3.090269
  51 H     1.0000    0     1.008    9.247186   -5.156874    2.794905
  52 H     1.0000    0     1.008    7.656225   -9.280067   -1.040105
  53 H     1.0000    0     1.008  -13.433874   -1.025554   -5.744012
  54 H     1.0000    0     1.008  -15.740285    0.849054   -4.177807
  55 H     1.0000    0     1.008  -13.133975    2.380866   -5.782940
  56 H     1.0000    0     1.008  -10.745172    3.818948    5.564866
  57 H     1.0000    0     1.008  -13.893456    2.582689    5.124748
  58 H     1.0000    0     1.008  -12.930073    5.495324    3.605220

--------------------------------
INTERNAL COORDINATES (ANGSTROEM)
--------------------------------
 C      0   0   0     0.000000000000     0.00000000     0.00000000
 N      1   0   0     1.459138804227     0.00000000     0.00000000
 N      2   1   0     1.329356024547   123.02847022     0.00000000
 C      3   2   1     1.347085765644   106.41832456   178.07699536
 C      4   3   2     1.359121326446   110.87438264   359.63760928
 C      2   1   3     1.359224992413   126.70284737   177.70874441
 C      6   2   1     1.502494472536   125.45236378   358.66119287
 C      7   6   2     1.493820340603   110.23223585   273.55528237
 O      8   7   6     1.260158696355   119.41394635   278.59553041
 N      8   7   6     1.436178878135   119.01646931    96.90333073
 C     10   8   7     1.303988807467   127.92168801   177.61464168
 S     11  10   8     1.686451555782   126.22810557   359.01866217
 C     12  11  10     1.680389600658    93.94731724   181.72907392
 C     13  12  11     1.393174554749   108.25037594   359.62385896
 C     14  13  12     1.475991321113   121.32497359   179.33077561
 C     15  14  13     1.400515351576   119.62818138   295.94804623
 C     16  15  14     1.393389001679   120.17222885   182.01334612
 C     17  16  15     1.397053567334   120.38254229   358.88824527
 F     18  17  16     1.357103481684   118.41738288   177.76895928
 C     18  17  16     1.412311927302   120.34945906   358.35375409
 C     20  18  17     1.513028287905   121.27960227   178.19560455
 F     21  20  18     1.381536944855   109.11917019   264.00998390
 F     21  20  18     1.384265657307   111.64232594    24.48244711
 F     21  20  18     1.382596691013   110.45002855   144.24834627
 C     15  14  13     1.404983523035   120.63579243   115.78014846
 F     25  15  14     1.360092415978   119.23266582   359.83239457
 N     11  10   8     1.358702988147   122.53449878   180.98489033
 C     27  11  10     1.473325690402   122.91926004     1.93619188
 O     28  27  11     1.411694290560   110.99914961    57.14452972
 P     29  28  27     1.708088481315   109.54971996    75.82874310
 O     30  29  28     1.511491257004   109.98454143   289.05779923
 O     30  29  28     1.694532817623   110.94124970    50.35801837
 O     30  29  28     1.691811283802   108.60809120   170.04300564
 C      5   4   3     1.387801152903   120.25006083   181.50061136
 O     34   5   4     1.262291368900   120.43243721   177.82360772
 N     34   5   4     1.376552538046   118.32850779   358.04901446
 C     36  34   5     1.472291180440   119.86113669   179.51675562
 C     36  34   5     1.385653957523   120.27904905     2.77729803
 O     38  36  34     1.263682760823   119.77041482   178.38550226
 N      4   3   2     1.360742510543   126.81116704   181.54907173
 C     40   4   3     1.469983676780   121.10656960   357.32124302
 H      1   2   3     1.110125587490   109.97090938   126.17259169
 H      1   2   3     1.110866423113   110.23524229     6.53800147
 H      1   2   3     1.109017646388   109.74972038   247.00411396
 H      7   6   2     1.110195883617   109.94832211    34.56777564
 H      7   6   2     1.110383766992   110.41411557   151.91541934
 H     13  12  11     1.080271539938   125.77175809   179.91609688
 H     16  15  14     1.082896163074   120.39231573     0.32091824
 H     17  16  15     1.082775641580   119.73278139   178.28511723
 H     28  27  11     1.109923862254   112.83779898   183.40675680
 H     28  27  11     1.110947208467   108.19523136   299.07744233
 H     32  30  29     0.990059806274   104.70569550    58.95300795
 H     33  30  29     0.989626702348   104.85054304   179.23011763
 H     37  36  34     1.110745501904   111.47809811    28.76297062
 H     37  36  34     1.111182325273   111.06569041   147.08571803
 H     37  36  34     1.110387211742   109.57023419   267.86002767
 H     41  40   4     1.109980229554   111.67175406    17.12928155
 H     41  40   4     1.110675299086   109.61018478   256.56115971
 H     41  40   4     1.111475424830   110.27872870   136.27297676

---------------------------
INTERNAL COORDINATES (A.U.)
---------------------------
 C      0   0   0     0.000000000000     0.00000000     0.00000000
 N      1   0   0     2.757372731366     0.00000000     0.00000000
 N      2   1   0     2.512118820873   123.02847022     0.00000000
 C      3   2   1     2.545623175970   106.41832456   178.07699536
 C      4   3   2     2.568367089754   110.87438264   359.63760928
 C      2   1   3     2.568562990042   126.70284737   177.70874441
 C      6   2   1     2.839303070823   125.45236378   358.66119287
 C      7   6   2     2.822911337021   110.23223585   273.55528237
 O      8   7   6     2.381354821391   119.41394635   278.59553041
 N      8   7   6     2.713984758997   119.01646931    96.90333073
 C     10   8   7     2.464181727812   127.92168801   177.61464168
 S     11  10   8     3.186931578554   126.22810557   359.01866217
 C     12  11  10     3.175476143533    93.94731724   181.72907392
 C     13  12  11     2.632718365223   108.25037594   359.62385896
 C     14  13  12     2.789219372948   121.32497359   179.33077561
 C     15  14  13     2.646590460831   119.62818138   295.94804623
 C     16  15  14     2.633123611191   120.17222885   182.01334612
 C     17  16  15     2.640048636679   120.38254229   358.88824527
 F     18  17  16     2.564553915775   118.41738288   177.76895928
 C     18  17  16     2.668882758272   120.34945906   358.35375409
 C     20  18  17     2.859209097016   121.27960227   178.19560455
 F     21  20  18     2.610726469671   109.11917019   264.00998390
 F     21  20  18     2.615882988903   111.64232594    24.48244711
 F     21  20  18     2.612729099680   110.45002855   144.24834627
 C     15  14  13     2.655034081208   120.63579243   115.78014846
 F     25  15  14     2.570202183021   119.23266582   359.83239457
 N     11  10   8     2.567576544939   122.53449878   180.98489033
 C     27  11  10     2.784182060931   122.91926004     1.93619188
 O     28  27  11     2.667715593979   110.99914961    57.14452972
 P     29  28  27     3.227819442190   109.54971996    75.82874310
 O     30  29  28     2.856304529554   109.98454143   289.05779923
 O     30  29  28     3.202202950249   110.94124970    50.35801837
 O     30  29  28     3.197059996664   108.60809120   170.04300564
 C      5   4   3     2.622564107328   120.25006083   181.50061136
 O     34   5   4     2.385384988434   120.43243721   177.82360772
 N     34   5   4     2.601307305861   118.32850779   358.04901446
 C     36  34   5     2.782227120418   119.86113669   179.51675562
 C     36  34   5     2.618506496103   120.27904905     2.77729803
 O     38  36  34     2.388014338112   119.77041482   178.38550226
 N      4   3   2     2.571430683712   126.81116704   181.54907173
 C     40   4   3     2.777866570449   121.10656960   357.32124302
 H      1   2   3     2.097833334615   109.97090938   126.17259169
 H      1   2   3     2.099233311052   110.23524229     6.53800147
 H      1   2   3     2.095739629359   109.74972038   247.00411396
 H      7   6   2     2.097966175043   109.94832211    34.56777564
 H      7   6   2     2.098321223167   110.41411557   151.91541934
 H     13  12  11     2.041417360752   125.77175809   179.91609688
 H     16  15  14     2.046377179684   120.39231573     0.32091824
 H     17  16  15     2.046149427068   119.73278139   178.28511723
 H     28  27  11     2.097452129163   112.83779898   183.40675680
 H     28  27  11     2.099385973246   108.19523136   299.07744233
 H     32  30  29     1.870941890062   104.70569550    58.95300795
 H     33  30  29     1.870123442253   104.85054304   179.23011763
 H     37  36  34     2.099004803083   111.47809811    28.76297062
 H     37  36  34     2.099830279621   111.06569041   147.08571803
 H     37  36  34     2.098327732801   109.57023419   267.86002767
 H     41  40   4     2.097558647923   111.67175406    17.12928155
 H     41  40   4     2.098872138984   109.61018478   256.56115971
 H     41  40   4     2.100384157512   110.27872870   136.27297676

---------------------
BASIS SET INFORMATION
---------------------
There are 7 groups of distinct atoms

 Group   1 Type C   : 10s4p1d contracted to 3s2p1d pattern {631/31/1}
 Group   2 Type N   : 10s4p1d contracted to 3s2p1d pattern {631/31/1}
 Group   3 Type O   : 10s4p1d contracted to 3s2p1d pattern {631/31/1}
 Group   4 Type S   : 16s10p1d contracted to 4s3p1d pattern {6631/631/1}
 Group   5 Type F   : 10s4p1d contracted to 3s2p1d pattern {631/31/1}
 Group   6 Type P   : 16s10p1d contracted to 4s3p1d pattern {6631/631/1}
 Group   7 Type H   : 4s contracted to 2s pattern {31}

Atom   0C    basis set group =>   1
Atom   1N    basis set group =>   2
Atom   2N    basis set group =>   2
Atom   3C    basis set group =>   1
Atom   4C    basis set group =>   1
Atom   5C    basis set group =>   1
Atom   6C    basis set group =>   1
Atom   7C    basis set group =>   1
Atom   8O    basis set group =>   3
Atom   9N    basis set group =>   2
Atom  10C    basis set group =>   1
Atom  11S    basis set group =>   4
Atom  12C    basis set group =>   1
Atom  13C    basis set group =>   1
Atom  14C    basis set group =>   1
Atom  15C    basis set group =>   1
Atom  16C    basis set group =>   1
Atom  17C    basis set group =>   1
Atom  18F    basis set group =>   5
Atom  19C    basis set group =>   1
Atom  20C    basis set group =>   1
Atom  21F    basis set group =>   5
Atom  22F    basis set group =>   5
Atom  23F    basis set group =>   5
Atom  24C    basis set group =>   1
Atom  25F    basis set group =>   5
Atom  26N    basis set group =>   2
Atom  27C    basis set group =>   1
Atom  28O    basis set group =>   3
Atom  29P    basis set group =>   6
Atom  30O    basis set group =>   3
Atom  31O    basis set group =>   3
Atom  32O    basis set group =>   3
Atom  33C    basis set group =>   1
Atom  34O    basis set group =>   3
Atom  35N    basis set group =>   2
Atom  36C    basis set group =>   1
Atom  37C    basis set group =>   1
Atom  38O    basis set group =>   3
Atom  39N    basis set group =>   2
Atom  40C    basis set group =>   1
Atom  41H    basis set group =>   7
Atom  42H    basis set group =>   7
Atom  43H    basis set group =>   7
Atom  44H    basis set group =>   7
Atom  45H    basis set group =>   7
Atom  46H    basis set group =>   7
Atom  47H    basis set group =>   7
Atom  48H    basis set group =>   7
Atom  49H    basis set group =>   7
Atom  50H    basis set group =>   7
Atom  51H    basis set group =>   7
Atom  52H    basis set group =>   7
Atom  53H    basis set group =>   7
Atom  54H    basis set group =>   7
Atom  55H    basis set group =>   7
Atom  56H    basis set group =>   7
Atom  57H    basis set group =>   7
Atom  58H    basis set group =>   7
---------------------------------
AUXILIARY/J BASIS SET INFORMATION
---------------------------------
There are 7 groups of distinct atoms

 Group   1 Type C   : 12s5p4d2f1g contracted to 6s4p3d1f1g pattern {711111/2111/211/2/1}
 Group   2 Type N   : 12s5p4d2f1g contracted to 6s4p3d1f1g pattern {711111/2111/211/2/1}
 Group   3 Type O   : 12s5p4d2f1g contracted to 6s4p3d1f1g pattern {711111/2111/211/2/1}
 Group   4 Type S   : 14s5p5d2f1g contracted to 8s4p3d1f1g pattern {71111111/2111/311/2/1}
 Group   5 Type F   : 12s5p4d2f1g contracted to 6s4p3d1f1g pattern {711111/2111/211/2/1}
 Group   6 Type P   : 14s5p5d2f1g contracted to 8s4p3d1f1g pattern {71111111/2111/311/2/1}
 Group   7 Type H   : 5s2p1d contracted to 3s1p1d pattern {311/2/1}

Atom   0C    basis set group =>   1
Atom   1N    basis set group =>   2
Atom   2N    basis set group =>   2
Atom   3C    basis set group =>   1
Atom   4C    basis set group =>   1
Atom   5C    basis set group =>   1
Atom   6C    basis set group =>   1
Atom   7C    basis set group =>   1
Atom   8O    basis set group =>   3
Atom   9N    basis set group =>   2
Atom  10C    basis set group =>   1
Atom  11S    basis set group =>   4
Atom  12C    basis set group =>   1
Atom  13C    basis set group =>   1
Atom  14C    basis set group =>   1
Atom  15C    basis set group =>   1
Atom  16C    basis set group =>   1
Atom  17C    basis set group =>   1
Atom  18F    basis set group =>   5
Atom  19C    basis set group =>   1
Atom  20C    basis set group =>   1
Atom  21F    basis set group =>   5
Atom  22F    basis set group =>   5
Atom  23F    basis set group =>   5
Atom  24C    basis set group =>   1
Atom  25F    basis set group =>   5
Atom  26N    basis set group =>   2
Atom  27C    basis set group =>   1
Atom  28O    basis set group =>   3
Atom  29P    basis set group =>   6
Atom  30O    basis set group =>   3
Atom  31O    basis set group =>   3
Atom  32O    basis set group =>   3
Atom  33C    basis set group =>   1
Atom  34O    basis set group =>   3
Atom  35N    basis set group =>   2
Atom  36C    basis set group =>   1
Atom  37C    basis set group =>   1
Atom  38O    basis set group =>   3
Atom  39N    basis set group =>   2
Atom  40C    basis set group =>   1
Atom  41H    basis set group =>   7
Atom  42H    basis set group =>   7
Atom  43H    basis set group =>   7
Atom  44H    basis set group =>   7
Atom  45H    basis set group =>   7
Atom  46H    basis set group =>   7
Atom  47H    basis set group =>   7
Atom  48H    basis set group =>   7
Atom  49H    basis set group =>   7
Atom  50H    basis set group =>   7
Atom  51H    basis set group =>   7
Atom  52H    basis set group =>   7
Atom  53H    basis set group =>   7
Atom  54H    basis set group =>   7
Atom  55H    basis set group =>   7
Atom  56H    basis set group =>   7
Atom  57H    basis set group =>   7
Atom  58H    basis set group =>   7
------------------------------------------------------------------------------
                             ORCA STARTUP CALCULATIONS
                           -- RI-GTO INTEGRALS CHOSEN --
------------------------------------------------------------------------------
------------------------------------------------------------------------------
                   ___                                                        
                  /   \      - P O W E R E D   B Y -                         
                 /     \                                                     
                 |  |  |   _    _      __       _____    __    __             
                 |  |  |  | |  | |    /  \     |  _  \  |  |  /  |          
                  \  \/   | |  | |   /    \    | | | |  |  | /  /          
                 / \  \   | |__| |  /  /\  \   | |_| |  |  |/  /          
                |  |  |   |  __  | /  /__\  \  |    /   |      \           
                |  |  |   | |  | | |   __   |  |    \   |  |\   \          
                \     /   | |  | | |  |  |  |  | |\  \  |  | \   \       
                 \___/    |_|  |_| |__|  |__|  |_| \__\ |__|  \__/        
                                                                              
                      - O R C A' S   B I G   F R I E N D -                    
                                      &                                       
                       - I N T E G R A L  F E E D E R -                       
                                                                              
 v1 FN, 2020, v2 2021, v3 2022-2024                                           
------------------------------------------------------------------------------


----------------------
SHARK INTEGRAL PACKAGE
----------------------

Number of atoms                             ...     59
Number of basis functions                   ...    618
Number of shells                            ...    286
Maximum angular momentum                    ...      2
Integral batch strategy                     ... SHARK/LIBINT Hybrid
RI-J (if used) integral strategy            ... SPLIT-RIJ (Revised 2003 algorithm where possible)
Printlevel                                  ...      1
Contraction scheme used                     ... SEGMENTED contraction
Prescreening option                         ... SCHWARTZ
   Thresh                                   ... 1.000e-10
   Tcut                                     ... 1.000e-11
   Tpresel                                  ... 1.000e-11 
Coulomb Range Separation                    ... NOT USED
Exchange Range Separation                   ... NOT USED
Multipole approximations                    ... NOT USED
Finite Nucleus Model                        ... NOT USED
CABS basis                                  ... NOT available
Auxiliary Coulomb fitting basis             ... AVAILABLE
   # of basis functions in Aux-J            ...   2211
   # of shells in Aux-J                     ...    709
   Maximum angular momentum in Aux-J        ...      4
Auxiliary J/K fitting basis                 ... NOT available
Auxiliary Correlation fitting basis         ... NOT available
Auxiliary 'external' fitting basis          ... NOT available

Checking pre-screening integrals            ... done (  0.0 sec) Dimension = 286
Check shell pair data                       ... done (  0.0 sec)
Shell pair information
Shell pair cut-off parameter TPreSel        ...   1.0e-11
Total number of shell pairs                 ...     41041
Shell pairs after pre-screening             ...     19064
Total number of primitive shell pairs       ...    254091
Primitive shell pairs kept                  ...     59787
          la=0 lb=0:   5629 shell pairs
          la=1 lb=0:   6786 shell pairs
          la=1 lb=1:   2066 shell pairs
          la=2 lb=0:   2599 shell pairs
          la=2 lb=1:   1651 shell pairs
          la=2 lb=2:    333 shell pairs

Calculating one electron integrals          ... done (  0.3 sec)
Calculating RI/J V-Matrix + Cholesky decomp.... done (  0.6 sec)
Calculating Nuclear repulsion               ... done (  0.0 sec) ENN=   5407.337395745637 Eh

Diagonalization of the overlap matrix:
Smallest eigenvalue                        ... 5.210e-04
Time for diagonalization                   ...    0.078 sec
Threshold for overlap eigenvalues          ... 1.000e-07
Number of eigenvalues below threshold      ... 0
Time for construction of square roots      ...    0.176 sec
Total time needed                          ...    0.264 sec

-------------------
DFT GRID GENERATION
-------------------

General Integration Accuracy     IntAcc      ... 4.388
Radial Grid Type                 RadialGrid  ... OptM3 with GC (2021)
Angular Grid (max. ang.)         AngularGrid ... 4 (Lebedev-302)
Angular grid pruning method      GridPruning ... 4 (adaptive)
Weight generation scheme         WeightScheme... mBecke (2022)
Basis function cutoff            BFCut       ... 1.0000e-10
Integration weight cutoff        WCut        ... 1.0000e-14
Partially contracted basis set               ... off
Rotationally invariant grid construction     ... off
Angular grids for H and He will be reduced by one unit

Total number of grid points                  ...   305444
Total number of batches                      ...     4799
Average number of points per batch           ...       63
Average number of grid points per atom       ...     5177

--------------------
COSX GRID GENERATION
--------------------

GRIDX 1
-------
General Integration Accuracy     IntAcc      ... 3.816
Radial Grid Type                 RadialGrid  ... OptM3 with GC (2021)
Angular Grid (max. ang.)         AngularGrid ... 1 (Lebedev-50)
Angular grid pruning method      GridPruning ... 4 (adaptive)
Weight generation scheme         WeightScheme... mBecke (2022)
Basis function cutoff            BFCut       ... 1.0000e-10
Integration weight cutoff        WCut        ... 1.0000e-14
Partially contracted basis set               ... on
Rotationally invariant grid construction     ... off
Angular grids for H and He will be reduced by one unit

Total number of grid points                  ...    40605
Total number of batches                      ...      352
Average number of points per batch           ...      115
Average number of grid points per atom       ...      688
UseSFitting                                  ... on

GRIDX 2
-------
General Integration Accuracy     IntAcc      ... 4.020
Radial Grid Type                 RadialGrid  ... OptM3 with GC (2021)
Angular Grid (max. ang.)         AngularGrid ... 2 (Lebedev-110)
Angular grid pruning method      GridPruning ... 4 (adaptive)
Weight generation scheme         WeightScheme... mBecke (2022)
Basis function cutoff            BFCut       ... 1.0000e-10
Integration weight cutoff        WCut        ... 1.0000e-14
Partially contracted basis set               ... on
Rotationally invariant grid construction     ... off
Angular grids for H and He will be reduced by one unit

Total number of grid points                  ...    85593
Total number of batches                      ...      703
Average number of points per batch           ...      121
Average number of grid points per atom       ...     1451
UseSFitting                                  ... on

GRIDX 3
-------
General Integration Accuracy     IntAcc      ... 4.338
Radial Grid Type                 RadialGrid  ... OptM3 with GC (2021)
Angular Grid (max. ang.)         AngularGrid ... 3 (Lebedev-194)
Angular grid pruning method      GridPruning ... 4 (adaptive)
Weight generation scheme         WeightScheme... mBecke (2022)
Basis function cutoff            BFCut       ... 1.0000e-10
Integration weight cutoff        WCut        ... 1.0000e-14
Partially contracted basis set               ... on
Rotationally invariant grid construction     ... off
Angular grids for H and He will be reduced by one unit

Total number of grid points                  ...   188673
Total number of batches                      ...     1506
Average number of points per batch           ...      125
Average number of grid points per atom       ...     3198
UseSFitting                                  ... on
Initializing property integral containers    ... done (  0.1 sec)

SHARK setup successfully completed in  19.0 seconds

Maximum memory used throughout the entire STARTUP-calculation: 133.3 MB
-------------------------------------------------------------------------------
                                 ORCA GUESS
                   Start orbitals & Density for SCF / CASSCF
-------------------------------------------------------------------------------

------------
SCF SETTINGS
------------
Hamiltonian:
 Density Functional     Method          .... DFT(GTOs)
 Exchange Functional    Exchange        .... B88
   X-Alpha parameter    XAlpha          ....  0.666667
   Becke's b parameter  XBeta           ....  0.004200
 Correlation Functional Correlation     .... LYP
 LDA part of GGA corr.  LDAOpt          .... VWN-5
 Gradients option       PostSCFGGA      .... off
 Hybrid DFT is turned on
   Fraction HF Exchange ScalHFX         ....  0.200000
   Scaling of DF-GGA-X  ScalDFX         ....  0.720000
   Scaling of DF-GGA-C  ScalDFC         ....  0.810000
   Scaling of DF-LDA-C  ScalLDAC        ....  1.000000
   Perturbative correction              ....  0.000000
   NL short-range parameter             ....  4.800000
 RI-approximation to the Coulomb term is turned on
   Number of AuxJ basis functions       .... 2211
   RIJ-COSX (HFX calculated with COS-X)).... on


General Settings:
 Integral files         IntName         .... /home/nmrbox/aojoawo/Documents/ERDOS/inputs/CHEMBL3953123
 Hartree-Fock type      HFTyp           .... RHF
 Total Charge           Charge          ....    0
 Multiplicity           Mult            ....    1
 Number of Electrons    NEL             ....  318
 Basis Dimension        Dim             ....  618
 Nuclear Repulsion      ENuc            ....   5407.3373957456 Eh

Convergence Acceleration:
 AO-DIIS                CNVDIIS         .... on
   Start iteration      DIISMaxIt       ....    12
   Startup error        DIISStart       ....  0.200000
   # of expansion vecs  DIISMaxEq       ....     5
   Bias factor          DIISBfac        ....   1.050
   Max. coefficient     DIISMaxC        ....  10.000
 MO-DIIS                CNVKDIIS        .... off
 Trust-Rad. Augm. Hess. CNVTRAH         .... auto
   Auto Start mean grad. ratio tolernc. ....  1.125000
   Auto Start start iteration           ....    50
   Auto Start num. interpolation iter.  ....    10
   Max. Number of Micro iterations      ....    24
   Max. Number of Macro iterations      .... Maxiter - #DIIS iter
   Number of Davidson start vectors     ....     2
   Converg. threshold    (grad. norm)   ....   5.000e-05
   Grad. Scal. Fac. for Micro threshold ....   0.100
   Minimum threshold for Micro iter.    ....   1.000e-02
   NR start threshold (gradient norm)   ....   1.000e-04
   Initial trust radius                 ....   0.400
   Minimum AH scaling param. (alpha)    ....   1.000
   Maximum AH scaling param. (alpha)    .... 1000.000
   Quad. conv. algorithm                .... NR
   White noise on init. David. guess    .... on
   Maximum white noise                  ....   0.010
   Pseudo random numbers                .... off
   Inactive MOs                         .... canonical
   Orbital update algorithm             .... Taylor
   Preconditioner                       .... Diag
   Full preconditioner red. dimension   ....   250
 SOSCF                  CNVSOSCF        .... on
   Start iteration      SOSCFMaxIt      ....   150
   Startup grad/error   SOSCFStart      ....  0.003300
   Hessian update       SOSCFHessUp     .... L-BFGS
 Level Shifting         CNVShift        .... on
   Level shift para.    LevelShift      ....    0.2500
   Turn off err/grad.   ShiftErr        ....    0.0010
 Zerner damping         CNVZerner       .... off
 Static damping         CNVDamp         .... on
   Fraction old density DampFac         ....    0.7000
   Max. Damping (<1)    DampMax         ....    0.9800
   Min. Damping (>=0)   DampMin         ....    0.0000
   Turn off err/grad.   DampErr         ....    0.1000

SCF Procedure:
 Maximum # iterations   MaxIter         ....   125
 SCF integral mode      SCFMode         .... Direct
   Integral package                     .... SHARK and LIBINT hybrid scheme
 Reset frequency        DirectResetFreq ....    20
 Integral Threshold     Thresh          ....  1.000e-10 Eh
 Primitive CutOff       TCut            ....  1.000e-11 Eh

Convergence Tolerance:
 Convergence Check Mode ConvCheckMode   .... Total+1el-Energy
 Convergence forced     ConvForced      .... 0
 Energy Change          TolE            ....  1.000e-06 Eh
 1-El. energy change                    ....  1.000e-03 Eh
 Orbital Gradient       TolG            ....  5.000e-05
 Orbital Rotation angle TolX            ....  5.000e-05
 DIIS Error             TolErr          ....  1.000e-06

------------------------------
INITIAL GUESS: MODEL POTENTIAL
------------------------------
Loading Hartree-Fock densities                     ... done
Calculating cut-offs                               ... done
Initializing the effective Hamiltonian             ... done
Setting up the integral package (SHARK)            ... done
Starting the Coulomb interaction                   ... done (   5.6 sec)
Making the grid                                    ... done (   2.4 sec)
Mapping shells                                     ... done
Starting the XC term evaluation                    ... done (   1.6 sec)
  promolecular density results
     # of electrons  =    318.001951866
     EX              =   -308.236242254
     EC              =    -11.496418391
     EX+EC           =   -319.732660645
Transforming the Hamiltonian                       ... done (   0.0 sec)
Diagonalizing the Hamiltonian                      ... done (   0.1 sec)
Back transforming the eigenvectors                 ... done (   0.0 sec)
Now organizing SCF variables                       ... done
                      ------------------
                      INITIAL GUESS DONE (   9.7 sec)
                      ------------------
             **** ENERGY FILE WAS UPDATED (/home/nmrbox/aojoawo/Documents/ERDOS/inputs/CHEMBL3953123.en.tmp) ****
Finished Guess after  10.0 sec
Maximum memory used throughout the entire GUESS-calculation: 74.6 MB

-------------------------------------------------------------------------------------------
                                      ORCA LEAN-SCF
                              memory conserving SCF solver
-------------------------------------------------------------------------------------------

----------------------------------------D-I-I-S--------------------------------------------
Iteration    Energy (Eh)           Delta-E    RMSDP     MaxDP     DIISErr   Damp  Time(sec)
-------------------------------------------------------------------------------------------
               ***  Starting incremental Fock matrix formation  ***
    1    -2902.4924615697836998     0.00e+00  2.30e-03  1.78e-01  3.53e-01  0.700  98.1
Warning: op=0 Small HOMO/LUMO gap (   0.085) - skipping pre-diagonalization
         Will do a full diagonalization
    2    -2903.0745088366547861    -5.82e-01  1.31e-03  7.67e-02  1.14e-01  0.700  42.9
                               ***Turning on AO-DIIS***
    3    -2903.2704723098413524    -1.96e-01  4.88e-04  2.01e-02  3.36e-02  0.700  41.8
    4    -2903.3934679475769371    -1.23e-01  8.20e-04  4.69e-02  1.62e-02  0.000  37.4
    5    -2903.6745434091299103    -2.81e-01  2.08e-04  9.50e-03  6.68e-03  0.000  39.4
                              *** Initializing SOSCF ***
---------------------------------------S-O-S-C-F--------------------------------------
Iteration    Energy (Eh)           Delta-E    RMSDP     MaxDP     MaxGrad    Time(sec)
--------------------------------------------------------------------------------------
    6    -2903.6762688604212599    -1.73e-03  7.45e-05  4.06e-03  3.04e-03    34.6
               *** Restarting incremental Fock matrix formation ***
    7    -2903.6764071570887609    -1.38e-04  6.86e-05  4.24e-03  6.92e-04    98.4
    8    -2903.6763389638217632     6.82e-05  4.28e-05  2.83e-03  1.66e-03    56.5
    9    -2903.6764588948917662    -1.20e-04  1.47e-05  8.25e-04  1.18e-04    48.4
   10    -2903.6764545980349794     4.30e-06  9.19e-06  5.91e-04  2.71e-04    41.7
   11    -2903.6764608630091971    -6.26e-06  3.41e-06  1.65e-04  4.80e-05    36.9
   12    -2903.6764608210869483     4.19e-08  1.94e-06  9.75e-05  6.83e-05    31.6
                 **** Energy Check signals convergence ****

               *****************************************************
               *                     SUCCESS                       *
               *           SCF CONVERGED AFTER  12 CYCLES          *
               *****************************************************

Recomputing exchange energy using gridx3       ... done (  171.598 sec)
Old exchange energy                            :    -62.124278597 Eh
New exchange energy                            :    -62.124313849 Eh
Exchange energy change after final integration :     -0.000035252 Eh
Total energy after final integration           :  -2903.676496073 Eh
             **** ENERGY FILE WAS UPDATED (/home/nmrbox/aojoawo/Documents/ERDOS/inputs/CHEMBL3953123.en.tmp) ****

----------------
TOTAL SCF ENERGY
----------------

Total Energy       :      -2903.67649607336443 Eh          -79013.05440 eV

Components:
Nuclear Repulsion  :       5407.33739574563697 Eh          147141.13105 eV
Electronic Energy  :      -8311.01385656672392 Eh         -226154.18449 eV
One Electron Energy:     -14762.94565063558548 Eh         -401720.17421 eV
Two Electron Energy:       6451.93179406886156 Eh          175565.98972 eV

Virial components:
Potential Energy   :      -5792.68438423052066 Eh         -157626.95569 eV
Kinetic Energy     :       2889.00788815715623 Eh           78613.90129 eV
Virial Ratio       :          2.00507738589996

DFT components:
N(Alpha)           :      159.000130971807 electrons
N(Beta)            :      159.000130971807 electrons
N(Total)           :      318.000261943613 electrons
E(X)               :     -247.121779287698 Eh       
E(C)               :      -13.471601293579 Eh       
E(XC)              :     -260.593380581277 Eh       

---------------
SCF CONVERGENCE
---------------

  Last Energy change         ...   -4.1922e-08  Tolerance :   1.0000e-06
  Last MAX-Density change    ...    9.7534e-05  Tolerance :   1.0000e-05
  Last RMS-Density change    ...    1.9411e-06  Tolerance :   1.0000e-06
  Last DIIS Error            ...    3.0429e-03  Tolerance :   1.0000e-06
  Last Orbital Gradient      ...    6.8275e-05  Tolerance :   5.0000e-05
  Last Orbital Rotation      ...    1.4120e-04  Tolerance :   5.0000e-05


----------------
ORBITAL ENERGIES
----------------

  NO   OCC          E(Eh)            E(eV) 
   0   2.0000     -88.899311     -2419.0732 
   1   2.0000     -77.279100     -2102.8712 
   2   2.0000     -24.745986      -673.3725 
   3   2.0000     -24.734315      -673.0549 
   4   2.0000     -24.734211      -673.0521 
   5   2.0000     -24.732048      -672.9932 
   6   2.0000     -24.731522      -672.9789 
   7   2.0000     -19.236254      -523.4451 
   8   2.0000     -19.228728      -523.2403 
   9   2.0000     -19.219343      -522.9849 
  10   2.0000     -19.125127      -520.4212 
  11   2.0000     -19.107345      -519.9373 
  12   2.0000     -19.093290      -519.5548 
  13   2.0000     -19.087840      -519.4065 
  14   2.0000     -14.420281      -392.3958 
  15   2.0000     -14.418722      -392.3534 
  16   2.0000     -14.379433      -391.2843 
  17   2.0000     -14.375348      -391.1731 
  18   2.0000     -14.336697      -390.1214 
  19   2.0000     -14.308094      -389.3430 
  20   2.0000     -10.458140      -284.5805 
  21   2.0000     -10.326279      -280.9923 
  22   2.0000     -10.321778      -280.8699 
  23   2.0000     -10.318504      -280.7808 
  24   2.0000     -10.308111      -280.4980 
  25   2.0000     -10.296412      -280.1796 
  26   2.0000     -10.278957      -279.7046 
  27   2.0000     -10.270993      -279.4879 
  28   2.0000     -10.260403      -279.1998 
  29   2.0000     -10.250255      -278.9236 
  30   2.0000     -10.240378      -278.6549 
  31   2.0000     -10.236738      -278.5558 
  32   2.0000     -10.232276      -278.4344 
  33   2.0000     -10.232014      -278.4273 
  34   2.0000     -10.229421      -278.3567 
  35   2.0000     -10.223864      -278.2055 
  36   2.0000     -10.222777      -278.1759 
  37   2.0000     -10.211405      -277.8664 
  38   2.0000     -10.201617      -277.6001 
  39   2.0000     -10.190658      -277.3019 
  40   2.0000     -10.168036      -276.6863 
  41   2.0000      -7.976855      -217.0613 
  42   2.0000      -6.731827      -183.1823 
  43   2.0000      -5.940164      -161.6401 
  44   2.0000      -5.935821      -161.5219 
  45   2.0000      -5.933138      -161.4489 
  46   2.0000      -4.895917      -133.2247 
  47   2.0000      -4.894970      -133.1989 
  48   2.0000      -4.892826      -133.1406 
  49   2.0000      -1.295465       -35.2514 
  50   2.0000      -1.257045       -34.2059 
  51   2.0000      -1.247090       -33.9350 
  52   2.0000      -1.220320       -33.2066 
  53   2.0000      -1.216523       -33.1033 
  54   2.0000      -1.120095       -30.4793 
  55   2.0000      -1.083558       -29.4851 
  56   2.0000      -1.066370       -29.0174 
  57   2.0000      -1.061185       -28.8763 
  58   2.0000      -1.041883       -28.3511 
  59   2.0000      -1.033673       -28.1277 
  60   2.0000      -1.001141       -27.2424 
  61   2.0000      -0.996675       -27.1209 
  62   2.0000      -0.969827       -26.3903 
  63   2.0000      -0.950931       -25.8762 
  64   2.0000      -0.917519       -24.9670 
  65   2.0000      -0.910082       -24.7646 
  66   2.0000      -0.888884       -24.1878 
  67   2.0000      -0.857466       -23.3328 
  68   2.0000      -0.840730       -22.8774 
  69   2.0000      -0.825100       -22.4521 
  70   2.0000      -0.817403       -22.2427 
  71   2.0000      -0.800397       -21.7799 
  72   2.0000      -0.758104       -20.6290 
  73   2.0000      -0.746980       -20.3264 
  74   2.0000      -0.738972       -20.1085 
  75   2.0000      -0.720224       -19.5983 
  76   2.0000      -0.714445       -19.4410 
  77   2.0000      -0.709458       -19.3053 
  78   2.0000      -0.695946       -18.9376 
  79   2.0000      -0.662591       -18.0300 
  80   2.0000      -0.659242       -17.9389 
  81   2.0000      -0.656002       -17.8507 
  82   2.0000      -0.639467       -17.4008 
  83   2.0000      -0.634097       -17.2546 
  84   2.0000      -0.629422       -17.1274 
  85   2.0000      -0.607603       -16.5337 
  86   2.0000      -0.597065       -16.2470 
  87   2.0000      -0.589712       -16.0469 
  88   2.0000      -0.586666       -15.9640 
  89   2.0000      -0.585474       -15.9316 
  90   2.0000      -0.583679       -15.8827 
  91   2.0000      -0.579747       -15.7757 
  92   2.0000      -0.567303       -15.4371 
  93   2.0000      -0.549276       -14.9466 
  94   2.0000      -0.547466       -14.8973 
  95   2.0000      -0.540392       -14.7048 
  96   2.0000      -0.527948       -14.3662 
  97   2.0000      -0.523268       -14.2388 
  98   2.0000      -0.521063       -14.1788 
  99   2.0000      -0.514198       -13.9920 
 100   2.0000      -0.504661       -13.7325 
 101   2.0000      -0.497475       -13.5370 
 102   2.0000      -0.490441       -13.3456 
 103   2.0000      -0.487782       -13.2732 
 104   2.0000      -0.485096       -13.2001 
 105   2.0000      -0.482581       -13.1317 
 106   2.0000      -0.478813       -13.0292 
 107   2.0000      -0.475855       -12.9487 
 108   2.0000      -0.474303       -12.9064 
 109   2.0000      -0.470578       -12.8051 
 110   2.0000      -0.462746       -12.5920 
 111   2.0000      -0.460816       -12.5394 
 112   2.0000      -0.458915       -12.4877 
 113   2.0000      -0.454511       -12.3679 
 114   2.0000      -0.451991       -12.2993 
 115   2.0000      -0.444287       -12.0897 
 116   2.0000      -0.438975       -11.9451 
 117   2.0000      -0.434120       -11.8130 
 118   2.0000      -0.432754       -11.7758 
 119   2.0000      -0.429857       -11.6970 
 120   2.0000      -0.427131       -11.6228 
 121   2.0000      -0.425808       -11.5868 
 122   2.0000      -0.420748       -11.4491 
 123   2.0000      -0.415296       -11.3008 
 124   2.0000      -0.414406       -11.2766 
 125   2.0000      -0.411228       -11.1901 
 126   2.0000      -0.405662       -11.0386 
 127   2.0000      -0.403721       -10.9858 
 128   2.0000      -0.402544       -10.9538 
 129   2.0000      -0.398656       -10.8480 
 130   2.0000      -0.391052       -10.6411 
 131   2.0000      -0.389253       -10.5921 
 132   2.0000      -0.387428       -10.5424 
 133   2.0000      -0.384117       -10.4523 
 134   2.0000      -0.380498       -10.3539 
 135   2.0000      -0.376074       -10.2335 
 136   2.0000      -0.374772       -10.1981 
 137   2.0000      -0.372350       -10.1322 
 138   2.0000      -0.370098       -10.0709 
 139   2.0000      -0.362372        -9.8606 
 140   2.0000      -0.359408        -9.7800 
 141   2.0000      -0.357284        -9.7222 
 142   2.0000      -0.350906        -9.5486 
 143   2.0000      -0.317071        -8.6279 
 144   2.0000      -0.311029        -8.4635 
 145   2.0000      -0.308301        -8.3893 
 146   2.0000      -0.304653        -8.2900 
 147   2.0000      -0.297137        -8.0855 
 148   2.0000      -0.292823        -7.9681 
 149   2.0000      -0.285943        -7.7809 
 150   2.0000      -0.278442        -7.5768 
 151   2.0000      -0.275810        -7.5052 
 152   2.0000      -0.253986        -6.9113 
 153   2.0000      -0.246259        -6.7010 
 154   2.0000      -0.241385        -6.5684 
 155   2.0000      -0.227619        -6.1938 
 156   2.0000      -0.219532        -5.9738 
 157   2.0000      -0.208981        -5.6866 
 158   2.0000      -0.207512        -5.6467 
 159   0.0000      -0.058308        -1.5866 
 160   0.0000      -0.046926        -1.2769 
 161   0.0000      -0.046735        -1.2717 
 162   0.0000      -0.036049        -0.9809 
 163   0.0000      -0.014003        -0.3810 
 164   0.0000       0.002702         0.0735 
 165   0.0000       0.023676         0.6443 
 166   0.0000       0.033529         0.9124 
 167   0.0000       0.039228         1.0675 
 168   0.0000       0.044283         1.2050 
 169   0.0000       0.047370         1.2890 
*Only the first 10 virtual orbitals were printed.

                    ********************************
                    * MULLIKEN POPULATION ANALYSIS *
                    ********************************

-----------------------
MULLIKEN ATOMIC CHARGES
-----------------------
   0 C :   -0.329793
   1 N :   -0.252983
   2 N :   -0.353640
   3 C :    0.450910
   4 C :   -0.044668
   5 C :    0.295178
   6 C :   -0.397401
   7 C :    0.483807
   8 O :   -0.432238
   9 N :   -0.519783
  10 C :    0.288176
  11 S :    0.331788
  12 C :   -0.381867
  13 C :    0.274246
  14 C :   -0.070793
  15 C :   -0.097932
  16 C :   -0.211417
  17 C :    0.409146
  18 F :   -0.293988
  19 C :   -0.214925
  20 C :    0.931826
  21 F :   -0.296911
  22 F :   -0.295536
  23 F :   -0.295726
  24 C :    0.369449
  25 F :   -0.295246
  26 N :   -0.377255
  27 C :    0.022398
  28 O :   -0.497826
  29 P :    1.260336
  30 O :   -0.565830
  31 O :   -0.657137
  32 O :   -0.655585
  33 C :    0.504577
  34 O :   -0.491560
  35 N :   -0.487587
  36 C :   -0.311192
  37 C :    0.675054
  38 O :   -0.514781
  39 N :   -0.493620
  40 C :   -0.319240
  41 H :    0.176791
  42 H :    0.189667
  43 H :    0.190480
  44 H :    0.155787
  45 H :    0.218806
  46 H :    0.191776
  47 H :    0.190989
  48 H :    0.166511
  49 H :    0.182284
  50 H :    0.203337
  51 H :    0.434888
  52 H :    0.455708
  53 H :    0.192498
  54 H :    0.186583
  55 H :    0.174816
  56 H :    0.189410
  57 H :    0.172524
  58 H :    0.186715
Sum of atomic charges:   -0.0000000

--------------------------------
MULLIKEN REDUCED ORBITAL CHARGES
--------------------------------
  0 C s       :     3.273850  s :     3.273850
      pz      :     1.015065  p :     3.010088
      px      :     0.911761
      py      :     1.083262
      dz2     :     0.008608  d :     0.045855
      dxz     :     0.011449
      dyz     :     0.005479
      dx2y2   :     0.013522
      dxy     :     0.006798

  1 N s       :     3.532787  s :     3.532787
      pz      :     1.167486  p :     3.654901
      px      :     1.163908
      py      :     1.323507
      dz2     :     0.014088  d :     0.065296
      dxz     :     0.016427
      dyz     :     0.010665
      dx2y2   :     0.013710
      dxy     :     0.010406

  2 N s       :     3.674610  s :     3.674610
      pz      :     1.453882  p :     3.626567
      px      :     0.980847
      py      :     1.191838
      dz2     :     0.009683  d :     0.052463
      dxz     :     0.014041
      dyz     :     0.009233
      dx2y2   :     0.009080
      dxy     :     0.010427

  3 C s       :     2.931993  s :     2.931993
      pz      :     0.904580  p :     2.537536
      px      :     0.726039
      py      :     0.906917
      dz2     :     0.017144  d :     0.079561
      dxz     :     0.017702
      dyz     :     0.012703
      dx2y2   :     0.017224
      dxy     :     0.014789

  4 C s       :     3.148476  s :     3.148476
      pz      :     0.857784  p :     2.855957
      px      :     0.960716
      py      :     1.037456
      dz2     :     0.008533  d :     0.040236
      dxz     :     0.011268
      dyz     :     0.008013
      dx2y2   :     0.007356
      dxy     :     0.005067

  5 C s       :     3.059610  s :     3.059610
      pz      :     0.752537  p :     2.586162
      px      :     0.931853
      py      :     0.901772
      dz2     :     0.017407  d :     0.059050
      dxz     :     0.011742
      dyz     :     0.012717
      dx2y2   :     0.007901
      dxy     :     0.009282

  6 C s       :     3.270270  s :     3.270270
      pz      :     1.055443  p :     3.088335
      px      :     1.018987
      py      :     1.013904
      dz2     :     0.002695  d :     0.038796
      dxz     :     0.010605
      dyz     :     0.011047
      dx2y2   :     0.004007
      dxy     :     0.010441

  7 C s       :     3.029950  s :     3.029950
      pz      :     0.780166  p :     2.386112
      px      :     0.797436
      py      :     0.808510
      dz2     :     0.021541  d :     0.100132
      dxz     :     0.030798
      dyz     :     0.017154
      dx2y2   :     0.015161
      dxy     :     0.015478

  8 O s       :     3.892897  s :     3.892897
      pz      :     1.348692  p :     4.513921
      px      :     1.725784
      py      :     1.439445
      dz2     :     0.009037  d :     0.025420
      dxz     :     0.005076
      dyz     :     0.006853
      dx2y2   :     0.002082
      dxy     :     0.002372

  9 N s       :     3.671149  s :     3.671149
      pz      :     1.482378  p :     3.819989
      px      :     1.021258
      py      :     1.316352
      dz2     :     0.003974  d :     0.028645
      dxz     :     0.008841
      dyz     :     0.004246
      dx2y2   :     0.005802
      dxy     :     0.005783

 10 C s       :     3.016134  s :     3.016134
      pz      :     0.874971  p :     2.608853
      px      :     0.815168
      py      :     0.918713
      dz2     :     0.015998  d :     0.086837
      dxz     :     0.021729
      dyz     :     0.012219
      dx2y2   :     0.021460
      dxy     :     0.015432

 11 S s       :     5.823058  s :     5.823058
      pz      :     3.223830  p :     9.737917
      px      :     3.094653
      py      :     3.419434
      dz2     :     0.028685  d :     0.107238
      dxz     :     0.014217
      dyz     :     0.020083
      dx2y2   :     0.027071
      dxy     :     0.017181

 12 C s       :     3.274055  s :     3.274055
      pz      :     1.038971  p :     3.072638
      px      :     0.921122
      py      :     1.112545
      dz2     :     0.007550  d :     0.035174
      dxz     :     0.007813
      dyz     :     0.006902
      dx2y2   :     0.005666
      dxy     :     0.007241

 13 C s       :     3.021351  s :     3.021351
      pz      :     0.866747  p :     2.645659
      px      :     0.843113
      py      :     0.935799
      dz2     :     0.011938  d :     0.058744
      dxz     :     0.016894
      dyz     :     0.007857
      dx2y2   :     0.010594
      dxy     :     0.011460

 14 C s       :     3.151512  s :     3.151512
      pz      :     0.936575  p :     2.878535
      px      :     0.937565
      py      :     1.004396
      dz2     :     0.009083  d :     0.040746
      dxz     :     0.008881
      dyz     :     0.006049
      dx2y2   :     0.008671
      dxy     :     0.008062

 15 C s       :     3.197227  s :     3.197227
      pz      :     0.986498  p :     2.863786
      px      :     0.928870
      py      :     0.948418
      dz2     :     0.006550  d :     0.036919
      dxz     :     0.009750
      dyz     :     0.005726
      dx2y2   :     0.006861
      dxy     :     0.008032

 16 C s       :     3.207859  s :     3.207859
      pz      :     0.967219  p :     2.969366
      px      :     0.996353
      py      :     1.005794
      dz2     :     0.006737  d :     0.034192
      dxz     :     0.009401
      dyz     :     0.005149
      dx2y2   :     0.006234
      dxy     :     0.006671

 17 C s       :     3.102381  s :     3.102381
      pz      :     0.888301  p :     2.415474
      px      :     0.591587
      py      :     0.935586
      dz2     :     0.013554  d :     0.072999
      dxz     :     0.020550
      dyz     :     0.006485
      dx2y2   :     0.016290
      dxy     :     0.016120

 18 F s       :     3.977244  s :     3.977244
      pz      :     1.877154  p :     5.298876
      px      :     1.522051
      py      :     1.899670
      dz2     :     0.002288  d :     0.017868
      dxz     :     0.005017
      dyz     :     0.000686
      dx2y2   :     0.005622
      dxy     :     0.004254

 19 C s       :     3.178367  s :     3.178367
      pz      :     0.979284  p :     3.001549
      px      :     0.958744
      py      :     1.063521
      dz2     :     0.006946  d :     0.035009
      dxz     :     0.008506
      dyz     :     0.005395
      dx2y2   :     0.006523
      dxy     :     0.007639

 20 C s       :     2.796029  s :     2.796029
      pz      :     0.815507  p :     2.132671
      px      :     0.623782
      py      :     0.693383
      dz2     :     0.028403  d :     0.139473
      dxz     :     0.018973
      dyz     :     0.030865
      dx2y2   :     0.028211
      dxy     :     0.033020

 21 F s       :     3.977175  s :     3.977175
      pz      :     1.653345  p :     5.303367
      px      :     1.891265
      py      :     1.758757
      dz2     :     0.004441  d :     0.016369
      dxz     :     0.002508
      dyz     :     0.006109
      dx2y2   :     0.001757
      dxy     :     0.001554

 22 F s       :     3.982383  s :     3.982383
      pz      :     1.909740  p :     5.296286
      px      :     1.533271
      py      :     1.853274
      dz2     :     0.002357  d :     0.016868
      dxz     :     0.003343
      dyz     :     0.000860
      dx2y2   :     0.005298
      dxy     :     0.005010

 23 F s       :     3.981203  s :     3.981203
      pz      :     1.908950  p :     5.297731
      px      :     1.748142
      py      :     1.640639
      dz2     :     0.002374  d :     0.016792
      dxz     :     0.001465
      dyz     :     0.002681
      dx2y2   :     0.003851
      dxy     :     0.006420

 24 C s       :     3.128492  s :     3.128492
      pz      :     0.838779  p :     2.429891
      px      :     0.690897
      py      :     0.900215
      dz2     :     0.014180  d :     0.072168
      dxz     :     0.019649
      dyz     :     0.008678
      dx2y2   :     0.014134
      dxy     :     0.015525

 25 F s       :     3.982217  s :     3.982217
      pz      :     1.795685  p :     5.295219
      px      :     1.665478
      py      :     1.834056
      dz2     :     0.002727  d :     0.017811
      dxz     :     0.005069
      dyz     :     0.002236
      dx2y2   :     0.003581
      dxy     :     0.004198

 26 N s       :     3.556586  s :     3.556586
      pz      :     1.203408  p :     3.779642
      px      :     1.164424
      py      :     1.411810
      dz2     :     0.007841  d :     0.041027
      dxz     :     0.011654
      dyz     :     0.006126
      dx2y2   :     0.007689
      dxy     :     0.007717

 27 C s       :     3.170735  s :     3.170735
      pz      :     0.918949  p :     2.726622
      px      :     1.120548
      py      :     0.687125
      dz2     :     0.015582  d :     0.080245
      dxz     :     0.010878
      dyz     :     0.021569
      dx2y2   :     0.019887
      dxy     :     0.012330

 28 O s       :     3.885962  s :     3.885962
      pz      :     1.744360  p :     4.586675
      px      :     1.548349
      py      :     1.293967
      dz2     :     0.003521  d :     0.025189
      dxz     :     0.004950
      dyz     :     0.002886
      dx2y2   :     0.006761
      dxy     :     0.007071

 29 P s       :     5.013734  s :     5.013734
      pz      :     2.781153  p :     8.233474
      px      :     2.731590
      py      :     2.720731
      dz2     :     0.111361  d :     0.492456
      dxz     :     0.123862
      dyz     :     0.096536
      dx2y2   :     0.097836
      dxy     :     0.062861

 30 O s       :     3.890154  s :     3.890154
      pz      :     1.315175  p :     4.652501
      px      :     1.682604
      py      :     1.654723
      dz2     :     0.008151  d :     0.023176
      dxz     :     0.006802
      dyz     :     0.006962
      dx2y2   :     0.000526
      dxy     :     0.000734

 31 O s       :     3.904026  s :     3.904026
      pz      :     1.403325  p :     4.728081
      px      :     1.526736
      py      :     1.798020
      dz2     :     0.008532  d :     0.025030
      dxz     :     0.002928
      dyz     :     0.004253
      dx2y2   :     0.004958
      dxy     :     0.004360

 32 O s       :     3.884478  s :     3.884478
      pz      :     1.756073  p :     4.748173
      px      :     1.614247
      py      :     1.377853
      dz2     :     0.002243  d :     0.022935
      dxz     :     0.007085
      dyz     :     0.002516
      dx2y2   :     0.007299
      dxy     :     0.003792

 33 C s       :     2.967195  s :     2.967195
      pz      :     0.845125  p :     2.419696
      px      :     0.778207
      py      :     0.796364
      dz2     :     0.030649  d :     0.108533
      dxz     :     0.024259
      dyz     :     0.016998
      dx2y2   :     0.017296
      dxy     :     0.019330

 34 O s       :     3.887811  s :     3.887811
      pz      :     1.477620  p :     4.578271
      px      :     1.655010
      py      :     1.445641
      dz2     :     0.006669  d :     0.025478
      dxz     :     0.006057
      dyz     :     0.007257
      dx2y2   :     0.003327
      dxy     :     0.002168

 35 N s       :     3.607657  s :     3.607657
      pz      :     1.178693  p :     3.842801
      px      :     1.252305
      py      :     1.411803
      dz2     :     0.008670  d :     0.037129
      dxz     :     0.008053
      dyz     :     0.007990
      dx2y2   :     0.006493
      dxy     :     0.005922

 36 C s       :     3.265237  s :     3.265237
      pz      :     0.868560  p :     3.000514
      px      :     1.017480
      py      :     1.114474
      dz2     :     0.008040  d :     0.045441
      dxz     :     0.010676
      dyz     :     0.012907
      dx2y2   :     0.011309
      dxy     :     0.002510

 37 C s       :     2.852131  s :     2.852131
      pz      :     0.775730  p :     2.350715
      px      :     0.764668
      py      :     0.810316
      dz2     :     0.020278  d :     0.122101
      dxz     :     0.036790
      dyz     :     0.022474
      dx2y2   :     0.024613
      dxy     :     0.017946

 38 O s       :     3.885362  s :     3.885362
      pz      :     1.755623  p :     4.604034
      px      :     1.377131
      py      :     1.471281
      dz2     :     0.002862  d :     0.025385
      dxz     :     0.004230
      dyz     :     0.001865
      dx2y2   :     0.008484
      dxy     :     0.007944

 39 N s       :     3.607326  s :     3.607326
      pz      :     1.169898  p :     3.846897
      px      :     1.253990
      py      :     1.423009
      dz2     :     0.009346  d :     0.039397
      dxz     :     0.009396
      dyz     :     0.006492
      dx2y2   :     0.006981
      dxy     :     0.007183

 40 C s       :     3.269670  s :     3.269670
      pz      :     0.898398  p :     3.003358
      px      :     1.075581
      py      :     1.029379
      dz2     :     0.006952  d :     0.046212
      dxz     :     0.013546
      dyz     :     0.010968
      dx2y2   :     0.008425
      dxy     :     0.006321

 41 H s       :     0.823209  s :     0.823209

 42 H s       :     0.810333  s :     0.810333

 43 H s       :     0.809520  s :     0.809520

 44 H s       :     0.844213  s :     0.844213

 45 H s       :     0.781194  s :     0.781194

 46 H s       :     0.808224  s :     0.808224

 47 H s       :     0.809011  s :     0.809011

 48 H s       :     0.833489  s :     0.833489

 49 H s       :     0.817716  s :     0.817716

 50 H s       :     0.796663  s :     0.796663

 51 H s       :     0.565112  s :     0.565112

 52 H s       :     0.544292  s :     0.544292

 53 H s       :     0.807502  s :     0.807502

 54 H s       :     0.813417  s :     0.813417

 55 H s       :     0.825184  s :     0.825184

 56 H s       :     0.810590  s :     0.810590

 57 H s       :     0.827476  s :     0.827476

 58 H s       :     0.813285  s :     0.813285



                     *******************************
                     * LOEWDIN POPULATION ANALYSIS *
                     *******************************

----------------------
LOEWDIN ATOMIC CHARGES
----------------------
   0 C :   -0.270722
   1 N :    0.072132
   2 N :   -0.182081
   3 C :    0.024316
   4 C :   -0.116441
   5 C :    0.042088
   6 C :   -0.242919
   7 C :    0.137743
   8 O :   -0.246245
   9 N :   -0.274194
  10 C :   -0.053834
  11 S :    0.429460
  12 C :   -0.330139
  13 C :    0.011914
  14 C :   -0.064736
  15 C :   -0.077581
  16 C :   -0.153363
  17 C :    0.142572
  18 F :   -0.084494
  19 C :   -0.126401
  20 C :    0.316388
  21 F :   -0.112808
  22 F :   -0.104675
  23 F :   -0.106521
  24 C :    0.136126
  25 F :   -0.087516
  26 N :    0.007600
  27 C :   -0.036098
  28 O :   -0.322940
  29 P :    1.089101
  30 O :   -0.566290
  31 O :   -0.514082
  32 O :   -0.513820
  33 C :    0.116374
  34 O :   -0.290413
  35 N :   -0.034111
  36 C :   -0.259505
  37 C :    0.144070
  38 O :   -0.320506
  39 N :   -0.028479
  40 C :   -0.257839
  41 H :    0.140586
  42 H :    0.151693
  43 H :    0.143264
  44 H :    0.139545
  45 H :    0.177720
  46 H :    0.167445
  47 H :    0.164737
  48 H :    0.155341
  49 H :    0.143372
  50 H :    0.152145
  51 H :    0.344023
  52 H :    0.359163
  53 H :    0.151406
  54 H :    0.147720
  55 H :    0.138422
  56 H :    0.149074
  57 H :    0.136273
  58 H :    0.146941

-------------------------------
LOEWDIN REDUCED ORBITAL CHARGES
-------------------------------
  0 C s       :     2.973720  s :     2.973720
      pz      :     1.074983  p :     3.206831
      px      :     0.999571
      py      :     1.132277
      dz2     :     0.017038  d :     0.090171
      dxz     :     0.023178
      dyz     :     0.010086
      dx2y2   :     0.026562
      dxy     :     0.013307

  1 N s       :     3.051179  s :     3.051179
      pz      :     1.199561  p :     3.722681
      px      :     1.203761
      py      :     1.319359
      dz2     :     0.035919  d :     0.154007
      dxz     :     0.039307
      dyz     :     0.026856
      dx2y2   :     0.028273
      dxy     :     0.023652

  2 N s       :     3.259002  s :     3.259002
      pz      :     1.477549  p :     3.807610
      px      :     1.078268
      py      :     1.251793
      dz2     :     0.018643  d :     0.115468
      dxz     :     0.031781
      dyz     :     0.015205
      dx2y2   :     0.022909
      dxy     :     0.026930

  3 C s       :     2.813539  s :     2.813539
      pz      :     1.031343  p :     2.968316
      px      :     0.954976
      py      :     0.981997
      dz2     :     0.042094  d :     0.193830
      dxz     :     0.047457
      dyz     :     0.030548
      dx2y2   :     0.038952
      dxy     :     0.034778

  4 C s       :     2.836768  s :     2.836768
      pz      :     1.038670  p :     3.165680
      px      :     1.052196
      py      :     1.074814
      dz2     :     0.025911  d :     0.113994
      dxz     :     0.032498
      dyz     :     0.022513
      dx2y2   :     0.018956
      dxy     :     0.014116

  5 C s       :     2.855999  s :     2.855999
      pz      :     0.939094  p :     2.962519
      px      :     1.015960
      py      :     1.007465
      dz2     :     0.042985  d :     0.139394
      dxz     :     0.028985
      dyz     :     0.029791
      dx2y2   :     0.016498
      dxy     :     0.021135

  6 C s       :     2.928589  s :     2.928589
      pz      :     1.089958  p :     3.231214
      px      :     1.071099
      py      :     1.070156
      dz2     :     0.005359  d :     0.083116
      dxz     :     0.022891
      dyz     :     0.023538
      dx2y2   :     0.008321
      dxy     :     0.023007

  7 C s       :     2.869596  s :     2.869596
      pz      :     0.939625  p :     2.761556
      px      :     0.937246
      py      :     0.884685
[...]
      pz      :     1.764425  p :     4.836235
      px      :     1.624018
      py      :     1.447792
      dz2     :     0.003961  d :     0.037156
      dxz     :     0.008805
      dyz     :     0.004289
      dx2y2   :     0.014196
      dxy     :     0.005906

 33 C s       :     2.819060  s :     2.819060
      pz      :     1.001439  p :     2.805890
      px      :     0.924860
      py      :     0.879591
      dz2     :     0.074248  d :     0.258677
      dxz     :     0.057791
      dyz     :     0.040794
      dx2y2   :     0.037889
      dxy     :     0.047955

 34 O s       :     3.583973  s :     3.583973
      pz      :     1.528664  p :     4.656016
      px      :     1.661881
      py      :     1.465471
      dz2     :     0.013377  d :     0.050424
      dxz     :     0.011458
      dyz     :     0.015918
      dx2y2   :     0.004905
      dxy     :     0.004766

 35 N s       :     3.084449  s :     3.084449
      pz      :     1.201106  p :     3.852690
      px      :     1.262844
      py      :     1.388740
      dz2     :     0.022985  d :     0.096972
      dxz     :     0.022941
      dyz     :     0.019809
      dx2y2   :     0.015065
      dxy     :     0.016170

 36 C s       :     2.970123  s :     2.970123
      pz      :     0.964483  p :     3.199465
      px      :     1.079328
      py      :     1.155654
      dz2     :     0.016745  d :     0.089917
      dxz     :     0.022338
      dyz     :     0.025524
      dx2y2   :     0.021019
      dxy     :     0.004292

 37 C s       :     2.805388  s :     2.805388
      pz      :     0.918726  p :     2.767707
      px      :     0.943978
      py      :     0.905003
      dz2     :     0.048383  d :     0.282835
      dxz     :     0.086930
      dyz     :     0.051629
      dx2y2   :     0.052969
      dxy     :     0.042925

 38 O s       :     3.585811  s :     3.585811
      pz      :     1.752955  p :     4.684678
      px      :     1.437971
      py      :     1.493752
      dz2     :     0.007034  d :     0.050016
      dxz     :     0.007239
      dyz     :     0.003147
      dx2y2   :     0.014025
      dxy     :     0.018571

 39 N s       :     3.059689  s :     3.059689
      pz      :     1.202764  p :     3.866540
      px      :     1.261459
      py      :     1.402317
      dz2     :     0.024532  d :     0.102251
      dxz     :     0.027437
      dyz     :     0.016591
      dx2y2   :     0.016395
      dxy     :     0.017295

 40 C s       :     2.969781  s :     2.969781
      pz      :     0.984648  p :     3.196960
      px      :     1.126473
      py      :     1.085840
      dz2     :     0.014419  d :     0.091099
      dxz     :     0.026835
      dyz     :     0.022230
      dx2y2   :     0.016042
      dxy     :     0.011573

 41 H s       :     0.859414  s :     0.859414

 42 H s       :     0.848307  s :     0.848307

 43 H s       :     0.856736  s :     0.856736

 44 H s       :     0.860455  s :     0.860455

 45 H s       :     0.822280  s :     0.822280

 46 H s       :     0.832555  s :     0.832555

 47 H s       :     0.835263  s :     0.835263

 48 H s       :     0.844659  s :     0.844659

 49 H s       :     0.856628  s :     0.856628

 50 H s       :     0.847855  s :     0.847855

 51 H s       :     0.655977  s :     0.655977

 52 H s       :     0.640837  s :     0.640837

 53 H s       :     0.848594  s :     0.848594

 54 H s       :     0.852280  s :     0.852280

 55 H s       :     0.861578  s :     0.861578

 56 H s       :     0.850926  s :     0.850926

 57 H s       :     0.863727  s :     0.863727

 58 H s       :     0.853059  s :     0.853059



                      *****************************
                      * MAYER POPULATION ANALYSIS *
                      *****************************

  NA   - Mulliken gross atomic population
  ZA   - Total nuclear charge
  QA   - Mulliken gross atomic charge
  VA   - Mayer's total valence
  BVA  - Mayer's bonded valence
  FA   - Mayer's free valence

  ATOM       NA         ZA         QA         VA         BVA        FA
  0 C      6.3298     6.0000    -0.3298     3.7488     3.7488    -0.0000
  1 N      7.2530     7.0000    -0.2530     3.4012     3.4012    -0.0000
  2 N      7.3536     7.0000    -0.3536     2.8515     2.8515    -0.0000
  3 C      5.5491     6.0000     0.4509     3.7325     3.7325    -0.0000
  4 C      6.0447     6.0000    -0.0447     3.9967     3.9967     0.0000
  5 C      5.7048     6.0000     0.2952     3.7123     3.7123     0.0000
  6 C      6.3974     6.0000    -0.3974     3.7739     3.7739     0.0000
  7 C      5.5162     6.0000     0.4838     3.9715     3.9715    -0.0000
  8 O      8.4322     8.0000    -0.4322     2.0815     2.0815     0.0000
  9 N      7.5198     7.0000    -0.5198     2.8701     2.8701     0.0000
 10 C      5.7118     6.0000     0.2882     3.9113     3.9113    -0.0000
 11 S     15.6682    16.0000     0.3318     2.5178     2.5178     0.0000
 12 C      6.3819     6.0000    -0.3819     3.8196     3.8196    -0.0000
 13 C      5.7258     6.0000     0.2742     3.8689     3.8689     0.0000
 14 C      6.0708     6.0000    -0.0708     3.8893     3.8893    -0.0000
 15 C      6.0979     6.0000    -0.0979     3.9117     3.9117    -0.0000
 16 C      6.2114     6.0000    -0.2114     3.8736     3.8736     0.0000
 17 C      5.5909     6.0000     0.4091     3.8232     3.8232    -0.0000
 18 F      9.2940     9.0000    -0.2940     1.0812     1.0812    -0.0000
 19 C      6.2149     6.0000    -0.2149     3.7652     3.7652    -0.0000
 20 C      5.0682     6.0000     0.9318     3.9204     3.9204     0.0000
 21 F      9.2969     9.0000    -0.2969     1.0581     1.0581     0.0000
 22 F      9.2955     9.0000    -0.2955     1.0714     1.0714     0.0000
 23 F      9.2957     9.0000    -0.2957     1.0650     1.0650     0.0000
 24 C      5.6306     6.0000     0.3694     3.7829     3.7829     0.0000
 25 F      9.2952     9.0000    -0.2952     1.0823     1.0823    -0.0000
 26 N      7.3773     7.0000    -0.3773     3.2233     3.2233     0.0000
 27 C      5.9776     6.0000     0.0224     3.7802     3.7802    -0.0000
 28 O      8.4978     8.0000    -0.4978     1.9673     1.9673    -0.0000
 29 P     13.7397    15.0000     1.2603     4.8239     4.8239    -0.0000
 30 O      8.5658     8.0000    -0.5658     1.9930     1.9930    -0.0000
 31 O      8.6571     8.0000    -0.6571     1.8560     1.8560     0.0000
 32 O      8.6556     8.0000    -0.6556     1.8585     1.8585    -0.0000
 33 C      5.4954     6.0000     0.5046     3.8784     3.8784    -0.0000
 34 O      8.4916     8.0000    -0.4916     2.0458     2.0458    -0.0000
 35 N      7.4876     7.0000    -0.4876     3.0423     3.0423     0.0000
 36 C      6.3112     6.0000    -0.3112     3.7792     3.7792    -0.0000
 37 C      5.3249     6.0000     0.6751     3.9546     3.9546     0.0000
 38 O      8.5148     8.0000    -0.5148     2.0248     2.0248    -0.0000
 39 N      7.4936     7.0000    -0.4936     3.0763     3.0763     0.0000
 40 C      6.3192     6.0000    -0.3192     3.7873     3.7873     0.0000
 41 H      0.8232     1.0000     0.1768     0.9290     0.9290     0.0000
 42 H      0.8103     1.0000     0.1897     0.9345     0.9345     0.0000
 43 H      0.8095     1.0000     0.1905     0.9400     0.9400    -0.0000
 44 H      0.8442     1.0000     0.1558     0.9339     0.9339     0.0000
 45 H      0.7812     1.0000     0.2188     0.9351     0.9351    -0.0000
 46 H      0.8082     1.0000     0.1918     0.9341     0.9341    -0.0000
 47 H      0.8090     1.0000     0.1910     0.9349     0.9349     0.0000
 48 H      0.8335     1.0000     0.1665     0.9336     0.9336    -0.0000
 49 H      0.8177     1.0000     0.1823     0.9410     0.9410    -0.0000
 50 H      0.7967     1.0000     0.2033     0.9240     0.9240    -0.0000
 51 H      0.5651     1.0000     0.4349     0.7826     0.7826     0.0000
 52 H      0.5443     1.0000     0.4557     0.7661     0.7661    -0.0000
 53 H      0.8075     1.0000     0.1925     0.9374     0.9374    -0.0000
 54 H      0.8134     1.0000     0.1866     0.9358     0.9358    -0.0000
 55 H      0.8252     1.0000     0.1748     0.9283     0.9283     0.0000
 56 H      0.8106     1.0000     0.1894     0.9349     0.9349    -0.0000
 57 H      0.8275     1.0000     0.1725     0.9278     0.9278    -0.0000
 58 H      0.8133     1.0000     0.1867     0.9331     0.9331     0.0000

  Mayer bond orders larger than 0.100000
B(  0-C ,  1-N ) :   0.9352 B(  0-C , 41-H ) :   0.9342 B(  0-C , 42-H ) :   0.9342 
B(  0-C , 43-H ) :   0.9135 B(  1-N ,  2-N ) :   1.1797 B(  1-N ,  4-C ) :   0.1039 
B(  1-N ,  5-C ) :   1.1298 B(  2-N ,  3-C ) :   1.3930 B(  3-C ,  4-C ) :   1.2940 
B(  3-C , 39-N ) :   0.9508 B(  4-C ,  5-C ) :   1.3812 B(  4-C , 33-C ) :   1.0685 
B(  5-C ,  6-C ) :   1.0174 B(  6-C ,  7-C ) :   0.9430 B(  6-C , 44-H ) :   0.9102 
B(  6-C , 45-H ) :   0.8910 B(  7-C ,  8-O ) :   1.8080 B(  7-C ,  9-N ) :   1.1213 
B(  8-O , 11-S ) :   0.1225 B(  9-N , 10-C ) :   1.4808 B( 10-C , 11-S ) :   1.1328 
B( 10-C , 26-N ) :   1.1042 B( 11-S , 12-C ) :   1.0381 B( 12-C , 13-C ) :   1.6617 
B( 12-C , 46-H ) :   0.9116 B( 13-C , 14-C ) :   0.9688 B( 13-C , 26-N ) :   1.0666 
B( 14-C , 15-C ) :   1.4220 B( 14-C , 24-C ) :   1.3318 B( 15-C , 16-C ) :   1.4147 
B( 15-C , 47-H ) :   0.9081 B( 16-C , 17-C ) :   1.3871 B( 16-C , 48-H ) :   0.9149 
B( 17-C , 18-F ) :   0.9554 B( 17-C , 19-C ) :   1.3231 B( 19-C , 20-C ) :   0.9455 
B( 19-C , 24-C ) :   1.3024 B( 20-C , 21-F ) :   0.9903 B( 20-C , 22-F ) :   0.9618 
B( 20-C , 23-F ) :   0.9621 B( 24-C , 25-F ) :   0.9648 B( 26-N , 27-C ) :   0.9290 
B( 27-C , 28-O ) :   0.9257 B( 27-C , 49-H ) :   0.9044 B( 27-C , 50-H ) :   0.9090 
B( 28-O , 29-P ) :   0.9286 B( 29-P , 30-O ) :   1.8399 B( 29-P , 31-O ) :   0.9590 
B( 29-P , 32-O ) :   1.0197 B( 31-O , 51-H ) :   0.7575 B( 32-O , 52-H ) :   0.7434 
B( 33-C , 34-O ) :   1.7888 B( 33-C , 35-N ) :   0.9724 B( 35-N , 36-C ) :   0.9232 
B( 35-N , 37-C ) :   1.0286 B( 36-C , 53-H ) :   0.9239 B( 36-C , 54-H ) :   0.9290 
B( 36-C , 55-H ) :   0.9418 B( 37-C , 38-O ) :   1.7865 B( 37-C , 39-N ) :   1.0669 
B( 39-N , 40-C ) :   0.9364 B( 40-C , 56-H ) :   0.9250 B( 40-C , 57-H ) :   0.9399 
B( 40-C , 58-H ) :   0.9324 

-------
TIMINGS
-------

Total SCF time: 0 days 0 hours 13 min 0 sec 

Total time                  ....     780.091 sec
Sum of individual times     ....     779.781 sec  (100.0%)

SCF preparation             ....       0.407 sec  (  0.1%)
Fock matrix formation       ....     775.848 sec  ( 99.5%)
  Startup                   ....       0.106 sec  (  0.0% of F)
  Split-RI-J                ....     110.179 sec  ( 14.2% of F)
  Chain of spheres X        ....     606.533 sec  ( 78.2% of F)
  XC integration            ....      57.915 sec  (  7.5% of F)
    XC Preparation          ....       0.000 sec  (  0.0% of XC)
    Basis function eval.    ....      22.138 sec  ( 38.2% of XC)
    Density eval.           ....      14.778 sec  ( 25.5% of XC)
    XC-Functional eval.     ....       2.817 sec  (  4.9% of XC)
    XC-Potential eval.      ....      15.731 sec  ( 27.2% of XC)
Diagonalization             ....       0.000 sec  (  0.0%)
Density matrix formation    ....       0.460 sec  (  0.1%)
Total Energy calculation    ....       0.142 sec  (  0.0%)
Population analysis         ....       0.104 sec  (  0.0%)
Orbital Transformation      ....       0.344 sec  (  0.0%)
Orbital Orthonormalization  ....       0.000 sec  (  0.0%)
DIIS solution               ....       1.468 sec  (  0.2%)
SOSCF solution              ....       1.008 sec  (  0.1%)
Finished LeanSCF after 780.2 sec

Maximum memory used throughout the entire LEANSCF-calculation: 106.9 MB

-------------------------   --------------------
FINAL SINGLE POINT ENERGY     -2903.676496073364
-------------------------   --------------------


------------------------------------------------------------------------------
                              ORCA PROPERTY CALCULATIONS
------------------------------------------------------------------------------

GBWName                                 ... /home/nmrbox/aojoawo/Documents/ERDOS/inputs/CHEMBL3953123.gbw
Number of atoms                         ...     59
Number of basis functions               ...    618
Max core memory                         ...   1024 MB

Electric properties:
Dipole moment                           ... YES
Quadrupole moment                       ...  NO
Static polarizability (Dipole/Dipole)   ...  NO
Static polarizability (Dipole/Quad.)    ...  NO
Static polarizability (Quad./Quad.)     ...  NO
Static polarizability (Velocity)        ...  NO

Atomic electric properties:
Dipole moment                           ...  NO
Quadrupole moment                       ...  NO
Static polarizability                   ...  NO

Choice of electric origin               ... Center of mass
Position of electric origin             ...     1.532976     0.245143     0.098641

General magnetic properties:
Magnetizability                         ...  NO

EPR properties:
g-Tensor (aka g-matrix)                 ...  NO
Zero-Field splitting spin-orbit         ...  NO
Zero-field splitting spin-spin          ...  NO
Hyperfine couplings                     ...  NO (   0 nuclei)
Quadrupole couplings                    ...  NO (   0 nuclei)
Contact density                         ...  NO (   0 nuclei)

NMR properties:
Chemical shifts                         ...  NO (   0 nuclei)
Spin-rotation constants                 ...  NO (   0 nuclei)
Spin-spin couplings                     ...  NO (   0 nuclei,    0 pairs)

Choice of magnetic origin               ... GIAO
Position of magnetic origin             ...     0.000000     0.000000     0.000000

Properties with geometric perturbations:
SCF Hessian                             ...  NO
IR spectrum                             ...  NO
VCD spectrum                            ...  NO
X-ray spectroscopy properties:
SCF XES/XAS/RIXS spectra                ...  NO


-------------
DIPOLE MOMENT
-------------

Method             : SCF
Type of density    : Electron Density
Multiplicity       :   1
Irrep              :   0
Energy             : -2903.6764960733644330 Eh
Relativity type    : 
Basis              : AO
                                X                 Y                 Z
Electronic contribution:     65.965052504      15.798825227       7.796614468
Nuclear contribution   :    -62.084916598     -17.230542191      -6.101409439
                        -----------------------------------------
Total Dipole Moment    :      3.880135906      -1.431716964       1.695205030
                        -----------------------------------------
Magnitude (a.u.)       :      4.469786148
Magnitude (Debye)      :     11.361293491



--------------------
Rotational spectrum 
--------------------
 
Rotational constants in cm-1:             0.004923             0.001091             0.001016 
Rotational constants in MHz :           147.600802            32.706902            30.466606 

Dipole components along the rotational axes: 
x,y,z [a.u.] :     3.919047     0.680922     2.038725 
x,y,z [Debye]:     9.961427     1.730766     5.182027 

 

Dipole moment calculation done in   0.0 sec 

Maximum memory used throughout the entire PROP-calculation: 53.9 MB

--------------------------------
SUGGESTED CITATIONS FOR THIS RUN
--------------------------------

Below you find a list of papers that are relevant to this ORCA run
We neither can nor want to force you to cite these papers, but we appreciate if you do
You receive ORCA, which is the product of decades of hard work by many enthusiastic individuals, for free
The only thing we kindly ask in return is that you cite our papers,
We deeply appreciate it, if you show your appreciation for ORCA by not just citing the generic ORCA reference.

Please note that relegating all ORCA citations to the supporting information does *not* help us.
SI sections are not indexed - citations you put there will not count into any citation statistics
But we need these citations in order to attract the funding resources that allow us to do what we are doing

Therefore, if you are a happy ORCA user, please consider citing a few of the papers listed below in the main body of your paper

In addition to the list printed below, the program has created the file /home/nmrbox/aojoawo/Documents/ERDOS/inputs/CHEMBL3953123.bibtex that contains the list in bibtex format
You can import this file easily into all common literature databanks and citation aid programs


List of essential papers. We consider these as the minimum necessary citations

  1. Neese,F.
     Software update: the ORCA program system, version 5.0
     WIRES Comput. Molec. Sci., 2022 12(1)e1606
     doi.org/10.1002/wcms.1606

List of papers to cite with high priority. The work reported in these papers was absolutely
necessary for this run to complete.
Our perspective: the developers of density functionals and basis sets usually get cited in chemistry papers
Good! But without the algorithms to do something with them, the functionals or basis sets would not do anything.
Hence, in our opinion, the algorithm design and method developments papers are equally worthy of getting cited

  1. Neese,F.
     An improvement of the resolution of the identity approximation for the formation of the Coulomb matrix
     J. Comp. Chem., 2003 24(14)1740-1747
     doi.org/10.1002/jcc.10318
  2. Neese,F.; Wennmohs,F.; Hansen,A.; Becker,U.
     Efficient, approximate and parallel Hartree-Fock and hybrid DFT calculations. A 'chain-of-spheres' algorithm for the Hartree-Fock exchange
     Chem. Phys., 2009 356(1-3)98-109
     doi.org/10.1016/j.chemphys.2008.10.036
  3. Helmich-Paris,B.; de Souza,B.; Neese,F.; Izsák,R.
     An improved chain of spheres for exchange algorithm
     J. Chem. Phys., 2021 155 104109
     doi.org/doi: 10.1063/5.0058766.
  4. Neese,F.
     The SHARK Integral Generation and Digestion System
     J. Comp. Chem., 2022  1-16
     doi.org/10.1002/jcc.26942

List of suggested additional citations. These are papers that are important in the 'surrounding' of 
of this run, or papers that preceded the highly important papers. If you like your results we are grateful for a citation.

  1. Izsak,R.; Neese,F.
     An overlap fitted chain of spheres exchange method
     J. Chem. Phys., 2011 135 144105
     doi.org/10.1063/1.3646921
  2. Izsak,R.; Hansen,A.; Neese,F.
     The resolution of identity and chain of spheres approximations for the LPNO-CCSD singles Fock term
     Molec. Phys., 2012 110 2413-2417
     doi.org/10.1080/00268976.2012.687466
  3. Neese,F.
     The ORCA program system
     WIRES Comput. Molec. Sci., 2012 2(1)73-78
     doi.org/10.1002/wcms.81
  4. Izsak,R.; Neese,F.; Klopper,W.
     Robust fitting techniques in the chain of spheres approximation to the Fock exchange: The role of the complementary space
     J. Chem. Phys., 2013 139 
     doi.org/10.1063/1.4819264
  5. Neese,F.
     Software update: the ORCA program system, version 4.0
     WIRES Comput. Molec. Sci., 2018 8(1)1-6
     doi.org/10.1002/wcms.1327
  6. Neese,F.; Wennmohs,F.; Becker,U.; Riplinger,C.
     The ORCA quantum chemistry program package
     J. Chem. Phys., 2020 152 Art. No. L224108
     doi.org/10.1063/5.0004608

List of optional additional citations

  1. Neese,F.
     Approximate second-order SCF convergence for spin unrestricted wavefunctions
     Chem. Phys. Lett., 2000 325(1-3)93-98
     doi.org/10.1016/s0009-2614(00)00662-x

Timings for individual modules:

Sum of individual times          ...      809.654 sec (=  13.494 min)
Startup calculation              ...       19.109 sec (=   0.318 min)   2.4 %
SCF iterations                   ...      790.320 sec (=  13.172 min)  97.6 %
Property calculations            ...        0.225 sec (=   0.004 min)   0.0 %
                             ****ORCA TERMINATED NORMALLY****
TOTAL RUN TIME: 0 days 0 hours 13 minutes 30 seconds 313 msec
