
                                 *****************
                                 * O   R   C   A *
                                 *****************

                                            #,                                       
                                            ###                                      
                                            ####                                     
                                            #####                                    
                                            ######                                   
                                           ########,                                 
                                     ,,################,,,,,                         
                               ,,#################################,,                 
                          ,,##########################################,,             
                       ,#########################################, ''#####,          
                    ,#############################################,,   '####,        
                  ,##################################################,,,,####,       
                ,###########''''           ''''###############################       
              ,#####''   ,,,,##########,,,,          '''####'''          '####       
            ,##' ,,,,###########################,,,                        '##       
           ' ,,###''''                  '''############,,,                           
         ,,##''                                '''############,,,,        ,,,,,,###''
      ,#''                                            '''#######################'''  
     '                                                          ''''####''''         
             ,#######,   #######,   ,#######,      ##                                
            ,#'     '#,  ##    ##  ,#'     '#,    #''#        ,####,   ,####,        
            ##       ##  ##   ,#'  ##            #'  '#       #'       #'  '#        
            ##       ##  #######   ##           ,######,      #####,   #    #        
            '#,     ,#'  ##    ##  '#,     ,#' ,#      #,     #,   #   #,  ,#        
             '#######'   ##     ##  '#######'  #'      '#     '####' # '####'        



                #########################################################
                #                        -***-                          #
                #          Department of theory and spectroscopy        #
                #                                                       #
                #                      Frank Neese                      #
                #                                                       #
                #     Directorship, Architecture, Infrastructure        #
                #                    SHARK, DRIVERS                     #
                #        Core code/Algorithms in most modules           #
                #                                                       #
                #        Max Planck Institute fuer Kohlenforschung      #
                #                Kaiser Wilhelm Platz 1                 #
                #                 D-45470 Muelheim/Ruhr                 #
                #                      Germany                          #
                #                                                       #
                #                  All rights reserved                  #
                #                        -***-                          #
                #########################################################


                         Program Version 6.0.0  -   RELEASE  -


 With contributions from (in alphabetic order):
   Daniel Aravena         : Magnetic Suceptibility
   Michael Atanasov       : Ab Initio Ligand Field Theory (pilot matlab implementation)
   Alexander A. Auer      : GIAO ZORA, VPT2 properties, NMR spectrum
   Ute Becker             : All parallelization in ORCA, NUMFREQ, NUMCALC
   Giovanni Bistoni       : ED, misc. LED, open-shell LED, HFLD
   Martin Brehm           : Molecular dynamics
   Dmytro Bykov           : pre 5.0 version of the SCF Hessian
   Marcos Casanova-Páez   : Triplet and SCS-CIS(D). UHF-(DLPNO)-IP/EA/STEOM-CCSD. UHF-CVS-IP/STEOM-CCSD
   Vijay G. Chilkuri      : MRCI spin determinant printing, contributions to CSF-ICE
   Pauline Colinet        : FMM embedding
   Dipayan Datta          : RHF DLPNO-CCSD density
   Achintya Kumar Dutta   : EOM-CC, STEOM-CC
   Nicolas Foglia         : Exact transition moments, OPA infrastructure, MCD improvements
   Dmitry Ganyushin       : Spin-Orbit,Spin-Spin,Magnetic field MRCI
   Miquel Garcia          : C-PCM and meta-GGA Hessian, CCSD/C-PCM, Gaussian charge scheme
   Tiago L. C. Gouveia    : GS-ROHF, GS-ROCIS
   Yang Guo               : DLPNO-NEVPT2, F12-NEVPT2, CIM, IAO-localization
   Andreas Hansen         : Spin unrestricted coupled pair/coupled cluster methods
   Ingolf Harden          : AUTO-CI MPn and infrastructure 
   Benjamin Helmich-Paris : MC-RPA, TRAH-(SCF,CASSCF), AVAS, COSX integrals, SCF dyn. polar.
   Lee Huntington         : MR-EOM, pCC
   Robert Izsak           : Overlap fitted RIJCOSX, COSX-SCS-MP3, EOM
   Riya Kayal             : Wick's Theorem for AUTO-CI, AUTO-CI UHF-CCSDT
   Emily Kempfer          : AUTO-CI, RHF CISDT and CCSDT
   Christian Kollmar      : KDIIS, OOCD, Brueckner-CCSD(T), CCSD density, CASPT2, CASPT2-K, improved NEVPT2
   Axel Koslowski         : Symmetry handling
   Simone Kossmann        : Meta GGA functionals, TD-DFT gradient, OOMP2, (MP2 Hessian; deprecated post 5.0)
   Lucas Lang             : DCDCAS
   Marvin Lechner         : AUTO-CI (C++ implementation), FIC-MRCC
   Spencer Leger          : CASSCF response
   Dagmar Lenk            : GEPOL surface, SMD, ORCA-2-JSON
   Dimitrios Liakos       : Extrapolation schemes; Compound Job, initial MDCI parallelization
   Dimitrios Manganas     : Further ROCIS development; embedding schemes. LFT, Crystal Embedding
   Dimitrios Pantazis     : SARC Basis sets
   Anastasios Papadopoulos: AUTO-CI, single reference methods and gradients
   Taras Petrenko         : pre 6.0 DFT Hessian and TD-DFT gradient, (ASA, deprecated), ECA, 1-Electron XAS/XES, NRVS
   Peter Pinski           : DLPNO-MP2, DLPNO-MP2 Gradient
   Christoph Reimann      : Effective Core Potentials
   Marius Retegan         : Local ZFS, SOC
   Christoph Riplinger    : Optimizer, TS searches, QM/MM, DLPNO-CCSD(T), (RO)-DLPNO pert. Triples
   Michael Roemelt        : Original ROCIS implementation
   Masaaki Saitow         : Open-shell DLPNO-CCSD energy and density
   Barbara Sandhoefer     : DKH picture change effects
   Kantharuban Sivalingam : CASSCF convergence/infrastructure, NEVPT2 and variants, FIC-MRCI
   Bernardo de Souza      : ESD, SOC TD-DFT
   Georgi Stoychev        : AutoAux, RI-MP2 NMR, DLPNO-MP2 response, X2C
   Van Anh Tran           : RI-MP2 g-tensors
   Willem Van den Heuvel  : Paramagnetic NMR
   Zikuan Wang            : NOTCH, Electric field optimization 
   Frank Wennmohs         : Technical directorship and infrastructure
   Hang Xu                : AUTO-CI-Response properties 


 We gratefully acknowledge several colleagues who have allowed us to
 interface, adapt or use parts of their codes:
   Stefan Grimme, W. Hujo, H. Kruse, P. Pracht,  : VdW corrections, initial TS optimization,
                  C. Bannwarth, S. Ehlert,         DFT functionals, gCP, sTDA/sTD-DF
                  L. Wittmann, M. Mueller
   Ed Valeev, F. Pavosevic, A. Kumar             : LibInt (2-el integral package), F12 methods
   Garnet Chan, S. Sharma, J. Yang, R. Olivares  : DMRG
   Ulf Ekstrom                                   : XCFun DFT Library
   Mihaly Kallay                                 : mrcc  (arbitrary order and MRCC methods)
   Frank Weinhold                                : gennbo (NPA and NBO analysis)
   Simon Mueller                                 : openCOSMO-RS
   Christopher J. Cramer and Donald G. Truhlar   : smd solvation model
   Lars Goerigk                                  : TD-DFT with DH, B97 family of functionals
   V. Asgeirsson, H. Jonsson                     : NEB implementation
   FAccTs GmbH                                   : IRC, NEB, NEB-TS, DLPNO-Multilevel, CI-OPT
                                                   MM, QMMM, 2- and 3-layer-ONIOM, Crystal-QMMM,
                                                   LR-CPCM, SF, NACMEs, symmetry and pop. for TD-DFT,
                                                   nearIR, NL-DFT gradient (VV10), updates on ESD,
                                                   ML-optimized integration grids, MBIS, APM,
                                                   GOAT, DOCKER, SOLVATOR, interface openCOSMO-RS
   S Lehtola, MJT Oliveira, MAL Marques          : LibXC Library
   Liviu Ungur et al                             : ANISO software


 Your calculation uses the libint2 library for the computation of 2-el integrals
 For citations please refer to: http://libint.valeyev.net

 Your ORCA version has been built with support for libXC version: 6.2.2
 For citations please refer to: https://libxc.gitlab.io

 This ORCA versions uses:
   CBLAS   interface :  Fast vector & matrix operations
   LAPACKE interface :  Fast linear algebra routines
   SCALAPACK package :  Parallel linear algebra routines
   Shared memory     :  Shared parallel matrices
   BLAS/LAPACK       :  OpenBLAS 0.3.27  USE64BITINT DYNAMIC_ARCH NO_AFFINITY SkylakeX SINGLE_THREADED
        Core in use  :  SkylakeX
   Copyright (c) 2011-2014, The OpenBLAS Project


Warning: RI is on but no J-basis has been assigned. Assigning Def2/J (nothing to worry about!)
================================================================================

----- Orbital basis set information -----
Your calculation utilizes the basis: 6-31G*
   H-He, Li-Ne : W. J. Hehre, R. Ditchfield and J.A. Pople, J. Chem. Phys. 56, 2257 (1972).
                 Note: He and Ne are unpublished basis sets taken from the Gaussian program.
                 Note: Li and B from J. D. Dill and J. A. Pople, J. Chem. Phys. 62, 2921 (1975).
   Na - Ar     : M. M. Francl, W. J. Pietro, W. J. Hehre, J. S. Binkley, M. S. Gordon, 
                 D. J. DeFrees and J. A. Pople, J. Chem. Phys. 77, 3654 (1982).
   K - Zn      : V. A. Rassolov, J. A. Pople, M. A. Ratner, and T. L. Windus, J. Chem. Phys. 109, 1223 (1998).

----- AuxJ basis set information -----
Your calculation utilizes the auxiliary basis: def2/J
   F. Weigend, Phys. Chem. Chem. Phys. 8, 1057 (2006).

================================================================================
                                        WARNINGS
                       Please study these warnings very carefully!
================================================================================


================================================================================
                                       INPUT FILE
================================================================================
NAME = /home/nmrbox/aojoawo/Documents/ERDOS/inputs/CHEMBL5284452.inp
|  1> ! B3LYP 6-31G* SP
|  2> 
|  3> * xyz 0 1
|  4> O -2.1814 0.0020 -2.8774
|  5> C -1.7841 -0.1352 -1.6892
|  6> C -0.3384 -0.2243 -1.4065
|  7> S 0.3891 0.3216 0.0103
|  8> C 1.9536 -0.0382 -0.5034
|  9> C 3.1938 0.1849 0.2748
| 10> C 4.4437 -0.1564 -0.2746
| 11> C 5.6187 0.0510 0.4543
| 12> C 5.5604 0.6000 1.7368
| 13> C 4.3262 0.9431 2.2939
| 14> F 4.2710 1.4760 3.5394
| 15> C 3.1476 0.7377 1.5690
| 16> N 1.9385 -0.5677 -1.7484
| 17> C 0.6805 -0.6743 -2.2544
| 18> O 0.4692 -1.2203 -3.5191
| 19> N -2.7422 -0.1337 -0.6171
| 20> C -3.9764 0.6432 -0.7530
| 21> C -4.5138 1.0016 0.6366
| 22> O -4.6333 -0.1541 1.4453
| 23> C -3.3526 -0.7082 1.6831
| 24> C -2.7285 -1.2101 0.3781
| 25> H 4.5143 -0.5835 -1.2671
| 26> H 6.5756 -0.2145 0.0237
| 27> H 6.4721 0.7592 2.2982
| 28> H 2.2045 1.0117 2.0233
| 29> H -0.4549 -1.3872 -3.8935
| 30> H -3.7839 1.5811 -1.3189
| 31> H -4.7322 0.0412 -1.3026
| 32> H -5.5191 1.4588 0.5224
| 33> H -3.8611 1.7637 1.1209
| 34> H -2.6799 0.0301 2.1768
| 35> H -3.4622 -1.5666 2.3789
| 36> H -3.3191 -2.0693 -0.0074
| 37> H -1.6958 -1.5633 0.5793
| 38> *
| 39> 
| 40>                          ****END OF INPUT****
================================================================================

                       ****************************
                       * Single Point Calculation *
                       ****************************

---------------------------------
CARTESIAN COORDINATES (ANGSTROEM)
---------------------------------
  O     -2.181400    0.002000   -2.877400
  C     -1.784100   -0.135200   -1.689200
  C     -0.338400   -0.224300   -1.406500
  S      0.389100    0.321600    0.010300
  C      1.953600   -0.038200   -0.503400
  C      3.193800    0.184900    0.274800
  C      4.443700   -0.156400   -0.274600
  C      5.618700    0.051000    0.454300
  C      5.560400    0.600000    1.736800
  C      4.326200    0.943100    2.293900
  F      4.271000    1.476000    3.539400
  C      3.147600    0.737700    1.569000
  N      1.938500   -0.567700   -1.748400
  C      0.680500   -0.674300   -2.254400
  O      0.469200   -1.220300   -3.519100
  N     -2.742200   -0.133700   -0.617100
  C     -3.976400    0.643200   -0.753000
  C     -4.513800    1.001600    0.636600
  O     -4.633300   -0.154100    1.445300
  C     -3.352600   -0.708200    1.683100
  C     -2.728500   -1.210100    0.378100
  H      4.514300   -0.583500   -1.267100
  H      6.575600   -0.214500    0.023700
  H      6.472100    0.759200    2.298200
  H      2.204500    1.011700    2.023300
  H     -0.454900   -1.387200   -3.893500
  H     -3.783900    1.581100   -1.318900
  H     -4.732200    0.041200   -1.302600
  H     -5.519100    1.458800    0.522400
  H     -3.861100    1.763700    1.120900
  H     -2.679900    0.030100    2.176800
  H     -3.462200   -1.566600    2.378900
  H     -3.319100   -2.069300   -0.007400
  H     -1.695800   -1.563300    0.579300

----------------------------
CARTESIAN COORDINATES (A.U.)
----------------------------
  NO LB      ZA    FRAG     MASS         X           Y           Z
   0 O     8.0000    0    15.999   -4.122249    0.003779   -5.437498
   1 C     6.0000    0    12.011   -3.371460   -0.255491   -3.192125
   2 C     6.0000    0    12.011   -0.639483   -0.423866   -2.657900
   3 S    16.0000    0    32.060    0.735292    0.607736    0.019464
   4 C     6.0000    0    12.011    3.691769   -0.072188   -0.951288
   5 C     6.0000    0    12.011    6.035407    0.349410    0.519297
   6 C     6.0000    0    12.011    8.397376   -0.295553   -0.518919
   7 C     6.0000    0    12.011   10.617804    0.096376    0.858503
   8 C     6.0000    0    12.011   10.507633    1.133836    3.282076
   9 C     6.0000    0    12.011    8.175333    1.782201    4.334843
  10 F     9.0000    0    18.998    8.071020    2.789236    6.688497
  11 C     6.0000    0    12.011    5.948102    1.394051    2.964980
  12 N     7.0000    0    14.007    3.663234   -1.072798   -3.303997
  13 C     6.0000    0    12.011    1.285959   -1.274242   -4.260199
  14 O     8.0000    0    15.999    0.886660   -2.306033   -6.650135
  15 N     7.0000    0    14.007   -5.182007   -0.252656   -1.166150
  16 C     6.0000    0    12.011   -7.514307    1.215472   -1.422964
  17 C     6.0000    0    12.011   -8.529846    1.892750    1.203000
  18 O     8.0000    0    15.999   -8.755668   -0.291207    2.731221
  19 C     6.0000    0    12.011   -6.335496   -1.338304    3.180598
  20 C     6.0000    0    12.011   -5.156118   -2.286758    0.714505
  21 H     1.0000    0     1.008    8.530791   -1.102655   -2.394472
  22 H     1.0000    0     1.008   12.426083   -0.405346    0.044787
  23 H     1.0000    0     1.008   12.230497    1.434680    4.342969
  24 H     1.0000    0     1.008    4.165901    1.911836    3.823483
  25 H     1.0000    0     1.008   -0.859636   -2.621428   -7.357649
  26 H     1.0000    0     1.008   -7.150535    2.987846   -2.492360
  27 H     1.0000    0     1.008   -8.942562    0.077857   -2.461557
  28 H     1.0000    0     1.008  -10.429588    2.756732    0.987193
  29 H     1.0000    0     1.008   -7.296422    3.332910    2.118194
  30 H     1.0000    0     1.008   -5.064277    0.056881    4.113556
  31 H     1.0000    0     1.008   -6.542610   -2.960445    4.495469
  32 H     1.0000    0     1.008   -6.272190   -3.910410   -0.013984
  33 H     1.0000    0     1.008   -3.204598   -2.954209    1.094718

--------------------------------
INTERNAL COORDINATES (ANGSTROEM)
--------------------------------
 O      0   0   0     0.000000000000     0.00000000     0.00000000
 C      1   0   0     1.260353271904     0.00000000     0.00000000
 C      2   1   0     1.475773217673   119.73384891     0.00000000
 S      3   2   1     1.683622671503   124.39703314   148.98582847
 C      4   3   2     1.685527804576    94.32378436   183.57203669
 C      5   4   3     1.481035073859   125.80043144   180.10128931
 C      6   5   4     1.407329407069   120.13616293   180.24806647
 C      7   6   5     1.398189890537   120.45604402   180.01789886
 C      8   7   6     1.396282972753   120.13700363     0.00000000
 C      9   8   7     1.396899302026   119.98518340     0.00000000
 F     10   9   8     1.355839112874   119.92487390   179.99379461
 C     10   9   8     1.398844927074   120.11148289     0.00000000
 N      5   4   3     1.353005269761   110.70906129     0.22658782
 C     13   5   4     1.360133655197   112.53944859   359.83145793
 O     14  13   5     1.393639042220   120.56668650   181.09996679
 N      2   1   3     1.437830403768   119.52372384   176.79894614
 C     16   2   1     1.464681555834   119.52900784   329.70243139
 C     17  16   2     1.532395993208   109.59842008   204.68962826
 O     18  17  16     1.415598258688   110.89800684   307.40097679
 C     19  18  17     1.415545174129   109.82616371    64.56280017
 C     16   2   1     1.466031271836   119.94543981   129.23158077
 H      7   6   5     1.082799621352   120.75677108     0.00000000
 H      8   7   6     1.082388202079   119.94477286   180.00169096
 H      9   8   7     1.082456230062   119.93596246   180.00232617
 H     12  10   9     1.082082298164   118.65850832   179.98314677
 H     15  14  13     1.010936090957   122.64007659   174.64433545
 H     17  16   2     1.112184998101   110.40578105   324.71574815
 H     17  16   2     1.111619449272   109.36235648    84.43787806
 H     18  17  16     1.110270944410   108.69763696   188.11559804
 H     18  17  16     1.114163448512   110.40816636    70.95456715
 H     20  19  18     1.114159714763   111.18063184    58.26683377
 H     20  19  18     1.110405493502   108.57640318   175.85257477
 H     21  16   2     1.111594912727   109.09467968   274.80927907
 H     21  16   2     1.109820242201   111.43407472    34.13483176

---------------------------
INTERNAL COORDINATES (A.U.)
---------------------------
 O      0   0   0     0.000000000000     0.00000000     0.00000000
 C      1   0   0     2.381722515891     0.00000000     0.00000000
 C      2   1   0     2.788807217177   119.73384891     0.00000000
 S      3   2   1     3.181585762002   124.39703314   148.98582847
 C      4   3   2     3.185185941759    94.32378436   183.57203669
 C      5   4   3     2.798750684325   125.80043144   180.10128931
 C      6   5   4     2.659467159573   120.13616293   180.24806647
 C      7   6   5     2.642195976332   120.45604402   180.01789886
 C      8   7   6     2.638592423961   120.13700363     0.00000000
 C      9   8   7     2.639757117494   119.98518340     0.00000000
 F     10   9   8     2.562164604991   119.92487390   179.99379461
 C     10   9   8     2.643433815994   120.11148289     0.00000000
 N      5   4   3     2.556809417600   110.70906129     0.22658782
 C     13   5   4     2.570280113852   112.53944859   359.83145793
 O     14  13   5     2.633596119336   120.56668650   181.09996679
 N      2   1   3     2.717105690147   119.52372384   176.79894614
 C     16   2   1     2.767847013932   119.52900784   329.70243139
 C     17  16   2     2.895808755881   109.59842008   204.68962826
 O     18  17  16     2.675093024576   110.89800684   307.40097679
 C     19  18  17     2.674992709298   109.82616371    64.56280017
 C     16   2   1     2.770397607534   119.94543981   129.23158077
 H      7   6   5     2.046194742269   120.75677108     0.00000000
 H      8   7   6     2.045417272517   119.94477286   180.00169096
 H      9   8   7     2.045545826774   119.93596246   180.00232617
 H     12  10   9     2.044839197894   118.65850832   179.98314677
 H     15  14  13     1.910392350806   122.64007659   174.64433545
 H     17  16   2     2.101725056666   110.40578105   324.71574815
 H     17  16   2     2.100656324265   109.36235648    84.43787806
 H     18  17  16     2.098108019384   108.69763696   188.11559804
 H     18  17  16     2.105463786113   110.40816636    70.95456715
 H     20  19  18     2.105456730349   111.18063184    58.26683377
 H     20  19  18     2.098362280321   108.57640318   175.85257477
 H     21  16   2     2.100609956914   109.09467968   274.80927907
 H     21  16   2     2.097256315643   111.43407472    34.13483176

---------------------
BASIS SET INFORMATION
---------------------
There are 6 groups of distinct atoms

 Group   1 Type O   : 10s4p1d contracted to 3s2p1d pattern {631/31/1}
 Group   2 Type C   : 10s4p1d contracted to 3s2p1d pattern {631/31/1}
 Group   3 Type S   : 16s10p1d contracted to 4s3p1d pattern {6631/631/1}
 Group   4 Type F   : 10s4p1d contracted to 3s2p1d pattern {631/31/1}
 Group   5 Type N   : 10s4p1d contracted to 3s2p1d pattern {631/31/1}
 Group   6 Type H   : 4s contracted to 2s pattern {31}

Atom   0O    basis set group =>   1
Atom   1C    basis set group =>   2
Atom   2C    basis set group =>   2
Atom   3S    basis set group =>   3
Atom   4C    basis set group =>   2
Atom   5C    basis set group =>   2
Atom   6C    basis set group =>   2
Atom   7C    basis set group =>   2
Atom   8C    basis set group =>   2
Atom   9C    basis set group =>   2
Atom  10F    basis set group =>   4
Atom  11C    basis set group =>   2
Atom  12N    basis set group =>   5
Atom  13C    basis set group =>   2
Atom  14O    basis set group =>   1
Atom  15N    basis set group =>   5
Atom  16C    basis set group =>   2
Atom  17C    basis set group =>   2
Atom  18O    basis set group =>   1
Atom  19C    basis set group =>   2
Atom  20C    basis set group =>   2
Atom  21H    basis set group =>   6
Atom  22H    basis set group =>   6
Atom  23H    basis set group =>   6
Atom  24H    basis set group =>   6
Atom  25H    basis set group =>   6
Atom  26H    basis set group =>   6
Atom  27H    basis set group =>   6
Atom  28H    basis set group =>   6
Atom  29H    basis set group =>   6
Atom  30H    basis set group =>   6
Atom  31H    basis set group =>   6
Atom  32H    basis set group =>   6
Atom  33H    basis set group =>   6
---------------------------------
AUXILIARY/J BASIS SET INFORMATION
---------------------------------
There are 6 groups of distinct atoms

 Group   1 Type O   : 12s5p4d2f1g contracted to 6s4p3d1f1g pattern {711111/2111/211/2/1}
 Group   2 Type C   : 12s5p4d2f1g contracted to 6s4p3d1f1g pattern {711111/2111/211/2/1}
 Group   3 Type S   : 14s5p5d2f1g contracted to 8s4p3d1f1g pattern {71111111/2111/311/2/1}
 Group   4 Type F   : 12s5p4d2f1g contracted to 6s4p3d1f1g pattern {711111/2111/211/2/1}
 Group   5 Type N   : 12s5p4d2f1g contracted to 6s4p3d1f1g pattern {711111/2111/211/2/1}
 Group   6 Type H   : 5s2p1d contracted to 3s1p1d pattern {311/2/1}

Atom   0O    basis set group =>   1
Atom   1C    basis set group =>   2
Atom   2C    basis set group =>   2
Atom   3S    basis set group =>   3
Atom   4C    basis set group =>   2
Atom   5C    basis set group =>   2
Atom   6C    basis set group =>   2
Atom   7C    basis set group =>   2
Atom   8C    basis set group =>   2
Atom   9C    basis set group =>   2
Atom  10F    basis set group =>   4
Atom  11C    basis set group =>   2
Atom  12N    basis set group =>   5
Atom  13C    basis set group =>   2
Atom  14O    basis set group =>   1
Atom  15N    basis set group =>   5
Atom  16C    basis set group =>   2
Atom  17C    basis set group =>   2
Atom  18O    basis set group =>   1
Atom  19C    basis set group =>   2
Atom  20C    basis set group =>   2
Atom  21H    basis set group =>   6
Atom  22H    basis set group =>   6
Atom  23H    basis set group =>   6
Atom  24H    basis set group =>   6
Atom  25H    basis set group =>   6
Atom  26H    basis set group =>   6
Atom  27H    basis set group =>   6
Atom  28H    basis set group =>   6
Atom  29H    basis set group =>   6
Atom  30H    basis set group =>   6
Atom  31H    basis set group =>   6
Atom  32H    basis set group =>   6
Atom  33H    basis set group =>   6
------------------------------------------------------------------------------
                             ORCA STARTUP CALCULATIONS
                           -- RI-GTO INTEGRALS CHOSEN --
------------------------------------------------------------------------------
------------------------------------------------------------------------------
                   ___                                                        
                  /   \      - P O W E R E D   B Y -                         
                 /     \                                                     
                 |  |  |   _    _      __       _____    __    __             
                 |  |  |  | |  | |    /  \     |  _  \  |  |  /  |          
                  \  \/   | |  | |   /    \    | | | |  |  | /  /          
                 / \  \   | |__| |  /  /\  \   | |_| |  |  |/  /          
                |  |  |   |  __  | /  /__\  \  |    /   |      \           
                |  |  |   | |  | | |   __   |  |    \   |  |\   \          
                \     /   | |  | | |  |  |  |  | |\  \  |  | \   \       
                 \___/    |_|  |_| |__|  |__|  |_| \__\ |__|  \__/        
                                                                              
                      - O R C A' S   B I G   F R I E N D -                    
                                      &                                       
                       - I N T E G R A L  F E E D E R -                       
                                                                              
 v1 FN, 2020, v2 2021, v3 2022-2024                                           
------------------------------------------------------------------------------


----------------------
SHARK INTEGRAL PACKAGE
----------------------

Number of atoms                             ...     34
Number of basis functions                   ...    324
Number of shells                            ...    154
Maximum angular momentum                    ...      2
Integral batch strategy                     ... SHARK/LIBINT Hybrid
RI-J (if used) integral strategy            ... SPLIT-RIJ (Revised 2003 algorithm where possible)
Printlevel                                  ...      1
Contraction scheme used                     ... SEGMENTED contraction
Prescreening option                         ... SCHWARTZ
   Thresh                                   ... 1.000e-10
   Tcut                                     ... 1.000e-11
   Tpresel                                  ... 1.000e-11 
Coulomb Range Separation                    ... NOT USED
Exchange Range Separation                   ... NOT USED
Multipole approximations                    ... NOT USED
Finite Nucleus Model                        ... NOT USED
CABS basis                                  ... NOT available
Auxiliary Coulomb fitting basis             ... AVAILABLE
   # of basis functions in Aux-J            ...   1174
   # of shells in Aux-J                     ...    382
   Maximum angular momentum in Aux-J        ...      4
Auxiliary J/K fitting basis                 ... NOT available
Auxiliary Correlation fitting basis         ... NOT available
Auxiliary 'external' fitting basis          ... NOT available

Checking pre-screening integrals            ... done (  0.0 sec) Dimension = 154
Check shell pair data                       ... done (  0.0 sec)
Shell pair information
Shell pair cut-off parameter TPreSel        ...   1.0e-11
Total number of shell pairs                 ...     11935
Shell pairs after pre-screening             ...      7679
Total number of primitive shell pairs       ...     72520
Primitive shell pairs kept                  ...     25972
          la=0 lb=0:   2474 shell pairs
          la=1 lb=0:   2669 shell pairs
          la=1 lb=1:    737 shell pairs
          la=2 lb=0:   1072 shell pairs
          la=2 lb=1:    602 shell pairs
          la=2 lb=2:    125 shell pairs

Calculating one electron integrals          ... done (  0.1 sec)
Calculating RI/J V-Matrix + Cholesky decomp.... done (  0.2 sec)
Calculating Nuclear repulsion               ... done (  0.0 sec) ENN=   1753.597114454887 Eh

Diagonalization of the overlap matrix:
Smallest eigenvalue                        ... 4.987e-04
Time for diagonalization                   ...    0.009 sec
Threshold for overlap eigenvalues          ... 1.000e-07
Number of eigenvalues below threshold      ... 0
Time for construction of square roots      ...    0.017 sec
Total time needed                          ...    0.035 sec

-------------------
DFT GRID GENERATION
-------------------

General Integration Accuracy     IntAcc      ... 4.388
Radial Grid Type                 RadialGrid  ... OptM3 with GC (2021)
Angular Grid (max. ang.)         AngularGrid ... 4 (Lebedev-302)
Angular grid pruning method      GridPruning ... 4 (adaptive)
Weight generation scheme         WeightScheme... mBecke (2022)
Basis function cutoff            BFCut       ... 1.0000e-10
Integration weight cutoff        WCut        ... 1.0000e-14
Partially contracted basis set               ... off
Rotationally invariant grid construction     ... off
Angular grids for H and He will be reduced by one unit

Total number of grid points                  ...   168882
Total number of batches                      ...     2654
Average number of points per batch           ...       63
Average number of grid points per atom       ...     4967

--------------------
COSX GRID GENERATION
--------------------

GRIDX 1
-------
General Integration Accuracy     IntAcc      ... 3.816
Radial Grid Type                 RadialGrid  ... OptM3 with GC (2021)
Angular Grid (max. ang.)         AngularGrid ... 1 (Lebedev-50)
Angular grid pruning method      GridPruning ... 4 (adaptive)
Weight generation scheme         WeightScheme... mBecke (2022)
Basis function cutoff            BFCut       ... 1.0000e-10
Integration weight cutoff        WCut        ... 1.0000e-14
Partially contracted basis set               ... on
Rotationally invariant grid construction     ... off
Angular grids for H and He will be reduced by one unit

Total number of grid points                  ...    22451
Total number of batches                      ...      196
Average number of points per batch           ...      114
Average number of grid points per atom       ...      660
UseSFitting                                  ... on

GRIDX 2
-------
General Integration Accuracy     IntAcc      ... 4.020
Radial Grid Type                 RadialGrid  ... OptM3 with GC (2021)
Angular Grid (max. ang.)         AngularGrid ... 2 (Lebedev-110)
Angular grid pruning method      GridPruning ... 4 (adaptive)
Weight generation scheme         WeightScheme... mBecke (2022)
Basis function cutoff            BFCut       ... 1.0000e-10
Integration weight cutoff        WCut        ... 1.0000e-14
Partially contracted basis set               ... on
Rotationally invariant grid construction     ... off
Angular grids for H and He will be reduced by one unit

Total number of grid points                  ...    47139
Total number of batches                      ...      387
Average number of points per batch           ...      121
Average number of grid points per atom       ...     1386
UseSFitting                                  ... on

GRIDX 3
-------
General Integration Accuracy     IntAcc      ... 4.338
Radial Grid Type                 RadialGrid  ... OptM3 with GC (2021)
Angular Grid (max. ang.)         AngularGrid ... 3 (Lebedev-194)
Angular grid pruning method      GridPruning ... 4 (adaptive)
Weight generation scheme         WeightScheme... mBecke (2022)
Basis function cutoff            BFCut       ... 1.0000e-10
Integration weight cutoff        WCut        ... 1.0000e-14
Partially contracted basis set               ... on
Rotationally invariant grid construction     ... off
Angular grids for H and He will be reduced by one unit

Total number of grid points                  ...   103897
Total number of batches                      ...      829
Average number of points per batch           ...      125
Average number of grid points per atom       ...     3056
UseSFitting                                  ... on
Initializing property integral containers    ... done (  0.0 sec)

SHARK setup successfully completed in   5.0 seconds

Maximum memory used throughout the entire STARTUP-calculation: 70.0 MB
-------------------------------------------------------------------------------
                                 ORCA GUESS
                   Start orbitals & Density for SCF / CASSCF
-------------------------------------------------------------------------------

------------
SCF SETTINGS
------------
Hamiltonian:
 Density Functional     Method          .... DFT(GTOs)
 Exchange Functional    Exchange        .... B88
   X-Alpha parameter    XAlpha          ....  0.666667
   Becke's b parameter  XBeta           ....  0.004200
 Correlation Functional Correlation     .... LYP
 LDA part of GGA corr.  LDAOpt          .... VWN-5
 Gradients option       PostSCFGGA      .... off
 Hybrid DFT is turned on
   Fraction HF Exchange ScalHFX         ....  0.200000
   Scaling of DF-GGA-X  ScalDFX         ....  0.720000
   Scaling of DF-GGA-C  ScalDFC         ....  0.810000
   Scaling of DF-LDA-C  ScalLDAC        ....  1.000000
   Perturbative correction              ....  0.000000
   NL short-range parameter             ....  4.800000
 RI-approximation to the Coulomb term is turned on
   Number of AuxJ basis functions       .... 1174
   RIJ-COSX (HFX calculated with COS-X)).... on


General Settings:
 Integral files         IntName         .... /home/nmrbox/aojoawo/Documents/ERDOS/inputs/CHEMBL5284452
 Hartree-Fock type      HFTyp           .... RHF
 Total Charge           Charge          ....    0
 Multiplicity           Mult            ....    1
 Number of Electrons    NEL             ....  160
 Basis Dimension        Dim             ....  324
 Nuclear Repulsion      ENuc            ....   1753.5971144549 Eh

Convergence Acceleration:
 AO-DIIS                CNVDIIS         .... on
   Start iteration      DIISMaxIt       ....    12
   Startup error        DIISStart       ....  0.200000
   # of expansion vecs  DIISMaxEq       ....     5
   Bias factor          DIISBfac        ....   1.050
   Max. coefficient     DIISMaxC        ....  10.000
 MO-DIIS                CNVKDIIS        .... off
 Trust-Rad. Augm. Hess. CNVTRAH         .... auto
   Auto Start mean grad. ratio tolernc. ....  1.125000
   Auto Start start iteration           ....    50
   Auto Start num. interpolation iter.  ....    10
   Max. Number of Micro iterations      ....    24
   Max. Number of Macro iterations      .... Maxiter - #DIIS iter
   Number of Davidson start vectors     ....     2
   Converg. threshold    (grad. norm)   ....   5.000e-05
   Grad. Scal. Fac. for Micro threshold ....   0.100
   Minimum threshold for Micro iter.    ....   1.000e-02
   NR start threshold (gradient norm)   ....   1.000e-04
   Initial trust radius                 ....   0.400
   Minimum AH scaling param. (alpha)    ....   1.000
   Maximum AH scaling param. (alpha)    .... 1000.000
   Quad. conv. algorithm                .... NR
   White noise on init. David. guess    .... on
   Maximum white noise                  ....   0.010
   Pseudo random numbers                .... off
   Inactive MOs                         .... canonical
   Orbital update algorithm             .... Taylor
   Preconditioner                       .... Diag
   Full preconditioner red. dimension   ....   250
 SOSCF                  CNVSOSCF        .... on
   Start iteration      SOSCFMaxIt      ....   150
   Startup grad/error   SOSCFStart      ....  0.003300
   Hessian update       SOSCFHessUp     .... L-BFGS
 Level Shifting         CNVShift        .... on
   Level shift para.    LevelShift      ....    0.2500
   Turn off err/grad.   ShiftErr        ....    0.0010
 Zerner damping         CNVZerner       .... off
 Static damping         CNVDamp         .... on
   Fraction old density DampFac         ....    0.7000
   Max. Damping (<1)    DampMax         ....    0.9800
   Min. Damping (>=0)   DampMin         ....    0.0000
   Turn off err/grad.   DampErr         ....    0.1000

SCF Procedure:
 Maximum # iterations   MaxIter         ....   125
 SCF integral mode      SCFMode         .... Direct
   Integral package                     .... SHARK and LIBINT hybrid scheme
 Reset frequency        DirectResetFreq ....    20
 Integral Threshold     Thresh          ....  1.000e-10 Eh
 Primitive CutOff       TCut            ....  1.000e-11 Eh

Convergence Tolerance:
 Convergence Check Mode ConvCheckMode   .... Total+1el-Energy
 Convergence forced     ConvForced      .... 0
 Energy Change          TolE            ....  1.000e-06 Eh
 1-El. energy change                    ....  1.000e-03 Eh
 Orbital Gradient       TolG            ....  5.000e-05
 Orbital Rotation angle TolX            ....  5.000e-05
 DIIS Error             TolErr          ....  1.000e-06

------------------------------
INITIAL GUESS: MODEL POTENTIAL
------------------------------
Loading Hartree-Fock densities                     ... done
Calculating cut-offs                               ... done
Initializing the effective Hamiltonian             ... done
Setting up the integral package (SHARK)            ... done
Starting the Coulomb interaction                   ... done (   0.8 sec)
Making the grid                                    ... done (   0.7 sec)
Mapping shells                                     ... done
Starting the XC term evaluation                    ... done (   0.5 sec)
  promolecular density results
     # of electrons  =    159.997466170
     EX              =   -148.660561039
     EC              =     -5.657350060
     EX+EC           =   -154.317911099
Transforming the Hamiltonian                       ... done (   0.0 sec)
Diagonalizing the Hamiltonian                      ... done (   0.0 sec)
Back transforming the eigenvectors                 ... done (   0.0 sec)
Now organizing SCF variables                       ... done
                      ------------------
                      INITIAL GUESS DONE (   2.0 sec)
                      ------------------
             **** ENERGY FILE WAS UPDATED (/home/nmrbox/aojoawo/Documents/ERDOS/inputs/CHEMBL5284452.en.tmp) ****
Finished Guess after   2.2 sec
Maximum memory used throughout the entire GUESS-calculation: 36.7 MB

-------------------------------------------------------------------------------------------
                                      ORCA LEAN-SCF
                              memory conserving SCF solver
-------------------------------------------------------------------------------------------

----------------------------------------D-I-I-S--------------------------------------------
Iteration    Energy (Eh)           Delta-E    RMSDP     MaxDP     DIISErr   Damp  Time(sec)
-------------------------------------------------------------------------------------------
               ***  Starting incremental Fock matrix formation  ***
    1    -1373.3559761679432540     0.00e+00  2.76e-03  1.12e-01  2.79e-01  0.700  18.2
    2    -1373.6012913473193748    -2.45e-01  1.76e-03  6.30e-02  1.02e-01  0.700   8.8
                               ***Turning on AO-DIIS***
    3    -1373.6860333031015671    -8.47e-02  7.02e-04  2.44e-02  3.50e-02  0.700   8.3
    4    -1373.7400738114781689    -5.40e-02  1.25e-03  6.71e-02  1.66e-02  0.000   7.9
    5    -1373.8626100546637190    -1.23e-01  3.01e-04  1.03e-02  8.61e-03  0.000   8.1
    6    -1373.8635982605253503    -9.88e-04  1.10e-04  3.16e-03  3.49e-03  0.000   7.3
                              *** Initializing SOSCF ***
---------------------------------------S-O-S-C-F--------------------------------------
Iteration    Energy (Eh)           Delta-E    RMSDP     MaxDP     MaxGrad    Time(sec)
--------------------------------------------------------------------------------------
    7    -1373.8636972037763826    -9.89e-05  3.82e-05  1.20e-03  2.02e-03     6.4
               *** Restarting incremental Fock matrix formation ***
    8    -1373.8637279544893772    -3.08e-05  3.37e-05  1.20e-03  1.67e-04    17.2
    9    -1373.8637271224645247     8.32e-07  1.78e-05  6.57e-04  3.38e-04    10.1
                 **** Energy Check signals convergence ****

               *****************************************************
               *                     SUCCESS                       *
               *           SCF CONVERGED AFTER   9 CYCLES          *
               *****************************************************

Recomputing exchange energy using gridx3       ... done (   29.448 sec)
Old exchange energy                            :    -30.036084158 Eh
New exchange energy                            :    -30.036043287 Eh
Exchange energy change after final integration :      0.000040871 Eh
Total energy after final integration           :  -1373.863686252 Eh
             **** ENERGY FILE WAS UPDATED (/home/nmrbox/aojoawo/Documents/ERDOS/inputs/CHEMBL5284452.en.tmp) ****

----------------
TOTAL SCF ENERGY
----------------

Total Energy       :      -1373.86368625168666 Eh          -37384.73151 eV

Components:
Nuclear Repulsion  :       1753.59711445488733 Eh           47717.80341 eV
Electronic Energy  :      -3127.46084157735186 Eh          -85102.53603 eV
One Electron Energy:      -5367.34891046580469 Eh         -146052.98904 eV
Two Electron Energy:       2239.88806888845284 Eh           60950.45302 eV

Virial components:
Potential Energy   :      -2740.81982188817074 Eh          -74581.49900 eV
Kinetic Energy     :       1366.95613563648385 Eh           37196.76750 eV
Virial Ratio       :          2.00505323501985

DFT components:
N(Alpha)           :       80.000001746850 electrons
N(Beta)            :       80.000001746850 electrons
N(Total)           :      160.000003493699 electrons
E(X)               :     -119.388583964168 Eh       
E(C)               :       -6.643212038981 Eh       
E(XC)              :     -126.031796003149 Eh       

---------------
SCF CONVERGENCE
---------------

  Last Energy change         ...   -8.3202e-07  Tolerance :   1.0000e-06
  Last MAX-Density change    ...    6.5748e-04  Tolerance :   1.0000e-05
  Last RMS-Density change    ...    1.7848e-05  Tolerance :   1.0000e-06
  Last DIIS Error            ...    2.0223e-03  Tolerance :   1.0000e-06
  Last Orbital Gradient      ...    3.3794e-04  Tolerance :   5.0000e-05
  Last Orbital Rotation      ...    5.5844e-04  Tolerance :   5.0000e-05


----------------
ORBITAL ENERGIES
----------------

  NO   OCC          E(Eh)            E(eV) 
   0   2.0000     -88.909167     -2419.3414 
   1   2.0000     -24.707723      -672.3313 
   2   2.0000     -19.175271      -521.7857 
   3   2.0000     -19.153874      -521.2034 
   4   2.0000     -19.126212      -520.4507 
   5   2.0000     -14.356908      -390.6713 
   6   2.0000     -14.343775      -390.3140 
   7   2.0000     -10.304712      -280.4055 
   8   2.0000     -10.297158      -280.1999 
   9   2.0000     -10.281000      -279.7602 
  10   2.0000     -10.270066      -279.4627 
  11   2.0000     -10.236972      -278.5622 
  12   2.0000     -10.236104      -278.5385 
  13   2.0000     -10.225922      -278.2615 
  14   2.0000     -10.225462      -278.2490 
  15   2.0000     -10.221664      -278.1456 
  16   2.0000     -10.219604      -278.0896 
  17   2.0000     -10.205810      -277.7142 
  18   2.0000     -10.203537      -277.6524 
  19   2.0000     -10.201600      -277.5997 
  20   2.0000     -10.198403      -277.5127 
  21   2.0000      -7.986364      -217.3200 
  22   2.0000      -5.949223      -161.8866 
  23   2.0000      -5.945319      -161.7804 
  24   2.0000      -5.943493      -161.7307 
  25   2.0000      -1.221029       -33.2259 
  26   2.0000      -1.049447       -28.5569 
  27   2.0000      -1.045876       -28.4597 
  28   2.0000      -1.022825       -27.8325 
  29   2.0000      -0.970068       -26.3969 
  30   2.0000      -0.923622       -25.1330 
  31   2.0000      -0.873538       -23.7702 
  32   2.0000      -0.824937       -22.4477 
  33   2.0000      -0.793502       -21.5923 
  34   2.0000      -0.782695       -21.2982 
  35   2.0000      -0.759342       -20.6627 
  36   2.0000      -0.739820       -20.1315 
  37   2.0000      -0.713775       -19.4228 
  38   2.0000      -0.666494       -18.1362 
  39   2.0000      -0.654074       -17.7982 
  40   2.0000      -0.634227       -17.2582 
  41   2.0000      -0.622714       -16.9449 
  42   2.0000      -0.601523       -16.3683 
  43   2.0000      -0.581017       -15.8103 
  44   2.0000      -0.563254       -15.3269 
  45   2.0000      -0.536526       -14.5996 
  46   2.0000      -0.533737       -14.5237 
  47   2.0000      -0.508704       -13.8425 
  48   2.0000      -0.504084       -13.7168 
  49   2.0000      -0.489270       -13.3137 
  50   2.0000      -0.479382       -13.0446 
  51   2.0000      -0.475145       -12.9294 
  52   2.0000      -0.473799       -12.8927 
  53   2.0000      -0.464117       -12.6293 
  54   2.0000      -0.461256       -12.5514 
  55   2.0000      -0.451069       -12.2742 
  56   2.0000      -0.445765       -12.1299 
  57   2.0000      -0.444937       -12.1074 
  58   2.0000      -0.439814       -11.9679 
  59   2.0000      -0.419154       -11.4058 
  60   2.0000      -0.412521       -11.2253 
  61   2.0000      -0.403498       -10.9797 
  62   2.0000      -0.400804       -10.9064 
  63   2.0000      -0.383759       -10.4426 
  64   2.0000      -0.381833       -10.3902 
  65   2.0000      -0.380683       -10.3589 
  66   2.0000      -0.370944       -10.0939 
  67   2.0000      -0.360560        -9.8113 
  68   2.0000      -0.358490        -9.7550 
  69   2.0000      -0.350518        -9.5381 
  70   2.0000      -0.343190        -9.3387 
  71   2.0000      -0.318911        -8.6780 
  72   2.0000      -0.296205        -8.0602 
  73   2.0000      -0.285087        -7.7576 
  74   2.0000      -0.273550        -7.4437 
  75   2.0000      -0.271583        -7.3902 
  76   2.0000      -0.265387        -7.2216 
  77   2.0000      -0.255135        -6.9426 
  78   2.0000      -0.230043        -6.2598 
  79   2.0000      -0.223061        -6.0698 
  80   0.0000      -0.076326        -2.0769 
  81   0.0000      -0.019146        -0.5210 
  82   0.0000      -0.012215        -0.3324 
  83   0.0000       0.024202         0.6586 
  84   0.0000       0.032259         0.8778 
  85   0.0000       0.066719         1.8155 
  86   0.0000       0.069292         1.8855 
  87   0.0000       0.081891         2.2284 
  88   0.0000       0.089732         2.4417 
  89   0.0000       0.103912         2.8276 
  90   0.0000       0.108390         2.9494 
*Only the first 10 virtual orbitals were printed.

                    ********************************
                    * MULLIKEN POPULATION ANALYSIS *
                    ********************************

-----------------------
MULLIKEN ATOMIC CHARGES
-----------------------
   0 O :   -0.476094
   1 C :    0.493487
   2 C :   -0.272047
   3 S :    0.274130
   4 C :   -0.011305
   5 C :    0.156349
   6 C :   -0.160087
   7 C :   -0.116674
   8 C :   -0.199341
   9 C :    0.412608
  10 F :   -0.315269
  11 C :   -0.279316
  12 N :   -0.401937
  13 C :    0.514745
  14 O :   -0.639643
  15 N :   -0.444122
  16 C :   -0.120018
  17 C :   -0.040114
  18 O :   -0.455866
  19 C :   -0.032740
  20 C :   -0.147465
  21 H :    0.172229
  22 H :    0.149149
  23 H :    0.150857
  24 H :    0.159021
  25 H :    0.442993
  26 H :    0.163321
  27 H :    0.151980
  28 H :    0.151474
  29 H :    0.127503
  30 H :    0.130825
  31 H :    0.147797
  32 H :    0.152650
  33 H :    0.160920
Sum of atomic charges:    0.0000000

--------------------------------
MULLIKEN REDUCED ORBITAL CHARGES
--------------------------------
  0 O s       :     3.890684  s :     3.890684
      pz      :     1.385642  p :     4.560279
      px      :     1.755669
      py      :     1.418968
      dz2     :     0.008617  d :     0.025130
      dxz     :     0.006385
      dyz     :     0.008014
      dx2y2   :     0.000899
      dxy     :     0.001216

  1 C s       :     3.033565  s :     3.033565
      pz      :     0.727934  p :     2.370716
      px      :     0.820711
      py      :     0.822070
      dz2     :     0.030211  d :     0.102233
      dxz     :     0.037241
      dyz     :     0.018062
      dx2y2   :     0.008557
      dxy     :     0.008161

  2 C s       :     3.227410  s :     3.227410
      pz      :     0.912448  p :     3.007779
      px      :     0.921251
      py      :     1.174080
      dz2     :     0.008315  d :     0.036858
      dxz     :     0.010777
      dyz     :     0.005205
      dx2y2   :     0.006613
      dxy     :     0.005949

  3 S s       :     5.799048  s :     5.799048
      pz      :     3.273369  p :     9.820399
      px      :     2.988896
      py      :     3.558134
      dz2     :     0.023230  d :     0.106423
      dxz     :     0.028505
      dyz     :     0.014315
      dx2y2   :     0.017780
      dxy     :     0.022593

  4 C s       :     3.176865  s :     3.176865
      pz      :     0.893967  p :     2.773880
      px      :     0.890603
      py      :     0.989310
      dz2     :     0.014495  d :     0.060559
      dxz     :     0.019060
      dyz     :     0.009727
      dx2y2   :     0.007953
      dxy     :     0.009325

  5 C s       :     3.127324  s :     3.127324
      pz      :     0.873358  p :     2.676153
      px      :     0.833537
      py      :     0.969259
      dz2     :     0.009018  d :     0.040174
      dxz     :     0.011959
      dyz     :     0.005890
      dx2y2   :     0.006752
      dxy     :     0.006554

  6 C s       :     3.203342  s :     3.203342
      pz      :     0.997722  p :     2.921363
      px      :     0.943981
      py      :     0.979660
      dz2     :     0.008806  d :     0.035382
      dxz     :     0.009453
      dyz     :     0.004591
      dx2y2   :     0.006024
      dxy     :     0.006507

  7 C s       :     3.192285  s :     3.192285
      pz      :     0.931063  p :     2.887924
      px      :     0.985122
      py      :     0.971738
      dz2     :     0.008773  d :     0.036466
      dxz     :     0.010932
      dyz     :     0.005463
      dx2y2   :     0.006542
      dxy     :     0.004755

  8 C s       :     3.204063  s :     3.204063
      pz      :     0.991144  p :     2.960624
      px      :     0.957059
      py      :     1.012421
      dz2     :     0.006768  d :     0.034654
      dxz     :     0.012440
      dyz     :     0.004549
      dx2y2   :     0.006049
      dxy     :     0.004848

  9 C s       :     3.085048  s :     3.085048
      pz      :     0.628025  p :     2.429821
      px      :     0.883758
      py      :     0.918038
      dz2     :     0.021014  d :     0.072523
      dxz     :     0.019776
      dyz     :     0.014022
      dx2y2   :     0.008518
      dxy     :     0.009192

 10 F s       :     3.972133  s :     3.972133
      pz      :     1.560631  p :     5.325935
      px      :     1.927217
      py      :     1.838088
      dz2     :     0.006632  d :     0.017201
      dxz     :     0.003610
      dyz     :     0.005416
      dx2y2   :     0.000835
      dxy     :     0.000708

 11 C s       :     3.216999  s :     3.216999
      pz      :     1.010336  p :     3.028331
      px      :     0.979549
      py      :     1.038446
      dz2     :     0.007282  d :     0.033986
      dxz     :     0.011053
      dyz     :     0.005164
      dx2y2   :     0.005655
      dxy     :     0.004833

 12 N s       :     3.715548  s :     3.715548
      pz      :     1.115686  p :     3.648378
      px      :     1.328525
      py      :     1.204167
      dz2     :     0.009362  d :     0.038011
      dxz     :     0.007500
      dyz     :     0.006546
      dx2y2   :     0.008073
      dxy     :     0.006530

 13 C s       :     2.990684  s :     2.990684
      pz      :     0.672892  p :     2.407323
      px      :     0.845912
      py      :     0.888518
      dz2     :     0.023107  d :     0.087249
      dxz     :     0.024000
      dyz     :     0.015211
      dx2y2   :     0.012172
      dxy     :     0.012760

 14 O s       :     3.886179  s :     3.886179
      pz      :     1.443361  p :     4.731348
      px      :     1.520841
      py      :     1.767145
      dz2     :     0.006873  d :     0.022116
      dxz     :     0.002911
      dyz     :     0.004461
      dx2y2   :     0.006592
      dxy     :     0.001279

 15 N s       :     3.555693  s :     3.555693
      pz      :     1.289932  p :     3.854421
      px      :     1.222295
      py      :     1.342194
      dz2     :     0.006133  d :     0.034007
      dxz     :     0.008240
      dyz     :     0.006385
      dx2y2   :     0.007043
      dxy     :     0.006207

 16 C s       :     3.209155  s :     3.209155
      pz      :     0.979090  p :     2.857808
      px      :     0.882534
      py      :     0.996184
      dz2     :     0.008155  d :     0.053054
      dxz     :     0.010610
      dyz     :     0.009279
      dx2y2   :     0.010592
      dxy     :     0.014418

 17 C s       :     3.203253  s :     3.203253
      pz      :     0.874398  p :     2.771266
      px      :     1.063976
      py      :     0.832892
      dz2     :     0.015178  d :     0.065594
      dxz     :     0.007716
      dyz     :     0.018004
      dx2y2   :     0.010429
      dxy     :     0.014268

 18 O s       :     3.856637  s :     3.856637
      pz      :     1.685812  p :     4.570242
      px      :     1.448792
      py      :     1.435638
      dz2     :     0.004367  d :     0.028987
      dxz     :     0.004463
      dyz     :     0.005673
      dx2y2   :     0.008319
      dxy     :     0.006165

 19 C s       :     3.200094  s :     3.200094
      pz      :     0.979765  p :     2.767061
      px      :     0.778896
      py      :     1.008400
      dz2     :     0.007910  d :     0.065585
      dxz     :     0.014516
      dyz     :     0.013456
      dx2y2   :     0.013244
      dxy     :     0.016459

 20 C s       :     3.214446  s :     3.214446
      pz      :     0.894996  p :     2.879157
      px      :     1.066601
      py      :     0.917560
      dz2     :     0.012537  d :     0.053863
      dxz     :     0.006318
      dyz     :     0.015123
      dx2y2   :     0.009620
      dxy     :     0.010265

 21 H s       :     0.827771  s :     0.827771

 22 H s       :     0.850851  s :     0.850851

 23 H s       :     0.849143  s :     0.849143

 24 H s       :     0.840979  s :     0.840979

 25 H s       :     0.557007  s :     0.557007

 26 H s       :     0.836679  s :     0.836679

 27 H s       :     0.848020  s :     0.848020

 28 H s       :     0.848526  s :     0.848526

 29 H s       :     0.872497  s :     0.872497

 30 H s       :     0.869175  s :     0.869175

 31 H s       :     0.852203  s :     0.852203

 32 H s       :     0.847350  s :     0.847350

 33 H s       :     0.839080  s :     0.839080



                     *******************************
                     * LOEWDIN POPULATION ANALYSIS *
                     *******************************

----------------------
LOEWDIN ATOMIC CHARGES
----------------------
   0 O :   -0.280883
   1 C :    0.134254
   2 C :   -0.289553
   3 S :    0.398235
   4 C :   -0.107395
   5 C :   -0.022301
   6 C :   -0.111214
   7 C :   -0.115720
   8 C :   -0.148012
   9 C :    0.119510
  10 F :   -0.101216
  11 C :   -0.152972
  12 N :   -0.158444
  13 C :    0.117451
  14 O :   -0.326150
  15 N :   -0.129669
  16 C :   -0.159399
  17 C :   -0.101645
  18 O :   -0.232774
  19 C :   -0.102303
  20 C :   -0.167131
  21 H :    0.154570
  22 H :    0.142096
  23 H :    0.146300
  24 H :    0.149489
  25 H :    0.352035
  26 H :    0.141253
  27 H :    0.122363
  28 H :    0.129462
  29 H :    0.107128
  30 H :    0.108132
  31 H :    0.127234
  32 H :    0.119808
  33 H :    0.137462

-------------------------------
LOEWDIN REDUCED ORBITAL CHARGES
-------------------------------
  0 O s       :     3.589072  s :     3.589072
      pz      :     1.466739  p :     4.641730
      px      :     1.759559
      py      :     1.415432
      dz2     :     0.020979  d :     0.050082
      dxz     :     0.013941
      dyz     :     0.011959
      dx2y2   :     0.001473
      dxy     :     0.001729

  1 C s       :     2.857877  s :     2.857877
      pz      :     0.966583  p :     2.769172
      px      :     0.976821
      py      :     0.825767
      dz2     :     0.074496  d :     0.238697
      dxz     :     0.092123
      dyz     :     0.036579
      dx2y2   :     0.018838
      dxy     :     0.016661

  2 C s       :     2.933845  s :     2.933845
      pz      :     1.043662  p :     3.259367
      px      :     1.049589
      py      :     1.166116
      dz2     :     0.022296  d :     0.096341
      dxz     :     0.031184
      dyz     :     0.012607
      dx2y2   :     0.016670
      dxy     :     0.013585

  3 S s       :     5.518886  s :     5.518886
      pz      :     3.355779  p :     9.955964
      px      :     3.047185
      py      :     3.553000
      dz2     :     0.026996  d :     0.126915
      dxz     :     0.034777
      dyz     :     0.016019
      dx2y2   :     0.022517
      dxy     :     0.026606

  4 C s       :     2.918795  s :     2.918795
      pz      :     1.015358  p :     3.048220
      px      :     1.031562
      py      :     1.001300
      dz2     :     0.034512  d :     0.140380
      dxz     :     0.046620
      dyz     :     0.021164
      dx2y2   :     0.018204
      dxy     :     0.019881

  5 C s       :     2.866307  s :     2.866307
      pz      :     1.032431  p :     3.053140
      px      :     1.026723
      py      :     0.993986
      dz2     :     0.023959  d :     0.102854
      dxz     :     0.032966
      dyz     :     0.013763
      dx2y2   :     0.017184
      dxy     :     0.014982

  6 C s       :     2.916753  s :     2.916753
      pz      :     1.073533  p :     3.112063
      px      :     1.047302
      py      :     0.991228
      dz2     :     0.018954  d :     0.082399
      dxz     :     0.024807
      dyz     :     0.007642
      dx2y2   :     0.016261
      dxy     :     0.014734

  7 C s       :     2.916818  s :     2.916818
      pz      :     1.049970  p :     3.112961
      px      :     1.078190
      py      :     0.984801
      dz2     :     0.022469  d :     0.085941
      dxz     :     0.027430
      dyz     :     0.012903
      dx2y2   :     0.013319
      dxy     :     0.009820

  8 C s       :     2.922796  s :     2.922796
      pz      :     1.064489  p :     3.143413
      px      :     1.063899
      py      :     1.015024
      dz2     :     0.017927  d :     0.081803
      dxz     :     0.029593
      dyz     :     0.010807
      dx2y2   :     0.013098
      dxy     :     0.010378

  9 C s       :     2.864235  s :     2.864235
      pz      :     0.806188  p :     2.836966
      px      :     1.086843
      py      :     0.943935
      dz2     :     0.051263  d :     0.179289
      dxz     :     0.053451
      dyz     :     0.032993
      dx2y2   :     0.020120
      dxy     :     0.021463

 10 F s       :     3.735122  s :     3.735122
      pz      :     1.576439  p :     5.331723
      px      :     1.920723
      py      :     1.834560
      dz2     :     0.013425  d :     0.034371
      dxz     :     0.007020
      dyz     :     0.010953
      dx2y2   :     0.001628
      dxy     :     0.001344

 11 C s       :     2.919439  s :     2.919439
      pz      :     1.051508  p :     3.154020
      px      :     1.068707
      py      :     1.033805
      dz2     :     0.018731  d :     0.079512
      dxz     :     0.027429
      dyz     :     0.011634
      dx2y2   :     0.012111
      dxy     :     0.009607

 12 N s       :     3.249252  s :     3.249252
      pz      :     1.213722  p :     3.827206
      px      :     1.397305
      py      :     1.216180
      dz2     :     0.023234  d :     0.081985
      dxz     :     0.016917
      dyz     :     0.014912
      dx2y2   :     0.016638
      dxy     :     0.010284

 13 C s       :     2.846444  s :     2.846444
      pz      :     0.890743  p :     2.833232
      px      :     1.011584
      py      :     0.930905
      dz2     :     0.052422  d :     0.202873
      dxz     :     0.061339
      dyz     :     0.032927
      dx2y2   :     0.028212
      dxy     :     0.027973

 14 O s       :     3.528579  s :     3.528579
      pz      :     1.464769  p :     4.755592
      px      :     1.530767
      py      :     1.760056
      dz2     :     0.014384  d :     0.041979
      dxz     :     0.006788
      dyz     :     0.009029
      dx2y2   :     0.009598
      dxy     :     0.002179

 15 N s       :     3.113819  s :     3.113819
      pz      :     1.305073  p :     3.929912
      px      :     1.260558
      py      :     1.364281
      dz2     :     0.015479  d :     0.085938
      dxz     :     0.022131
      dyz     :     0.014972
      dx2y2   :     0.017561
      dxy     :     0.015796

 16 C s       :     2.935488  s :     2.935488
      pz      :     1.074641  p :     3.111500
      px      :     0.974307
      py      :     1.062553
      dz2     :     0.018758  d :     0.112411
      dxz     :     0.023156
      dyz     :     0.018693
      dx2y2   :     0.022058
      dxy     :     0.029745

 17 C s       :     2.936707  s :     2.936707
      pz      :     0.984628  p :     3.025256
      px      :     1.110466
      py      :     0.930161
      dz2     :     0.034858  d :     0.139682
      dxz     :     0.016303
      dyz     :     0.038235
      dx2y2   :     0.021631
      dxy     :     0.028654

 18 O s       :     3.495886  s :     3.495886
      pz      :     1.688688  p :     4.671338
      px      :     1.501208
      py      :     1.481441
      dz2     :     0.009198  d :     0.065551
      dxz     :     0.009378
      dyz     :     0.013237
      dx2y2   :     0.018855
      dxy     :     0.014882

 19 C s       :     2.936392  s :     2.936392
      pz      :     1.059508  p :     3.025978
      px      :     0.897230
      py      :     1.069241
      dz2     :     0.016934  d :     0.139933
      dxz     :     0.032872
      dyz     :     0.027562
      dx2y2   :     0.028158
      dxy     :     0.034407

 20 C s       :     2.935297  s :     2.935297
      pz      :     1.000492  p :     3.118074
      px      :     1.110193
      py      :     1.007390
      dz2     :     0.028016  d :     0.113759
      dxz     :     0.013379
      dyz     :     0.032776
      dx2y2   :     0.019213
      dxy     :     0.020374

 21 H s       :     0.845430  s :     0.845430

 22 H s       :     0.857904  s :     0.857904

 23 H s       :     0.853700  s :     0.853700

 24 H s       :     0.850511  s :     0.850511

 25 H s       :     0.647965  s :     0.647965

 26 H s       :     0.858747  s :     0.858747

 27 H s       :     0.877637  s :     0.877637

 28 H s       :     0.870538  s :     0.870538

 29 H s       :     0.892872  s :     0.892872

 30 H s       :     0.891868  s :     0.891868

 31 H s       :     0.872766  s :     0.872766

 32 H s       :     0.880192  s :     0.880192

 33 H s       :     0.862538  s :     0.862538



                      *****************************
                      * MAYER POPULATION ANALYSIS *
                      *****************************

  NA   - Mulliken gross atomic population
  ZA   - Total nuclear charge
  QA   - Mulliken gross atomic charge
  VA   - Mayer's total valence
  BVA  - Mayer's bonded valence
  FA   - Mayer's free valence

  ATOM       NA         ZA         QA         VA         BVA        FA
  0 O      8.4761     8.0000    -0.4761     2.0432     2.0432    -0.0000
  1 C      5.5065     6.0000     0.4935     3.9454     3.9454     0.0000
  2 C      6.2720     6.0000    -0.2720     3.6468     3.6468     0.0000
  3 S     15.7259    16.0000     0.2741     2.4792     2.4792     0.0000
  4 C      6.0113     6.0000    -0.0113     3.8438     3.8438    -0.0000
  5 C      5.8437     6.0000     0.1563     3.9335     3.9335    -0.0000
  6 C      6.1601     6.0000    -0.1601     3.9056     3.9056    -0.0000
  7 C      6.1167     6.0000    -0.1167     3.9114     3.9114    -0.0000
  8 C      6.1993     6.0000    -0.1993     3.8832     3.8832    -0.0000
  9 C      5.5874     6.0000     0.4126     3.8344     3.8344    -0.0000
 10 F      9.3153     9.0000    -0.3153     1.0492     1.0492    -0.0000
 11 C      6.2793     6.0000    -0.2793     3.8605     3.8605    -0.0000
 12 N      7.4019     7.0000    -0.4019     2.9630     2.9630     0.0000
 13 C      5.4853     6.0000     0.5147     3.8893     3.8893     0.0000
 14 O      8.6396     8.0000    -0.6396     1.8675     1.8675     0.0000
 15 N      7.4441     7.0000    -0.4441     3.0334     3.0334     0.0000
 16 C      6.1200     6.0000    -0.1200     3.8076     3.8076     0.0000
 17 C      6.0401     6.0000    -0.0401     3.8073     3.8073     0.0000
 18 O      8.4559     8.0000    -0.4559     1.9688     1.9688     0.0000
 19 C      6.0327     6.0000    -0.0327     3.8076     3.8076     0.0000
 20 C      6.1475     6.0000    -0.1475     3.8028     3.8028     0.0000
 21 H      0.8278     1.0000     0.1722     0.9394     0.9394    -0.0000
 22 H      0.8509     1.0000     0.1491     0.9350     0.9350    -0.0000
 23 H      0.8491     1.0000     0.1509     0.9349     0.9349    -0.0000
 24 H      0.8410     1.0000     0.1590     0.9352     0.9352     0.0000
 25 H      0.5570     1.0000     0.4430     0.7943     0.7943    -0.0000
 26 H      0.8367     1.0000     0.1633     0.9372     0.9372     0.0000
 27 H      0.8480     1.0000     0.1520     0.9299     0.9299     0.0000
 28 H      0.8485     1.0000     0.1515     0.9344     0.9344    -0.0000
 29 H      0.8725     1.0000     0.1275     0.9375     0.9375    -0.0000
 30 H      0.8692     1.0000     0.1308     0.9381     0.9381     0.0000
 31 H      0.8522     1.0000     0.1478     0.9350     0.9350     0.0000
 32 H      0.8473     1.0000     0.1527     0.9269     0.9269     0.0000
 33 H      0.8391     1.0000     0.1609     0.9372     0.9372     0.0000

  Mayer bond orders larger than 0.100000
B(  0-O ,  1-C ) :   1.7992 B(  1-C ,  2-C ) :   0.9944 B(  1-C , 15-N ) :   1.0447 
B(  2-C ,  3-S ) :   1.0627 B(  2-C ,  4-C ) :   0.1162 B(  2-C , 13-C ) :   1.3705 
B(  3-S ,  4-C ) :   1.1567 B(  4-C ,  5-C ) :   1.0244 B(  4-C , 12-N ) :   1.4316 
B(  5-C ,  6-C ) :   1.4093 B(  5-C , 11-C ) :   1.3565 B(  6-C ,  7-C ) :   1.4330 
B(  6-C , 21-H ) :   0.9094 B(  7-C ,  8-C ) :   1.4231 B(  7-C , 22-H ) :   0.9281 
B(  8-C ,  9-C ) :   1.3870 B(  8-C , 23-H ) :   0.9198 B(  9-C , 10-F ) :   0.9151 
B(  9-C , 11-C ) :   1.3930 B( 11-C , 24-H ) :   0.9070 B( 12-N , 13-C ) :   1.3189 
B( 13-C , 14-O ) :   1.0377 B( 14-O , 25-H ) :   0.7251 B( 15-N , 16-C ) :   0.9421 
B( 15-N , 20-C ) :   0.9505 B( 16-C , 17-C ) :   0.9744 B( 16-C , 26-H ) :   0.9268 
B( 16-C , 27-H ) :   0.9211 B( 17-C , 18-O ) :   0.9486 B( 17-C , 28-H ) :   0.9367 
B( 17-C , 29-H ) :   0.9170 B( 18-O , 19-C ) :   0.9541 B( 19-C , 20-C ) :   0.9776 
B( 19-C , 30-H ) :   0.9169 B( 19-C , 31-H ) :   0.9365 B( 20-C , 32-H ) :   0.9204 
B( 20-C , 33-H ) :   0.9174 

-------
TIMINGS
-------

Total SCF time: 0 days 0 hours 2 min 2 sec 

Total time                  ....     122.112 sec
Sum of individual times     ....     121.762 sec  ( 99.7%)

SCF preparation             ....       0.220 sec  (  0.2%)
Fock matrix formation       ....     120.253 sec  ( 98.5%)
  Startup                   ....       0.064 sec  (  0.1% of F)
  Split-RI-J                ....      13.184 sec  ( 11.0% of F)
  Chain of spheres X        ....      93.669 sec  ( 77.9% of F)
  XC integration            ....      12.713 sec  ( 10.6% of F)
    XC Preparation          ....       0.000 sec  (  0.0% of XC)
    Basis function eval.    ....       4.706 sec  ( 37.0% of XC)
    Density eval.           ....       2.658 sec  ( 20.9% of XC)
    XC-Functional eval.     ....       0.605 sec  (  4.8% of XC)
    XC-Potential eval.      ....       3.715 sec  ( 29.2% of XC)
Diagonalization             ....       0.000 sec  (  0.0%)
Density matrix formation    ....       0.264 sec  (  0.2%)
Total Energy calculation    ....       0.051 sec  (  0.0%)
Population analysis         ....       0.040 sec  (  0.0%)
Orbital Transformation      ....       0.075 sec  (  0.1%)
Orbital Orthonormalization  ....       0.000 sec  (  0.0%)
DIIS solution               ....       0.749 sec  (  0.6%)
SOSCF solution              ....       0.111 sec  (  0.1%)
Finished LeanSCF after 122.2 sec

Maximum memory used throughout the entire LEANSCF-calculation: 47.2 MB

-------------------------   --------------------
FINAL SINGLE POINT ENERGY     -1373.863686251687
-------------------------   --------------------


------------------------------------------------------------------------------
                              ORCA PROPERTY CALCULATIONS
------------------------------------------------------------------------------

GBWName                                 ... /home/nmrbox/aojoawo/Documents/ERDOS/inputs/CHEMBL5284452.gbw
Number of atoms                         ...     34
Number of basis functions               ...    324
Max core memory                         ...   1024 MB

Electric properties:
Dipole moment                           ... YES
Quadrupole moment                       ...  NO
Static polarizability (Dipole/Dipole)   ...  NO
Static polarizability (Dipole/Quad.)    ...  NO
Static polarizability (Quad./Quad.)     ...  NO
Static polarizability (Velocity)        ...  NO

Atomic electric properties:
Dipole moment                           ...  NO
Quadrupole moment                       ...  NO
Static polarizability                   ...  NO

Choice of electric origin               ... Center of mass
Position of electric origin             ...     0.722723     0.110409    -0.095893

General magnetic properties:
Magnetizability                         ...  NO

EPR properties:
g-Tensor (aka g-matrix)                 ...  NO
Zero-Field splitting spin-orbit         ...  NO
Zero-field splitting spin-spin          ...  NO
Hyperfine couplings                     ...  NO (   0 nuclei)
Quadrupole couplings                    ...  NO (   0 nuclei)
Contact density                         ...  NO (   0 nuclei)

NMR properties:
Chemical shifts                         ...  NO (   0 nuclei)
Spin-rotation constants                 ...  NO (   0 nuclei)
Spin-spin couplings                     ...  NO (   0 nuclei,    0 pairs)

Choice of magnetic origin               ... GIAO
Position of magnetic origin             ...     0.000000     0.000000     0.000000

Properties with geometric perturbations:
SCF Hessian                             ...  NO
IR spectrum                             ...  NO
VCD spectrum                            ...  NO
X-ray spectroscopy properties:
SCF XES/XAS/RIXS spectra                ...  NO


-------------
DIPOLE MOMENT
-------------

Method             : SCF
Type of density    : Electron Density
Multiplicity       :   1
Irrep              :   0
Energy             : -1373.8636862516866586 Eh
Relativity type    : 
Basis              : AO
                                X                 Y                 Z
Electronic contribution:     17.661931549       2.654862008       0.553297081
Nuclear contribution   :    -17.526406891      -2.753959597       0.335173370
                        -----------------------------------------
Total Dipole Moment    :      0.135524658      -0.099097589       0.888470451
                        -----------------------------------------
Magnitude (a.u.)       :      0.904194120
Magnitude (Debye)      :      2.298278807



--------------------
Rotational spectrum 
--------------------
 
Rotational constants in cm-1:             0.016258             0.004772             0.003846 
Rotational constants in MHz :           487.411300           143.059584           115.307378 

Dipole components along the rotational axes: 
x,y,z [a.u.] :     0.306987     0.786532    -0.323563 
x,y,z [Debye]:     0.780300     1.999206    -0.822432 

 

Dipole moment calculation done in   0.0 sec 

Maximum memory used throughout the entire PROP-calculation: 22.4 MB

--------------------------------
SUGGESTED CITATIONS FOR THIS RUN
--------------------------------

Below you find a list of papers that are relevant to this ORCA run
We neither can nor want to force you to cite these papers, but we appreciate if you do
You receive ORCA, which is the product of decades of hard work by many enthusiastic individuals, for free
The only thing we kindly ask in return is that you cite our papers,
We deeply appreciate it, if you show your appreciation for ORCA by not just citing the generic ORCA reference.

Please note that relegating all ORCA citations to the supporting information does *not* help us.
SI sections are not indexed - citations you put there will not count into any citation statistics
But we need these citations in order to attract the funding resources that allow us to do what we are doing

Therefore, if you are a happy ORCA user, please consider citing a few of the papers listed below in the main body of your paper

In addition to the list printed below, the program has created the file /home/nmrbox/aojoawo/Documents/ERDOS/inputs/CHEMBL5284452.bibtex that contains the list in bibtex format
You can import this file easily into all common literature databanks and citation aid programs


List of essential papers. We consider these as the minimum necessary citations

  1. Neese,F.
     Software update: the ORCA program system, version 5.0
     WIRES Comput. Molec. Sci., 2022 12(1)e1606
     doi.org/10.1002/wcms.1606

List of papers to cite with high priority. The work reported in these papers was absolutely
necessary for this run to complete.
Our perspective: the developers of density functionals and basis sets usually get cited in chemistry papers
Good! But without the algorithms to do something with them, the functionals or basis sets would not do anything.
Hence, in our opinion, the algorithm design and method developments papers are equally worthy of getting cited

  1. Neese,F.
     An improvement of the resolution of the identity approximation for the formation of the Coulomb matrix
     J. Comp. Chem., 2003 24(14)1740-1747
     doi.org/10.1002/jcc.10318
  2. Neese,F.; Wennmohs,F.; Hansen,A.; Becker,U.
     Efficient, approximate and parallel Hartree-Fock and hybrid DFT calculations. A 'chain-of-spheres' algorithm for the Hartree-Fock exchange
     Chem. Phys., 2009 356(1-3)98-109
     doi.org/10.1016/j.chemphys.2008.10.036
  3. Helmich-Paris,B.; de Souza,B.; Neese,F.; Izsák,R.
     An improved chain of spheres for exchange algorithm
     J. Chem. Phys., 2021 155 104109
     doi.org/doi: 10.1063/5.0058766.
  4. Neese,F.
     The SHARK Integral Generation and Digestion System
     J. Comp. Chem., 2022  1-16
     doi.org/10.1002/jcc.26942

List of suggested additional citations. These are papers that are important in the 'surrounding' of 
of this run, or papers that preceded the highly important papers. If you like your results we are grateful for a citation.

  1. Izsak,R.; Neese,F.
     An overlap fitted chain of spheres exchange method
     J. Chem. Phys., 2011 135 144105
     doi.org/10.1063/1.3646921
  2. Izsak,R.; Hansen,A.; Neese,F.
     The resolution of identity and chain of spheres approximations for the LPNO-CCSD singles Fock term
     Molec. Phys., 2012 110 2413-2417
     doi.org/10.1080/00268976.2012.687466
  3. Neese,F.
     The ORCA program system
     WIRES Comput. Molec. Sci., 2012 2(1)73-78
     doi.org/10.1002/wcms.81
  4. Izsak,R.; Neese,F.; Klopper,W.
     Robust fitting techniques in the chain of spheres approximation to the Fock exchange: The role of the complementary space
     J. Chem. Phys., 2013 139 
     doi.org/10.1063/1.4819264
  5. Neese,F.
     Software update: the ORCA program system, version 4.0
     WIRES Comput. Molec. Sci., 2018 8(1)1-6
     doi.org/10.1002/wcms.1327
  6. Neese,F.; Wennmohs,F.; Becker,U.; Riplinger,C.
     The ORCA quantum chemistry program package
     J. Chem. Phys., 2020 152 Art. No. L224108
     doi.org/10.1063/5.0004608

List of optional additional citations

  1. Neese,F.
     Approximate second-order SCF convergence for spin unrestricted wavefunctions
     Chem. Phys. Lett., 2000 325(1-3)93-98
     doi.org/10.1016/s0009-2614(00)00662-x

Timings for individual modules:

Sum of individual times          ...      129.613 sec (=   2.160 min)
Startup calculation              ...        5.049 sec (=   0.084 min)   3.9 %
SCF iterations                   ...      124.437 sec (=   2.074 min)  96.0 %
Property calculations            ...        0.127 sec (=   0.002 min)   0.1 %
                             ****ORCA TERMINATED NORMALLY****
TOTAL RUN TIME: 0 days 0 hours 2 minutes 10 seconds 352 msec
