
                                 *****************
                                 * O   R   C   A *
                                 *****************

                                            #,                                       
                                            ###                                      
                                            ####                                     
                                            #####                                    
                                            ######                                   
                                           ########,                                 
                                     ,,################,,,,,                         
                               ,,#################################,,                 
                          ,,##########################################,,             
                       ,#########################################, ''#####,          
                    ,#############################################,,   '####,        
                  ,##################################################,,,,####,       
                ,###########''''           ''''###############################       
              ,#####''   ,,,,##########,,,,          '''####'''          '####       
            ,##' ,,,,###########################,,,                        '##       
           ' ,,###''''                  '''############,,,                           
         ,,##''                                '''############,,,,        ,,,,,,###''
      ,#''                                            '''#######################'''  
     '                                                          ''''####''''         
             ,#######,   #######,   ,#######,      ##                                
            ,#'     '#,  ##    ##  ,#'     '#,    #''#        ,####,   ,####,        
            ##       ##  ##   ,#'  ##            #'  '#       #'       #'  '#        
            ##       ##  #######   ##           ,######,      #####,   #    #        
            '#,     ,#'  ##    ##  '#,     ,#' ,#      #,     #,   #   #,  ,#        
             '#######'   ##     ##  '#######'  #'      '#     '####' # '####'        



                #########################################################
                #                        -***-                          #
                #          Department of theory and spectroscopy        #
                #                                                       #
                #                      Frank Neese                      #
                #                                                       #
                #     Directorship, Architecture, Infrastructure        #
                #                    SHARK, DRIVERS                     #
                #        Core code/Algorithms in most modules           #
                #                                                       #
                #        Max Planck Institute fuer Kohlenforschung      #
                #                Kaiser Wilhelm Platz 1                 #
                #                 D-45470 Muelheim/Ruhr                 #
                #                      Germany                          #
                #                                                       #
                #                  All rights reserved                  #
                #                        -***-                          #
                #########################################################


                         Program Version 6.0.0  -   RELEASE  -


 With contributions from (in alphabetic order):
   Daniel Aravena         : Magnetic Suceptibility
   Michael Atanasov       : Ab Initio Ligand Field Theory (pilot matlab implementation)
   Alexander A. Auer      : GIAO ZORA, VPT2 properties, NMR spectrum
   Ute Becker             : All parallelization in ORCA, NUMFREQ, NUMCALC
   Giovanni Bistoni       : ED, misc. LED, open-shell LED, HFLD
   Martin Brehm           : Molecular dynamics
   Dmytro Bykov           : pre 5.0 version of the SCF Hessian
   Marcos Casanova-Páez   : Triplet and SCS-CIS(D). UHF-(DLPNO)-IP/EA/STEOM-CCSD. UHF-CVS-IP/STEOM-CCSD
   Vijay G. Chilkuri      : MRCI spin determinant printing, contributions to CSF-ICE
   Pauline Colinet        : FMM embedding
   Dipayan Datta          : RHF DLPNO-CCSD density
   Achintya Kumar Dutta   : EOM-CC, STEOM-CC
   Nicolas Foglia         : Exact transition moments, OPA infrastructure, MCD improvements
   Dmitry Ganyushin       : Spin-Orbit,Spin-Spin,Magnetic field MRCI
   Miquel Garcia          : C-PCM and meta-GGA Hessian, CCSD/C-PCM, Gaussian charge scheme
   Tiago L. C. Gouveia    : GS-ROHF, GS-ROCIS
   Yang Guo               : DLPNO-NEVPT2, F12-NEVPT2, CIM, IAO-localization
   Andreas Hansen         : Spin unrestricted coupled pair/coupled cluster methods
   Ingolf Harden          : AUTO-CI MPn and infrastructure 
   Benjamin Helmich-Paris : MC-RPA, TRAH-(SCF,CASSCF), AVAS, COSX integrals, SCF dyn. polar.
   Lee Huntington         : MR-EOM, pCC
   Robert Izsak           : Overlap fitted RIJCOSX, COSX-SCS-MP3, EOM
   Riya Kayal             : Wick's Theorem for AUTO-CI, AUTO-CI UHF-CCSDT
   Emily Kempfer          : AUTO-CI, RHF CISDT and CCSDT
   Christian Kollmar      : KDIIS, OOCD, Brueckner-CCSD(T), CCSD density, CASPT2, CASPT2-K, improved NEVPT2
   Axel Koslowski         : Symmetry handling
   Simone Kossmann        : Meta GGA functionals, TD-DFT gradient, OOMP2, (MP2 Hessian; deprecated post 5.0)
   Lucas Lang             : DCDCAS
   Marvin Lechner         : AUTO-CI (C++ implementation), FIC-MRCC
   Spencer Leger          : CASSCF response
   Dagmar Lenk            : GEPOL surface, SMD, ORCA-2-JSON
   Dimitrios Liakos       : Extrapolation schemes; Compound Job, initial MDCI parallelization
   Dimitrios Manganas     : Further ROCIS development; embedding schemes. LFT, Crystal Embedding
   Dimitrios Pantazis     : SARC Basis sets
   Anastasios Papadopoulos: AUTO-CI, single reference methods and gradients
   Taras Petrenko         : pre 6.0 DFT Hessian and TD-DFT gradient, (ASA, deprecated), ECA, 1-Electron XAS/XES, NRVS
   Peter Pinski           : DLPNO-MP2, DLPNO-MP2 Gradient
   Christoph Reimann      : Effective Core Potentials
   Marius Retegan         : Local ZFS, SOC
   Christoph Riplinger    : Optimizer, TS searches, QM/MM, DLPNO-CCSD(T), (RO)-DLPNO pert. Triples
   Michael Roemelt        : Original ROCIS implementation
   Masaaki Saitow         : Open-shell DLPNO-CCSD energy and density
   Barbara Sandhoefer     : DKH picture change effects
   Kantharuban Sivalingam : CASSCF convergence/infrastructure, NEVPT2 and variants, FIC-MRCI
   Bernardo de Souza      : ESD, SOC TD-DFT
   Georgi Stoychev        : AutoAux, RI-MP2 NMR, DLPNO-MP2 response, X2C
   Van Anh Tran           : RI-MP2 g-tensors
   Willem Van den Heuvel  : Paramagnetic NMR
   Zikuan Wang            : NOTCH, Electric field optimization 
   Frank Wennmohs         : Technical directorship and infrastructure
   Hang Xu                : AUTO-CI-Response properties 


 We gratefully acknowledge several colleagues who have allowed us to
 interface, adapt or use parts of their codes:
   Stefan Grimme, W. Hujo, H. Kruse, P. Pracht,  : VdW corrections, initial TS optimization,
                  C. Bannwarth, S. Ehlert,         DFT functionals, gCP, sTDA/sTD-DF
                  L. Wittmann, M. Mueller
   Ed Valeev, F. Pavosevic, A. Kumar             : LibInt (2-el integral package), F12 methods
   Garnet Chan, S. Sharma, J. Yang, R. Olivares  : DMRG
   Ulf Ekstrom                                   : XCFun DFT Library
   Mihaly Kallay                                 : mrcc  (arbitrary order and MRCC methods)
   Frank Weinhold                                : gennbo (NPA and NBO analysis)
   Simon Mueller                                 : openCOSMO-RS
   Christopher J. Cramer and Donald G. Truhlar   : smd solvation model
   Lars Goerigk                                  : TD-DFT with DH, B97 family of functionals
   V. Asgeirsson, H. Jonsson                     : NEB implementation
   FAccTs GmbH                                   : IRC, NEB, NEB-TS, DLPNO-Multilevel, CI-OPT
                                                   MM, QMMM, 2- and 3-layer-ONIOM, Crystal-QMMM,
                                                   LR-CPCM, SF, NACMEs, symmetry and pop. for TD-DFT,
                                                   nearIR, NL-DFT gradient (VV10), updates on ESD,
                                                   ML-optimized integration grids, MBIS, APM,
                                                   GOAT, DOCKER, SOLVATOR, interface openCOSMO-RS
   S Lehtola, MJT Oliveira, MAL Marques          : LibXC Library
   Liviu Ungur et al                             : ANISO software


 Your calculation uses the libint2 library for the computation of 2-el integrals
 For citations please refer to: http://libint.valeyev.net

 Your ORCA version has been built with support for libXC version: 6.2.2
 For citations please refer to: https://libxc.gitlab.io

 This ORCA versions uses:
   CBLAS   interface :  Fast vector & matrix operations
   LAPACKE interface :  Fast linear algebra routines
   SCALAPACK package :  Parallel linear algebra routines
   Shared memory     :  Shared parallel matrices
   BLAS/LAPACK       :  OpenBLAS 0.3.27  USE64BITINT DYNAMIC_ARCH NO_AFFINITY SkylakeX SINGLE_THREADED
        Core in use  :  SkylakeX
   Copyright (c) 2011-2014, The OpenBLAS Project


Warning: RI is on but no J-basis has been assigned. Assigning Def2/J (nothing to worry about!)
================================================================================

----- Orbital basis set information -----
Your calculation utilizes the basis: 6-31G*
   H-He, Li-Ne : W. J. Hehre, R. Ditchfield and J.A. Pople, J. Chem. Phys. 56, 2257 (1972).
                 Note: He and Ne are unpublished basis sets taken from the Gaussian program.
                 Note: Li and B from J. D. Dill and J. A. Pople, J. Chem. Phys. 62, 2921 (1975).
   Na - Ar     : M. M. Francl, W. J. Pietro, W. J. Hehre, J. S. Binkley, M. S. Gordon, 
                 D. J. DeFrees and J. A. Pople, J. Chem. Phys. 77, 3654 (1982).
   K - Zn      : V. A. Rassolov, J. A. Pople, M. A. Ratner, and T. L. Windus, J. Chem. Phys. 109, 1223 (1998).

----- AuxJ basis set information -----
Your calculation utilizes the auxiliary basis: def2/J
   F. Weigend, Phys. Chem. Chem. Phys. 8, 1057 (2006).

================================================================================
                                        WARNINGS
                       Please study these warnings very carefully!
================================================================================


================================================================================
                                       INPUT FILE
================================================================================
NAME = /home/nmrbox/aojoawo/Documents/ERDOS/inputs/CHEMBL2442013.inp
|  1> ! B3LYP 6-31G* SP
|  2> 
|  3> * xyz 0 1
|  4> C -0.8692 -2.1951 -1.9466
|  5> C -0.6116 -0.9194 -1.1463
|  6> N -1.1852 -1.0156 0.2097
|  7> C -0.7280 -2.0532 1.1021
|  8> O -1.5630 -2.6780 1.8112
|  9> C 0.6999 -2.4292 1.1785
| 10> C 1.0522 -3.7879 1.1330
| 11> C 2.3925 -4.1726 1.1842
| 12> C 3.3920 -3.2068 1.2943
| 13> C 3.0553 -1.8533 1.3647
| 14> C 1.7060 -1.4483 1.3166
| 15> O 1.3274 -0.0982 1.4322
| 16> C 2.2173 1.0166 1.5095
| 17> C 2.8026 1.3228 0.1575
| 18> C 1.9601 1.7036 -0.8991
| 19> C 2.4914 1.9780 -2.1624
| 20> C 3.8700 1.8847 -2.3781
| 21> Cl 4.5358 2.2289 -3.9639
| 22> C 4.7175 1.5215 -1.3264
| 23> C 4.1880 1.2450 -0.0620
| 24> C -2.2649 -0.1102 0.6571
| 25> C -3.5633 -0.3211 -0.1620
| 26> C -4.4713 0.9260 -0.1929
| 27> C -4.3305 1.7703 1.0795
| 28> C -2.8815 2.2838 1.2820
| 29> N -2.7568 3.6561 0.7843
| 30> C -1.8150 1.3624 0.6321
| 31> H -1.9547 -2.4244 -1.9730
| 32> H -0.3284 -3.0537 -1.4971
| 33> H -0.5070 -2.0601 -2.9874
| 34> H 0.4814 -0.7434 -1.0872
| 35> H -1.0506 -0.0688 -1.7067
| 36> H 0.2881 -4.5498 1.0377
| 37> H 2.6566 -5.2211 1.1367
| 38> H 4.4309 -3.5079 1.3353
| 39> H 3.8538 -1.1363 1.4730
| 40> H 1.6384 1.9019 1.8466
| 41> H 2.9992 0.8386 2.2786
| 42> H 0.8924 1.7857 -0.7446
| 43> H 1.8313 2.2638 -2.9714
| 44> H 5.7860 1.4541 -1.4869
| 45> H 4.8592 0.9720 0.7424
| 46> H -2.5091 -0.3354 1.7211
| 47> H -4.1247 -1.1727 0.2809
| 48> H -3.3341 -0.5974 -1.2114
| 49> H -5.5299 0.6097 -0.3139
| 50> H -4.2081 1.5542 -1.0723
| 51> H -4.6248 1.1442 1.9510
| 52> H -5.0431 2.6230 1.0397
| 53> H -2.6925 2.3037 2.3790
| 54> H -2.8979 3.6633 -0.2524
| 55> H -1.7844 3.9938 0.9713
| 56> H -1.6377 1.6802 -0.4169
| 57> H -0.8579 1.4720 1.1843
| 58> *
| 59> 
| 60>                          ****END OF INPUT****
================================================================================

                       ****************************
                       * Single Point Calculation *
                       ****************************

---------------------------------
CARTESIAN COORDINATES (ANGSTROEM)
---------------------------------
  C     -0.869200   -2.195100   -1.946600
  C     -0.611600   -0.919400   -1.146300
  N     -1.185200   -1.015600    0.209700
  C     -0.728000   -2.053200    1.102100
  O     -1.563000   -2.678000    1.811200
  C      0.699900   -2.429200    1.178500
  C      1.052200   -3.787900    1.133000
  C      2.392500   -4.172600    1.184200
  C      3.392000   -3.206800    1.294300
  C      3.055300   -1.853300    1.364700
  C      1.706000   -1.448300    1.316600
  O      1.327400   -0.098200    1.432200
  C      2.217300    1.016600    1.509500
  C      2.802600    1.322800    0.157500
  C      1.960100    1.703600   -0.899100
  C      2.491400    1.978000   -2.162400
  C      3.870000    1.884700   -2.378100
  Cl     4.535800    2.228900   -3.963900
  C      4.717500    1.521500   -1.326400
  C      4.188000    1.245000   -0.062000
  C     -2.264900   -0.110200    0.657100
  C     -3.563300   -0.321100   -0.162000
  C     -4.471300    0.926000   -0.192900
  C     -4.330500    1.770300    1.079500
  C     -2.881500    2.283800    1.282000
  N     -2.756800    3.656100    0.784300
  C     -1.815000    1.362400    0.632100
  H     -1.954700   -2.424400   -1.973000
  H     -0.328400   -3.053700   -1.497100
  H     -0.507000   -2.060100   -2.987400
  H      0.481400   -0.743400   -1.087200
  H     -1.050600   -0.068800   -1.706700
  H      0.288100   -4.549800    1.037700
  H      2.656600   -5.221100    1.136700
  H      4.430900   -3.507900    1.335300
  H      3.853800   -1.136300    1.473000
  H      1.638400    1.901900    1.846600
  H      2.999200    0.838600    2.278600
  H      0.892400    1.785700   -0.744600
  H      1.831300    2.263800   -2.971400
  H      5.786000    1.454100   -1.486900
  H      4.859200    0.972000    0.742400
  H     -2.509100   -0.335400    1.721100
  H     -4.124700   -1.172700    0.280900
  H     -3.334100   -0.597400   -1.211400
  H     -5.529900    0.609700   -0.313900
  H     -4.208100    1.554200   -1.072300
  H     -4.624800    1.144200    1.951000
  H     -5.043100    2.623000    1.039700
  H     -2.692500    2.303700    2.379000
  H     -2.897900    3.663300   -0.252400
  H     -1.784400    3.993800    0.971300
  H     -1.637700    1.680200   -0.416900
  H     -0.857900    1.472000    1.184300

----------------------------
CARTESIAN COORDINATES (A.U.)
----------------------------
  NO LB      ZA    FRAG     MASS         X           Y           Z
   0 C     6.0000    0    12.011   -1.642550   -4.148138   -3.678541
   1 C     6.0000    0    12.011   -1.155757   -1.737414   -2.166193
   2 N     7.0000    0    14.007   -2.239703   -1.919206    0.396276
   3 C     6.0000    0    12.011   -1.375721   -3.879986    2.082667
   4 O     8.0000    0    15.999   -2.953642   -5.060687    3.422672
   5 C     6.0000    0    12.011    1.322619   -4.590523    2.227042
   6 C     6.0000    0    12.011    1.988370   -7.158094    2.141060
   7 C     6.0000    0    12.011    4.521170   -7.885071    2.237814
   8 C     6.0000    0    12.011    6.409951   -6.059974    2.445873
   9 C     6.0000    0    12.011    5.773680   -3.502229    2.578909
  10 C     6.0000    0    12.011    3.223873   -2.736890    2.488013
  11 O     8.0000    0    15.999    2.508422   -0.185571    2.706466
  12 C     6.0000    0    12.011    4.190090    1.921096    2.852542
  13 C     6.0000    0    12.011    5.296146    2.499730    0.297632
  14 C     6.0000    0    12.011    3.704052    3.219337   -1.699053
  15 C     6.0000    0    12.011    4.708064    3.737878   -4.086344
  16 C     6.0000    0    12.011    7.313240    3.561567   -4.493958
  17 Cl   17.0000    0    35.453    8.571420    4.212011   -7.490685
  18 C     6.0000    0    12.011    8.914783    2.875218   -2.506533
  19 C     6.0000    0    12.011    7.914173    2.352709   -0.117163
  20 C     6.0000    0    12.011   -4.280041   -0.208248    1.241739
  21 C     6.0000    0    12.011   -6.733661   -0.606791   -0.306136
  22 C     6.0000    0    12.011   -8.449532    1.749886   -0.364528
  23 C     6.0000    0    12.011   -8.183459    3.345382    2.039959
  24 C     6.0000    0    12.011   -5.445246    4.315757    2.422629
  25 N     7.0000    0    14.007   -5.209597    6.909028    1.482112
  26 C     6.0000    0    12.011   -3.429853    2.574563    1.194496
  27 H     1.0000    0     1.008   -3.693848   -4.581452   -3.728430
  28 H     1.0000    0     1.008   -0.620586   -5.770657   -2.829109
  29 H     1.0000    0     1.008   -0.958091   -3.893025   -5.645368
  30 H     1.0000    0     1.008    0.909714   -1.404822   -2.054510
  31 H     1.0000    0     1.008   -1.985346   -0.130013   -3.225196
  32 H     1.0000    0     1.008    0.544430   -8.597876    1.960969
  33 H     1.0000    0     1.008    5.020246   -9.866449    2.148052
  34 H     1.0000    0     1.008    8.373188   -6.628970    2.523351
  35 H     1.0000    0     1.008    7.282627   -2.147296    2.783567
  36 H     1.0000    0     1.008    3.096127    3.594070    3.489568
  37 H     1.0000    0     1.008    5.667667    1.584724    4.305930
  38 H     1.0000    0     1.008    1.686392    3.374484   -1.407090
  39 H     1.0000    0     1.008    3.460655    4.277962   -5.615132
  40 H     1.0000    0     1.008   10.933955    2.747851   -2.809834
  41 H     1.0000    0     1.008    9.182557    1.836814    1.402933
  42 H     1.0000    0     1.008   -4.741512   -0.633814    3.252408
  43 H     1.0000    0     1.008   -7.794553   -2.216082    0.530824
  44 H     1.0000    0     1.008   -6.300536   -1.128922   -2.289214
  45 H     1.0000    0     1.008  -10.449997    1.152166   -0.593185
  46 H     1.0000    0     1.008   -7.952157    2.937012   -2.026353
  47 H     1.0000    0     1.008   -8.739605    2.162225    3.686856
  48 H     1.0000    0     1.008   -9.530078    4.956752    1.964748
  49 H     1.0000    0     1.008   -5.088088    4.353362    4.495658
  50 H     1.0000    0     1.008   -5.476237    6.922634   -0.476967
  51 H     1.0000    0     1.008   -3.372027    7.547188    1.835491
  52 H     1.0000    0     1.008   -3.094804    3.175118   -0.787827
  53 H     1.0000    0     1.008   -1.621196    2.781677    2.238003

--------------------------------
INTERNAL COORDINATES (ANGSTROEM)
--------------------------------
 C      0   0   0     0.000000000000     0.00000000     0.00000000
 C      1   0   0     1.527824708532     0.00000000     0.00000000
 N      2   1   0     1.475468535754   111.18719516     0.00000000
 C      3   2   1     1.442921813544   119.47832254    60.40309445
 O      4   3   2     1.261119681077   119.61835187   221.90458922
 C      4   3   2     1.478550428629   121.38785165    40.19345408
 C      6   4   3     1.404368623261   119.11904045   227.72057701
 C      7   6   4     1.395356449084   120.43149206   179.10314638
 C      8   7   6     1.394235238401   120.03388186     0.62462030
 C      9   8   7     1.396526154427   120.16618320     0.52526814
 C     10   9   8     1.409591820351   120.49949804   359.58265991
 O     11  10   9     1.406936860701   122.03869773   177.71412791
 C     12  11  10     1.428522432445   125.85060806     4.85290896
 C     13  12  11     1.504738691601   110.63982439    75.51939969
 C     14  13  12     1.404000872507   119.86486061    62.20709581
 C     15  14  13     1.397677337585   120.35477260   180.61109994
 C     16  15  14     1.398488233772   120.06855855   359.48802495
 Cl    17  16  15     1.754002542758   120.03612450   179.98646003
 C     17  16  15     1.398657706517   119.91193484   359.74545175
 C     19  17  16     1.398402610123   120.11845223     0.32850252
 C      3   2   1     1.478400490395   121.47373439   243.24105960
 C     21   3   2     1.549595489152   111.63022063    64.31446057
 C     22  21   3     1.542944334706   113.18312454   205.13572496
 C     23  22  21     1.533515206967   111.98421582   329.94782902
 C     24  23  22     1.550577150612   112.11637312    60.28528124
 N     25  24  23     1.465081113795   110.20432216    97.37633001
 C     21   3   2     1.539995379863   111.55209543   298.83978492
 H      1   2   3     1.109768309153   110.48135311    55.21370964
 H      1   2   3     1.109823792320   110.58854584   294.38159770
 H      1   2   3     1.110260545998   109.54296729   175.03077063
 H      2   1   3     1.108655857334   109.06870380   121.67211609
 H      2   1   3     1.109184168657   107.99515305   237.83319908
 H      7   6   4     1.083246283169   120.42269512     0.33373750
 H      8   7   6     1.082292617549   119.99155349   180.73091586
 H      9   8   7     1.082430330322   119.89094642   179.90988360
 H     10   9   8     1.078619552947   118.08853327   178.56928111
 H     13  12  11     1.110188141713   108.29457856   194.02404770
 H     13  12  11     1.111110444555   110.53717480   310.37417370
 H     15  14  13     1.081939901288   120.35052649     0.47964468
 H     16  15  14     1.082540830639   119.70313566   179.55940011
 H     19  17  16     1.082587299020   120.18154040   180.39139801
 H     20  19  17     1.082634656752   119.13792988   180.41835598
 H     21   3   2     1.114650025793   108.97414280   182.36295870
 H     22  21   3     1.112004015281   108.46421412    83.71577895
 H     22  21   3     1.109105355681   111.15461531   326.49067216
 H     23  22  21     1.111449796437   109.43064714   208.28758562
 H     23  22  21     1.112319126870   109.45471766    90.77054427
 H     24  23  22     1.112711081099   108.40821846   299.48430299
 H     24  23  22     1.111971263118   109.49084890   183.25033608
 H     25  24  23     1.113340024431   107.05189776   214.19592609
 H     26  25  24     1.046282915850   109.36373378   294.53527964
 H     26  25  24     1.046217974420   108.70711770   177.47160593
 H     27  21   3     1.110330189628   109.61404272    66.41429237
 H     27  21   3     1.110395159391   109.76254992   308.32194908

---------------------------
INTERNAL COORDINATES (A.U.)
---------------------------
 C      0   0   0     0.000000000000     0.00000000     0.00000000
 C      1   0   0     2.887170279763     0.00000000     0.00000000
 N      2   1   0     2.788231451793   111.18719516     0.00000000
 C      3   2   1     2.726727060258   119.47832254    60.40309445
 O      4   3   2     2.383170819334   119.61835187   221.90458922
 C      4   3   2     2.794055385301   121.38785165    40.19345408
 C      6   4   3     2.653872089035   119.11904045   227.72057701
 C      7   6   4     2.636841547969   120.43149206   179.10314638
 C      8   7   6     2.634722766841   120.03388186     0.62462030
 C      9   8   7     2.639051970726   120.16618320     0.52526814
 C     10   9   8     2.663742501079   120.49949804   359.58265991
 O     11  10   9     2.658725354444   122.03869773   177.71412791
 C     12  11  10     2.699516173485   125.85060806     4.85290896
 C     13  12  11     2.843544030240   110.63982439    75.51939969
 C     14  13  12     2.653177140824   119.86486061    62.20709581
 C     15  14  13     2.641227391625   120.35477260   180.61109994
 C     16  15  14     2.642759763341   120.06855855   359.48802495
 Cl    17  16  15     3.314584444013   120.03612450   179.98646003
 C     17  16  15     2.643080020416   119.91193484   359.74545175
 C     19  17  16     2.642597958094   120.11845223     0.32850252
 C      3   2   1     2.793772043101   121.47373439   243.24105960
 C     21   3   2     2.928311092857   111.63022063    64.31446057
 C     22  21   3     2.915742232479   113.18312454   205.13572496
 C     23  22  21     2.897923763372   111.98421582   329.94782902
 C     24  23  22     2.930166164173   112.11637312    60.28528124
 N     25  24  23     2.768602069054   110.20432216    97.37633001
 C     21   3   2     2.910169515445   111.55209543   298.83978492
 H      1   2   3     2.097158176404   110.48135311    55.21370964
 H      1   2   3     2.097263024395   110.58854584   294.38159770
 H      1   2   3     2.098088369234   109.54296729   175.03077063
 H      2   1   3     2.095055947128   109.06870380   121.67211609
 H      2   1   3     2.096054310843   107.99515305   237.83319908
 H      7   6   4     2.047038810778   120.42269512     0.33373750
 H      8   7   6     2.045236643931   119.99155349   180.73091586
 H      9   8   7     2.045496883358   119.89094642   179.90988360
 H     10   9   8     2.038295557763   118.08853327   178.56928111
 H     13  12  11     2.097951544964   108.29457856   194.02404770
 H     13  12  11     2.099694444749   110.53717480   310.37417370
 H     15  14  13     2.044570106797   120.35052649     0.47964468
 H     16  15  14     2.045705698695   119.70313566   179.55940011
 H     19  17  16     2.045793511210   120.18154040   180.39139801
 H     20  19  17     2.045883004353   119.13792988   180.41835598
 H     21   3   2     2.106383283917   108.97414280   182.36295870
 H     22  21   3     2.101383048701   108.46421412    83.71577895
 H     22  21   3     2.095905375902   111.15461531   326.49067216
 H     23  22  21     2.100335726869   109.43064714   208.28758562
 H     23  22  21     2.101978523306   109.45471766    90.77054427
 H     24  23  22     2.102719209456   108.40821846   299.48430299
 H     24  23  22     2.101321156083   109.49084890   183.25033608
 H     25  24  23     2.103907740108   107.05189776   214.19592609
 H     26  25  24     1.977188169557   109.36373378   294.53527964
 H     26  25  24     1.977065448040   108.70711770   177.47160593
 H     27  21   3     2.098219976622   109.61404272    66.41429237
 H     27  21   3     2.098342751682   109.76254992   308.32194908

---------------------
BASIS SET INFORMATION
---------------------
There are 5 groups of distinct atoms

 Group   1 Type C   : 10s4p1d contracted to 3s2p1d pattern {631/31/1}
 Group   2 Type N   : 10s4p1d contracted to 3s2p1d pattern {631/31/1}
 Group   3 Type O   : 10s4p1d contracted to 3s2p1d pattern {631/31/1}
 Group   4 Type Cl  : 16s10p1d contracted to 4s3p1d pattern {6631/631/1}
 Group   5 Type H   : 4s contracted to 2s pattern {31}

Atom   0C    basis set group =>   1
Atom   1C    basis set group =>   1
Atom   2N    basis set group =>   2
Atom   3C    basis set group =>   1
Atom   4O    basis set group =>   3
Atom   5C    basis set group =>   1
Atom   6C    basis set group =>   1
Atom   7C    basis set group =>   1
Atom   8C    basis set group =>   1
Atom   9C    basis set group =>   1
Atom  10C    basis set group =>   1
Atom  11O    basis set group =>   3
Atom  12C    basis set group =>   1
Atom  13C    basis set group =>   1
Atom  14C    basis set group =>   1
Atom  15C    basis set group =>   1
Atom  16C    basis set group =>   1
Atom  17Cl   basis set group =>   4
Atom  18C    basis set group =>   1
Atom  19C    basis set group =>   1
Atom  20C    basis set group =>   1
Atom  21C    basis set group =>   1
Atom  22C    basis set group =>   1
Atom  23C    basis set group =>   1
Atom  24C    basis set group =>   1
Atom  25N    basis set group =>   2
Atom  26C    basis set group =>   1
Atom  27H    basis set group =>   5
Atom  28H    basis set group =>   5
Atom  29H    basis set group =>   5
Atom  30H    basis set group =>   5
Atom  31H    basis set group =>   5
Atom  32H    basis set group =>   5
Atom  33H    basis set group =>   5
Atom  34H    basis set group =>   5
Atom  35H    basis set group =>   5
Atom  36H    basis set group =>   5
Atom  37H    basis set group =>   5
Atom  38H    basis set group =>   5
Atom  39H    basis set group =>   5
Atom  40H    basis set group =>   5
Atom  41H    basis set group =>   5
Atom  42H    basis set group =>   5
Atom  43H    basis set group =>   5
Atom  44H    basis set group =>   5
Atom  45H    basis set group =>   5
Atom  46H    basis set group =>   5
Atom  47H    basis set group =>   5
Atom  48H    basis set group =>   5
Atom  49H    basis set group =>   5
Atom  50H    basis set group =>   5
Atom  51H    basis set group =>   5
Atom  52H    basis set group =>   5
Atom  53H    basis set group =>   5
---------------------------------
AUXILIARY/J BASIS SET INFORMATION
---------------------------------
There are 5 groups of distinct atoms

 Group   1 Type C   : 12s5p4d2f1g contracted to 6s4p3d1f1g pattern {711111/2111/211/2/1}
 Group   2 Type N   : 12s5p4d2f1g contracted to 6s4p3d1f1g pattern {711111/2111/211/2/1}
 Group   3 Type O   : 12s5p4d2f1g contracted to 6s4p3d1f1g pattern {711111/2111/211/2/1}
 Group   4 Type Cl  : 14s5p5d2f1g contracted to 8s4p3d1f1g pattern {71111111/2111/311/2/1}
 Group   5 Type H   : 5s2p1d contracted to 3s1p1d pattern {311/2/1}

Atom   0C    basis set group =>   1
Atom   1C    basis set group =>   1
Atom   2N    basis set group =>   2
Atom   3C    basis set group =>   1
Atom   4O    basis set group =>   3
Atom   5C    basis set group =>   1
Atom   6C    basis set group =>   1
Atom   7C    basis set group =>   1
Atom   8C    basis set group =>   1
Atom   9C    basis set group =>   1
Atom  10C    basis set group =>   1
Atom  11O    basis set group =>   3
Atom  12C    basis set group =>   1
Atom  13C    basis set group =>   1
Atom  14C    basis set group =>   1
Atom  15C    basis set group =>   1
Atom  16C    basis set group =>   1
Atom  17Cl   basis set group =>   4
Atom  18C    basis set group =>   1
Atom  19C    basis set group =>   1
Atom  20C    basis set group =>   1
Atom  21C    basis set group =>   1
Atom  22C    basis set group =>   1
Atom  23C    basis set group =>   1
Atom  24C    basis set group =>   1
Atom  25N    basis set group =>   2
Atom  26C    basis set group =>   1
Atom  27H    basis set group =>   5
Atom  28H    basis set group =>   5
Atom  29H    basis set group =>   5
Atom  30H    basis set group =>   5
Atom  31H    basis set group =>   5
Atom  32H    basis set group =>   5
Atom  33H    basis set group =>   5
Atom  34H    basis set group =>   5
Atom  35H    basis set group =>   5
Atom  36H    basis set group =>   5
Atom  37H    basis set group =>   5
Atom  38H    basis set group =>   5
Atom  39H    basis set group =>   5
Atom  40H    basis set group =>   5
Atom  41H    basis set group =>   5
Atom  42H    basis set group =>   5
Atom  43H    basis set group =>   5
Atom  44H    basis set group =>   5
Atom  45H    basis set group =>   5
Atom  46H    basis set group =>   5
Atom  47H    basis set group =>   5
Atom  48H    basis set group =>   5
Atom  49H    basis set group =>   5
Atom  50H    basis set group =>   5
Atom  51H    basis set group =>   5
Atom  52H    basis set group =>   5
Atom  53H    basis set group =>   5
------------------------------------------------------------------------------
                             ORCA STARTUP CALCULATIONS
                           -- RI-GTO INTEGRALS CHOSEN --
------------------------------------------------------------------------------
------------------------------------------------------------------------------
                   ___                                                        
                  /   \      - P O W E R E D   B Y -                         
                 /     \                                                     
                 |  |  |   _    _      __       _____    __    __             
                 |  |  |  | |  | |    /  \     |  _  \  |  |  /  |          
                  \  \/   | |  | |   /    \    | | | |  |  | /  /          
                 / \  \   | |__| |  /  /\  \   | |_| |  |  |/  /          
                |  |  |   |  __  | /  /__\  \  |    /   |      \           
                |  |  |   | |  | | |   __   |  |    \   |  |\   \          
                \     /   | |  | | |  |  |  |  | |\  \  |  | \   \       
                 \___/    |_|  |_| |__|  |__|  |_| \__\ |__|  \__/        
                                                                              
                      - O R C A' S   B I G   F R I E N D -                    
                                      &                                       
                       - I N T E G R A L  F E E D E R -                       
                                                                              
 v1 FN, 2020, v2 2021, v3 2022-2024                                           
------------------------------------------------------------------------------


----------------------
SHARK INTEGRAL PACKAGE
----------------------

Number of atoms                             ...     54
Number of basis functions                   ...    436
Number of shells                            ...    218
Maximum angular momentum                    ...      2
Integral batch strategy                     ... SHARK/LIBINT Hybrid
RI-J (if used) integral strategy            ... SPLIT-RIJ (Revised 2003 algorithm where possible)
Printlevel                                  ...      1
Contraction scheme used                     ... SEGMENTED contraction
Prescreening option                         ... SCHWARTZ
   Thresh                                   ... 1.000e-10
   Tcut                                     ... 1.000e-11
   Tpresel                                  ... 1.000e-11 
Coulomb Range Separation                    ... NOT USED
Exchange Range Separation                   ... NOT USED
Multipole approximations                    ... NOT USED
Finite Nucleus Model                        ... NOT USED
CABS basis                                  ... NOT available
Auxiliary Coulomb fitting basis             ... AVAILABLE
   # of basis functions in Aux-J            ...   1622
   # of shells in Aux-J                     ...    542
   Maximum angular momentum in Aux-J        ...      4
Auxiliary J/K fitting basis                 ... NOT available
Auxiliary Correlation fitting basis         ... NOT available
Auxiliary 'external' fitting basis          ... NOT available

Checking pre-screening integrals            ... done (  0.0 sec) Dimension = 218
Check shell pair data                       ... done (  0.0 sec)
Shell pair information
Shell pair cut-off parameter TPreSel        ...   1.0e-11
Total number of shell pairs                 ...     23871
Shell pairs after pre-screening             ...     16112
Total number of primitive shell pairs       ...    138753
Primitive shell pairs kept                  ...     48059
          la=0 lb=0:   6014 shell pairs
          la=1 lb=0:   5496 shell pairs
          la=1 lb=1:   1262 shell pairs
          la=2 lb=0:   2117 shell pairs
          la=2 lb=1:   1032 shell pairs
          la=2 lb=2:    191 shell pairs

Calculating one electron integrals          ... done (  0.2 sec)
Calculating RI/J V-Matrix + Cholesky decomp.... done (  0.3 sec)
Calculating Nuclear repulsion               ... done (  0.0 sec) ENN=   2671.272504591009 Eh

Diagonalization of the overlap matrix:
Smallest eigenvalue                        ... 4.419e-04
Time for diagonalization                   ...    0.030 sec
Threshold for overlap eigenvalues          ... 1.000e-07
Number of eigenvalues below threshold      ... 0
Time for construction of square roots      ...    0.031 sec
Total time needed                          ...    0.074 sec

-------------------
DFT GRID GENERATION
-------------------

General Integration Accuracy     IntAcc      ... 4.388
Radial Grid Type                 RadialGrid  ... OptM3 with GC (2021)
Angular Grid (max. ang.)         AngularGrid ... 4 (Lebedev-302)
Angular grid pruning method      GridPruning ... 4 (adaptive)
Weight generation scheme         WeightScheme... mBecke (2022)
Basis function cutoff            BFCut       ... 1.0000e-10
Integration weight cutoff        WCut        ... 1.0000e-14
Partially contracted basis set               ... off
Rotationally invariant grid construction     ... off
Angular grids for H and He will be reduced by one unit

Total number of grid points                  ...   246897
Total number of batches                      ...     3885
Average number of points per batch           ...       63
Average number of grid points per atom       ...     4572

--------------------
COSX GRID GENERATION
--------------------

GRIDX 1
-------
General Integration Accuracy     IntAcc      ... 3.816
Radial Grid Type                 RadialGrid  ... OptM3 with GC (2021)
Angular Grid (max. ang.)         AngularGrid ... 1 (Lebedev-50)
Angular grid pruning method      GridPruning ... 4 (adaptive)
Weight generation scheme         WeightScheme... mBecke (2022)
Basis function cutoff            BFCut       ... 1.0000e-10
Integration weight cutoff        WCut        ... 1.0000e-14
Partially contracted basis set               ... on
Rotationally invariant grid construction     ... off
Angular grids for H and He will be reduced by one unit

Total number of grid points                  ...    32388
Total number of batches                      ...      286
Average number of points per batch           ...      113
Average number of grid points per atom       ...      600
UseSFitting                                  ... on

GRIDX 2
-------
General Integration Accuracy     IntAcc      ... 4.020
Radial Grid Type                 RadialGrid  ... OptM3 with GC (2021)
Angular Grid (max. ang.)         AngularGrid ... 2 (Lebedev-110)
Angular grid pruning method      GridPruning ... 4 (adaptive)
Weight generation scheme         WeightScheme... mBecke (2022)
Basis function cutoff            BFCut       ... 1.0000e-10
Integration weight cutoff        WCut        ... 1.0000e-14
Partially contracted basis set               ... on
Rotationally invariant grid construction     ... off
Angular grids for H and He will be reduced by one unit

Total number of grid points                  ...    66444
Total number of batches                      ...      546
Average number of points per batch           ...      121
Average number of grid points per atom       ...     1230
UseSFitting                                  ... on

GRIDX 3
-------
General Integration Accuracy     IntAcc      ... 4.338
Radial Grid Type                 RadialGrid  ... OptM3 with GC (2021)
Angular Grid (max. ang.)         AngularGrid ... 3 (Lebedev-194)
Angular grid pruning method      GridPruning ... 4 (adaptive)
Weight generation scheme         WeightScheme... mBecke (2022)
Basis function cutoff            BFCut       ... 1.0000e-10
Integration weight cutoff        WCut        ... 1.0000e-14
Partially contracted basis set               ... on
Rotationally invariant grid construction     ... off
Angular grids for H and He will be reduced by one unit

Total number of grid points                  ...   145116
Total number of batches                      ...     1160
Average number of points per batch           ...      125
Average number of grid points per atom       ...     2687
UseSFitting                                  ... on
Initializing property integral containers    ... done (  0.0 sec)

SHARK setup successfully completed in  13.1 seconds

Maximum memory used throughout the entire STARTUP-calculation: 109.2 MB
-------------------------------------------------------------------------------
                                 ORCA GUESS
                   Start orbitals & Density for SCF / CASSCF
-------------------------------------------------------------------------------

------------
SCF SETTINGS
------------
Hamiltonian:
 Density Functional     Method          .... DFT(GTOs)
 Exchange Functional    Exchange        .... B88
   X-Alpha parameter    XAlpha          ....  0.666667
   Becke's b parameter  XBeta           ....  0.004200
 Correlation Functional Correlation     .... LYP
 LDA part of GGA corr.  LDAOpt          .... VWN-5
 Gradients option       PostSCFGGA      .... off
 Hybrid DFT is turned on
   Fraction HF Exchange ScalHFX         ....  0.200000
   Scaling of DF-GGA-X  ScalDFX         ....  0.720000
   Scaling of DF-GGA-C  ScalDFC         ....  0.810000
   Scaling of DF-LDA-C  ScalLDAC        ....  1.000000
   Perturbative correction              ....  0.000000
   NL short-range parameter             ....  4.800000
 RI-approximation to the Coulomb term is turned on
   Number of AuxJ basis functions       .... 1622
   RIJ-COSX (HFX calculated with COS-X)).... on


General Settings:
 Integral files         IntName         .... /home/nmrbox/aojoawo/Documents/ERDOS/inputs/CHEMBL2442013
 Hartree-Fock type      HFTyp           .... RHF
 Total Charge           Charge          ....    0
 Multiplicity           Mult            ....    1
 Number of Electrons    NEL             ....  206
 Basis Dimension        Dim             ....  436
 Nuclear Repulsion      ENuc            ....   2671.2725045910 Eh

Convergence Acceleration:
 AO-DIIS                CNVDIIS         .... on
   Start iteration      DIISMaxIt       ....    12
   Startup error        DIISStart       ....  0.200000
   # of expansion vecs  DIISMaxEq       ....     5
   Bias factor          DIISBfac        ....   1.050
   Max. coefficient     DIISMaxC        ....  10.000
 MO-DIIS                CNVKDIIS        .... off
 Trust-Rad. Augm. Hess. CNVTRAH         .... auto
   Auto Start mean grad. ratio tolernc. ....  1.125000
   Auto Start start iteration           ....    50
   Auto Start num. interpolation iter.  ....    10
   Max. Number of Micro iterations      ....    24
   Max. Number of Macro iterations      .... Maxiter - #DIIS iter
   Number of Davidson start vectors     ....     2
   Converg. threshold    (grad. norm)   ....   5.000e-05
   Grad. Scal. Fac. for Micro threshold ....   0.100
   Minimum threshold for Micro iter.    ....   1.000e-02
   NR start threshold (gradient norm)   ....   1.000e-04
   Initial trust radius                 ....   0.400
   Minimum AH scaling param. (alpha)    ....   1.000
   Maximum AH scaling param. (alpha)    .... 1000.000
   Quad. conv. algorithm                .... NR
   White noise on init. David. guess    .... on
   Maximum white noise                  ....   0.010
   Pseudo random numbers                .... off
   Inactive MOs                         .... canonical
   Orbital update algorithm             .... Taylor
   Preconditioner                       .... Diag
   Full preconditioner red. dimension   ....   250
 SOSCF                  CNVSOSCF        .... on
   Start iteration      SOSCFMaxIt      ....   150
   Startup grad/error   SOSCFStart      ....  0.003300
   Hessian update       SOSCFHessUp     .... L-BFGS
 Level Shifting         CNVShift        .... on
   Level shift para.    LevelShift      ....    0.2500
   Turn off err/grad.   ShiftErr        ....    0.0010
 Zerner damping         CNVZerner       .... off
 Static damping         CNVDamp         .... on
   Fraction old density DampFac         ....    0.7000
   Max. Damping (<1)    DampMax         ....    0.9800
   Min. Damping (>=0)   DampMin         ....    0.0000
   Turn off err/grad.   DampErr         ....    0.1000

SCF Procedure:
 Maximum # iterations   MaxIter         ....   125
 SCF integral mode      SCFMode         .... Direct
   Integral package                     .... SHARK and LIBINT hybrid scheme
 Reset frequency        DirectResetFreq ....    20
 Integral Threshold     Thresh          ....  1.000e-10 Eh
 Primitive CutOff       TCut            ....  1.000e-11 Eh

Convergence Tolerance:
 Convergence Check Mode ConvCheckMode   .... Total+1el-Energy
 Convergence forced     ConvForced      .... 0
 Energy Change          TolE            ....  1.000e-06 Eh
 1-El. energy change                    ....  1.000e-03 Eh
 Orbital Gradient       TolG            ....  5.000e-05
 Orbital Rotation angle TolX            ....  5.000e-05
 DIIS Error             TolErr          ....  1.000e-06

------------------------------
INITIAL GUESS: MODEL POTENTIAL
------------------------------
Loading Hartree-Fock densities                     ... done
Calculating cut-offs                               ... done
Initializing the effective Hamiltonian             ... done
Setting up the integral package (SHARK)            ... done
Starting the Coulomb interaction                   ... done (   3.6 sec)
Making the grid                                    ... done (   1.6 sec)
Mapping shells                                     ... done
Starting the XC term evaluation                    ... done (   1.3 sec)
  promolecular density results
     # of electrons  =    205.983360439
     EX              =   -178.150133894
     EC              =     -7.069090875
     EX+EC           =   -185.219224769
Transforming the Hamiltonian                       ... done (   0.0 sec)
Diagonalizing the Hamiltonian                      ... done (   0.0 sec)
Back transforming the eigenvectors                 ... done (   0.1 sec)
Now organizing SCF variables                       ... done
                      ------------------
                      INITIAL GUESS DONE (   6.7 sec)
                      ------------------
             **** ENERGY FILE WAS UPDATED (/home/nmrbox/aojoawo/Documents/ERDOS/inputs/CHEMBL2442013.en.tmp) ****
Finished Guess after   7.0 sec
Maximum memory used throughout the entire GUESS-calculation: 57.4 MB

-------------------------------------------------------------------------------------------
                                      ORCA LEAN-SCF
                              memory conserving SCF solver
-------------------------------------------------------------------------------------------

----------------------------------------D-I-I-S--------------------------------------------
Iteration    Energy (Eh)           Delta-E    RMSDP     MaxDP     DIISErr   Damp  Time(sec)
-------------------------------------------------------------------------------------------
               ***  Starting incremental Fock matrix formation  ***
    1    -1573.2441368130589581     0.00e+00  2.08e-03  9.44e-02  2.66e-01  0.700  65.0
    2    -1573.5621649665604309    -3.18e-01  1.47e-03  5.28e-02  1.15e-01  0.700  29.9
                               ***Turning on AO-DIIS***
    3    -1573.6882248376746247    -1.26e-01  6.29e-04  1.72e-02  3.44e-02  0.700  28.4
    4    -1573.7634456307819164    -7.52e-02  1.00e-03  2.98e-02  1.70e-02  0.000  26.3
    5    -1573.9278438263686439    -1.64e-01  2.31e-04  7.44e-03  6.97e-03  0.000  27.7
                              *** Initializing SOSCF ***
---------------------------------------S-O-S-C-F--------------------------------------
Iteration    Energy (Eh)           Delta-E    RMSDP     MaxDP     MaxGrad    Time(sec)
--------------------------------------------------------------------------------------
    6    -1573.9289780846270332    -1.13e-03  7.50e-05  2.35e-03  2.38e-03    23.3
               *** Restarting incremental Fock matrix formation ***
    7    -1573.9290951628404400    -1.17e-04  5.46e-05  3.47e-03  3.52e-04    64.7
    8    -1573.9290671217072486     2.80e-05  3.25e-05  2.61e-03  1.06e-03    35.4
    9    -1573.9291071424781876    -4.00e-05  1.02e-05  4.45e-04  8.26e-05    30.0
   10    -1573.9291062750849051     8.67e-07  6.02e-06  2.94e-04  1.99e-04    26.6
                 **** Energy Check signals convergence ****

               *****************************************************
               *                     SUCCESS                       *
               *           SCF CONVERGED AFTER  10 CYCLES          *
               *****************************************************

Recomputing exchange energy using gridx3       ... done (  113.296 sec)
Old exchange energy                            :    -36.177589284 Eh
New exchange energy                            :    -36.177625146 Eh
Exchange energy change after final integration :     -0.000035862 Eh
Total energy after final integration           :  -1573.929142137 Eh
             **** ENERGY FILE WAS UPDATED (/home/nmrbox/aojoawo/Documents/ERDOS/inputs/CHEMBL2442013.en.tmp) ****

----------------
TOTAL SCF ENERGY
----------------

Total Energy       :      -1573.92914213744075 Eh          -42828.78933 eV

Components:
Nuclear Repulsion  :       2671.27250459100878 Eh           72689.02029 eV
Electronic Energy  :      -4245.20161086609369 Eh         -115517.80864 eV
One Electron Energy:      -7460.79775831193729 Eh         -203018.62827 eV
Two Electron Energy:       3215.59614744584360 Eh           87500.81963 eV

Virial components:
Potential Energy   :      -3139.87203852812945 Eh          -85440.26187 eV
Kinetic Energy     :       1565.94289639068847 Eh           42611.47254 eV
Virial Ratio       :          2.00509995975279

DFT components:
N(Alpha)           :      102.999964507310 electrons
N(Beta)            :      102.999964507310 electrons
N(Total)           :      205.999929014620 electrons
E(X)               :     -143.593011960994 Eh       
E(C)               :       -8.315085647033 Eh       
E(XC)              :     -151.908097608028 Eh       

---------------
SCF CONVERGENCE
---------------

  Last Energy change         ...   -8.6739e-07  Tolerance :   1.0000e-06
  Last MAX-Density change    ...    2.9427e-04  Tolerance :   1.0000e-05
  Last RMS-Density change    ...    6.0161e-06  Tolerance :   1.0000e-06
  Last DIIS Error            ...    2.3792e-03  Tolerance :   1.0000e-06
  Last Orbital Gradient      ...    1.9871e-04  Tolerance :   5.0000e-05
  Last Orbital Rotation      ...    3.0826e-04  Tolerance :   5.0000e-05


----------------
ORBITAL ENERGIES
----------------

  NO   OCC          E(Eh)            E(eV) 
   0   2.0000    -101.534442     -2762.8926 
   1   2.0000     -19.177546      -521.8476 
   2   2.0000     -19.102493      -519.8053 
   3   2.0000     -14.331304      -389.9746 
   4   2.0000     -14.303302      -389.2126 
   5   2.0000     -10.277001      -279.6514 
   6   2.0000     -10.261006      -279.2162 
   7   2.0000     -10.256535      -279.0945 
   8   2.0000     -10.256203      -279.0855 
   9   2.0000     -10.211054      -277.8569 
  10   2.0000     -10.209893      -277.8253 
  11   2.0000     -10.209003      -277.8011 
  12   2.0000     -10.206765      -277.7402 
  13   2.0000     -10.206670      -277.7376 
  14   2.0000     -10.206227      -277.7256 
  15   2.0000     -10.204195      -277.6703 
  16   2.0000     -10.203541      -277.6525 
  17   2.0000     -10.197550      -277.4894 
  18   2.0000     -10.192254      -277.3453 
  19   2.0000     -10.191170      -277.3158 
  20   2.0000     -10.190085      -277.2863 
  21   2.0000     -10.181852      -277.0623 
  22   2.0000     -10.171489      -276.7803 
  23   2.0000     -10.171241      -276.7735 
  24   2.0000     -10.167925      -276.6833 
  25   2.0000     -10.167726      -276.6779 
  26   2.0000     -10.167018      -276.6586 
  27   2.0000      -9.466399      -257.5938 
  28   2.0000      -7.229427      -196.7227 
  29   2.0000      -7.220002      -196.4663 
  30   2.0000      -7.219669      -196.4572 
  31   2.0000      -1.056313       -28.7437 
  32   2.0000      -0.999984       -27.2109 
  33   2.0000      -0.903606       -24.5884 
  34   2.0000      -0.896868       -24.4050 
  35   2.0000      -0.877222       -23.8704 
  36   2.0000      -0.858938       -23.3729 
  37   2.0000      -0.846741       -23.0410 
  38   2.0000      -0.799489       -21.7552 
  39   2.0000      -0.780003       -21.2250 
  40   2.0000      -0.766986       -20.8707 
  41   2.0000      -0.760072       -20.6826 
  42   2.0000      -0.748344       -20.3635 
  43   2.0000      -0.743288       -20.2259 
  44   2.0000      -0.719001       -19.5650 
  45   2.0000      -0.704472       -19.1697 
  46   2.0000      -0.688215       -18.7273 
  47   2.0000      -0.641421       -17.4540 
  48   2.0000      -0.632317       -17.2062 
  49   2.0000      -0.624626       -16.9969 
  50   2.0000      -0.613515       -16.6946 
  51   2.0000      -0.603229       -16.4147 
  52   2.0000      -0.593716       -16.1558 
  53   2.0000      -0.588882       -16.0243 
  54   2.0000      -0.552014       -15.0211 
  55   2.0000      -0.530978       -14.4486 
  56   2.0000      -0.520850       -14.1731 
  57   2.0000      -0.519689       -14.1414 
  58   2.0000      -0.501784       -13.6542 
  59   2.0000      -0.494830       -13.4650 
  60   2.0000      -0.493232       -13.4215 
  61   2.0000      -0.485451       -13.2098 
  62   2.0000      -0.476877       -12.9765 
  63   2.0000      -0.469381       -12.7725 
  64   2.0000      -0.462947       -12.5974 
  65   2.0000      -0.450061       -12.2468 
  66   2.0000      -0.447750       -12.1839 
  67   2.0000      -0.446296       -12.1443 
  68   2.0000      -0.439328       -11.9547 
  69   2.0000      -0.437819       -11.9137 
  70   2.0000      -0.430436       -11.7127 
  71   2.0000      -0.427663       -11.6373 
  72   2.0000      -0.422527       -11.4976 
  73   2.0000      -0.404274       -11.0008 
  74   2.0000      -0.401270       -10.9191 
  75   2.0000      -0.398903       -10.8547 
  76   2.0000      -0.397283       -10.8106 
  77   2.0000      -0.388211       -10.5637 
  78   2.0000      -0.381172       -10.3722 
  79   2.0000      -0.374776       -10.1982 
  80   2.0000      -0.373662       -10.1679 
  81   2.0000      -0.369849       -10.0641 
  82   2.0000      -0.368549       -10.0287 
  83   2.0000      -0.360864        -9.8196 
  84   2.0000      -0.360192        -9.8013 
  85   2.0000      -0.356128        -9.6907 
  86   2.0000      -0.350418        -9.5354 
  87   2.0000      -0.344739        -9.3808 
  88   2.0000      -0.336594        -9.1592 
  89   2.0000      -0.333833        -9.0840 
  90   2.0000      -0.323213        -8.7951 
  91   2.0000      -0.321146        -8.7388 
  92   2.0000      -0.317907        -8.6507 
  93   2.0000      -0.312908        -8.5147 
  94   2.0000      -0.301425        -8.2022 
  95   2.0000      -0.295689        -8.0461 
  96   2.0000      -0.270835        -7.3698 
  97   2.0000      -0.260392        -7.0856 
  98   2.0000      -0.251020        -6.8306 
  99   2.0000      -0.236446        -6.4340 
 100   2.0000      -0.229828        -6.2540 
 101   2.0000      -0.225671        -6.1408 
 102   2.0000      -0.202709        -5.5160 
 103   0.0000      -0.033698        -0.9170 
 104   0.0000      -0.027417        -0.7461 
 105   0.0000      -0.022660        -0.6166 
 106   0.0000       0.000299         0.0081 
 107   0.0000       0.023979         0.6525 
 108   0.0000       0.038211         1.0398 
 109   0.0000       0.058909         1.6030 
 110   0.0000       0.076213         2.0739 
 111   0.0000       0.081840         2.2270 
 112   0.0000       0.092558         2.5186 
 113   0.0000       0.095456         2.5975 
*Only the first 10 virtual orbitals were printed.

                    ********************************
                    * MULLIKEN POPULATION ANALYSIS *
                    ********************************

-----------------------
MULLIKEN ATOMIC CHARGES
-----------------------
   0 C :   -0.440032
   1 C :   -0.149792
   2 N :   -0.399680
   3 C :    0.434751
   4 O :   -0.464832
   5 C :    0.030117
   6 C :   -0.145802
   7 C :   -0.136886
   8 C :   -0.115495
   9 C :   -0.196130
  10 C :    0.338903
  11 O :   -0.515579
  12 C :   -0.116861
  13 C :    0.127534
  14 C :   -0.153880
  15 C :   -0.135016
  16 C :   -0.062296
  17 Cl:   -0.013866
  18 C :   -0.130919
  19 C :   -0.164110
  20 C :    0.038499
  21 C :   -0.271970
  22 C :   -0.267494
  23 C :   -0.269525
  24 C :    0.033984
  25 N :   -0.702381
  26 C :   -0.291914
  27 H :    0.157224
  28 H :    0.152530
  29 H :    0.135181
  30 H :    0.159034
  31 H :    0.140670
  32 H :    0.157099
  33 H :    0.131404
  34 H :    0.134737
  35 H :    0.129089
  36 H :    0.165298
  37 H :    0.145796
  38 H :    0.156319
  39 H :    0.153355
  40 H :    0.154479
  41 H :    0.139038
  42 H :    0.158511
  43 H :    0.151249
  44 H :    0.129894
  45 H :    0.134766
  46 H :    0.117389
  47 H :    0.134473
  48 H :    0.149037
  49 H :    0.130864
  50 H :    0.284253
  51 H :    0.283995
  52 H :    0.109116
  53 H :    0.145872
Sum of atomic charges:   -0.0000000

--------------------------------
MULLIKEN REDUCED ORBITAL CHARGES
--------------------------------
  0 C s       :     3.304509  s :     3.304509
      pz      :     1.027881  p :     3.101714
      px      :     1.075191
      py      :     0.998642
      dz2     :     0.008789  d :     0.033809
      dxz     :     0.003819
      dyz     :     0.006338
      dx2y2   :     0.008533
      dxy     :     0.006330

  1 C s       :     3.224245  s :     3.224245
      pz      :     0.827853  p :     2.871233
      px      :     1.041743
      py      :     1.001638
      dz2     :     0.014677  d :     0.054313
      dxz     :     0.009382
      dyz     :     0.013114
      dx2y2   :     0.011191
      dxy     :     0.005949

  2 N s       :     3.539835  s :     3.539835
      pz      :     1.143297  p :     3.827215
      px      :     1.347131
      py      :     1.336786
      dz2     :     0.007548  d :     0.032630
      dxz     :     0.007172
      dyz     :     0.007544
      dx2y2   :     0.005397
      dxy     :     0.004969

  3 C s       :     3.053545  s :     3.053545
      pz      :     0.780350  p :     2.411541
      px      :     0.851892
      py      :     0.779299
      dz2     :     0.017220  d :     0.100163
      dxz     :     0.019214
      dyz     :     0.016892
      dx2y2   :     0.028211
      dxy     :     0.018626

  4 O s       :     3.887252  s :     3.887252
      pz      :     1.482562  p :     4.552400
      px      :     1.598069
      py      :     1.471769
      dz2     :     0.005377  d :     0.025180
      dxz     :     0.005945
      dyz     :     0.003643
      dx2y2   :     0.004419
      dxy     :     0.005796

  5 C s       :     3.146672  s :     3.146672
      pz      :     1.041818  p :     2.785586
      px      :     0.852115
      py      :     0.891653
      dz2     :     0.003309  d :     0.037625
      dxz     :     0.004211
      dyz     :     0.005902
      dx2y2   :     0.011078
      dxy     :     0.013125

  6 C s       :     3.208433  s :     3.208433
      pz      :     0.960121  p :     2.900784
      px      :     0.963141
      py      :     0.977521
      dz2     :     0.003391  d :     0.036584
      dxz     :     0.004501
      dyz     :     0.004638
      dx2y2   :     0.010168
      dxy     :     0.013887

  7 C s       :     3.183985  s :     3.183985
      pz      :     1.014502  p :     2.917015
      px      :     0.930881
      py      :     0.971632
      dz2     :     0.003456  d :     0.035887
      dxz     :     0.005497
      dyz     :     0.002327
      dx2y2   :     0.013436
      dxy     :     0.011170

  8 C s       :     3.188584  s :     3.188584
      pz      :     0.969476  p :     2.889889
      px      :     0.980839
      py      :     0.939573
      dz2     :     0.003500  d :     0.037022
      dxz     :     0.002353
      dyz     :     0.006531
      dx2y2   :     0.013508
      dxy     :     0.011130

  9 C s       :     3.180099  s :     3.180099
      pz      :     1.057360  p :     2.981840
      px      :     0.939545
      py      :     0.984935
      dz2     :     0.003461  d :     0.034191
      dxz     :     0.003898
      dyz     :     0.004117
      dx2y2   :     0.009258
      dxy     :     0.013456

 10 C s       :     3.102796  s :     3.102796
      pz      :     0.967828  p :     2.492459
      px      :     0.889108
      py      :     0.635524
      dz2     :     0.004728  d :     0.065842
      dxz     :     0.007394
      dyz     :     0.013422
      dx2y2   :     0.020560
      dxy     :     0.019738

 11 O s       :     3.879685  s :     3.879685
      pz      :     1.801316  p :     4.609782
      px      :     1.609397
      py      :     1.199069
      dz2     :     0.003688  d :     0.026113
      dxz     :     0.002807
      dyz     :     0.004772
      dx2y2   :     0.005580
      dxy     :     0.009266

 12 C s       :     3.232184  s :     3.232184
      pz      :     1.011945  p :     2.819295
      px      :     0.957115
      py      :     0.850234
      dz2     :     0.010841  d :     0.065381
      dxz     :     0.015503
      dyz     :     0.010419
      dx2y2   :     0.010137
      dxy     :     0.018482

 13 C s       :     3.127774  s :     3.127774
      pz      :     0.864864  p :     2.705167
      px      :     0.867118
      py      :     0.973185
      dz2     :     0.009811  d :     0.039526
      dxz     :     0.012535
      dyz     :     0.004893
      dx2y2   :     0.005812
      dxy     :     0.006475

 14 C s       :     3.199749  s :     3.199749
      pz      :     0.941856  p :     2.918145
      px      :     0.999775
      py      :     0.976513
      dz2     :     0.010196  d :     0.035986
      dxz     :     0.009792
      dyz     :     0.006044
      dx2y2   :     0.007204
      dxy     :     0.002749

 15 C s       :     3.194715  s :     3.194715
      pz      :     0.977341  p :     2.904869
      px      :     0.929961
      py      :     0.997568
      dz2     :     0.008195  d :     0.035432
      dxz     :     0.012154
      dyz     :     0.004424
      dx2y2   :     0.005246
      dxy     :     0.005413

 16 C s       :     3.177545  s :     3.177545
      pz      :     0.835257  p :     2.836116
      px      :     0.971101
      py      :     1.029759
      dz2     :     0.012947  d :     0.048635
      dxz     :     0.015012
      dyz     :     0.007166
      dx2y2   :     0.006313
      dxy     :     0.007197

 17 Cls       :     5.925873  s :     5.925873
      pz      :     3.313909  p :    11.058534
      px      :     3.841590
      py      :     3.903034
      dz2     :     0.011993  d :     0.029459
      dxz     :     0.008593
      dyz     :     0.006515
      dx2y2   :     0.000943
      dxy     :     0.001415

 18 C s       :     3.193290  s :     3.193290
      pz      :     0.918004  p :     2.902370
      px      :     0.997504
      py      :     0.986861
      dz2     :     0.009441  d :     0.035260
      dxz     :     0.010149
      dyz     :     0.005927
      dx2y2   :     0.006974
      dxy     :     0.002769

 19 C s       :     3.193387  s :     3.193387
      pz      :     0.970015  p :     2.934526
      px      :     0.966799
      py      :     0.997712
      dz2     :     0.007965  d :     0.036196
      dxz     :     0.013431
      dyz     :     0.004367
      dx2y2   :     0.005037
      dxy     :     0.005396

 20 C s       :     3.175857  s :     3.175857
      pz      :     1.023033  p :     2.727610
      px      :     0.846438
      py      :     0.858139
      dz2     :     0.013012  d :     0.058034
      dxz     :     0.008952
      dyz     :     0.006640
      dx2y2   :     0.015503
      dxy     :     0.013927

 21 C s       :     3.258204  s :     3.258204
      pz      :     1.015952  p :     2.975356
      px      :     0.964439
      py      :     0.994965
      dz2     :     0.009666  d :     0.038410
      dxz     :     0.006553
      dyz     :     0.005813
      dx2y2   :     0.006269
      dxy     :     0.010109

 22 C s       :     3.251517  s :     3.251517
      pz      :     0.981802  p :     2.976000
      px      :     1.021672
      py      :     0.972526
      dz2     :     0.008615  d :     0.039978
      dxz     :     0.003526
      dyz     :     0.011680
      dx2y2   :     0.008440
      dxy     :     0.007717

 23 C s       :     3.259328  s :     3.259328
      pz      :     0.976903  p :     2.971679
      px      :     0.966840
      py      :     1.027937
      dz2     :     0.008586  d :     0.038518
      dxz     :     0.004977
      dyz     :     0.009686
      dx2y2   :     0.005220
      dxy     :     0.010049

 24 C s       :     3.175858  s :     3.175858
      pz      :     0.993956  p :     2.731752
      px      :     0.926037
      py      :     0.811760
      dz2     :     0.015495  d :     0.058405
      dxz     :     0.005685
      dyz     :     0.008834
      dx2y2   :     0.014810
      dxy     :     0.013582

 25 N s       :     3.664986  s :     3.664986
      pz      :     1.251028  p :     4.004452
      px      :     1.408919
      py      :     1.344505
      dz2     :     0.014637  d :     0.032943
      dxz     :     0.000334
      dyz     :     0.002586
      dx2y2   :     0.011136
      dxy     :     0.004250

 26 C s       :     3.269869  s :     3.269869
      pz      :     1.009690  p :     2.983652
      px      :     1.013328
      py      :     0.960634
      dz2     :     0.009382  d :     0.038393
      dxz     :     0.007192
      dyz     :     0.005952
      dx2y2   :     0.009534
      dxy     :     0.006332

 27 H s       :     0.842776  s :     0.842776

 28 H s       :     0.847470  s :     0.847470

 29 H s       :     0.864819  s :     0.864819

 30 H s       :     0.840966  s :     0.840966

 31 H s       :     0.859330  s :     0.859330

 32 H s       :     0.842901  s :     0.842901

 33 H s       :     0.868596  s :     0.868596

 34 H s       :     0.865263  s :     0.865263

 35 H s       :     0.870911  s :     0.870911

 36 H s       :     0.834702  s :     0.834702

 37 H s       :     0.854204  s :     0.854204

 38 H s       :     0.843681  s :     0.843681

 39 H s       :     0.846645  s :     0.846645

 40 H s       :     0.845521  s :     0.845521

 41 H s       :     0.860962  s :     0.860962

 42 H s       :     0.841489  s :     0.841489

 43 H s       :     0.848751  s :     0.848751

 44 H s       :     0.870106  s :     0.870106

 45 H s       :     0.865234  s :     0.865234

 46 H s       :     0.882611  s :     0.882611

 47 H s       :     0.865527  s :     0.865527

 48 H s       :     0.850963  s :     0.850963

 49 H s       :     0.869136  s :     0.869136

 50 H s       :     0.715747  s :     0.715747

 51 H s       :     0.716005  s :     0.716005

 52 H s       :     0.890884  s :     0.890884

 53 H s       :     0.854128  s :     0.854128



                     *******************************
                     * LOEWDIN POPULATION ANALYSIS *
                     *******************************

----------------------
LOEWDIN ATOMIC CHARGES
----------------------
   0 C :   -0.368658
   1 C :   -0.161292
   2 N :   -0.107254
   3 C :    0.146059
   4 O :   -0.271917
   5 C :   -0.067958
   6 C :   -0.094397
   7 C :   -0.145789
   8 C :   -0.112892
   9 C :   -0.171074
  10 C :    0.100481
  11 O :   -0.179165
  12 C :   -0.083420
  13 C :   -0.041034
  14 C :   -0.117969
  15 C :   -0.131080
  16 C :   -0.084897
  17 Cl:    0.039448
  18 C :   -0.130976
  19 C :   -0.125416
  20 C :   -0.050495
  21 C :   -0.237523
  22 C :   -0.233635
  23 C :   -0.234491
  24 C :   -0.078917
  25 N :   -0.461255
  26 C :   -0.250206
  27 H :    0.128093
  28 H :    0.128213
  29 H :    0.122530
  30 H :    0.126397
  31 H :    0.122274
  32 H :    0.148624
  33 H :    0.133710
  34 H :    0.134919
  35 H :    0.134038
  36 H :    0.136682
  37 H :    0.119059
  38 H :    0.143707
  39 H :    0.145035
  40 H :    0.145667
  41 H :    0.135401
  42 H :    0.138229
  43 H :    0.129376
  44 H :    0.118909
  45 H :    0.123300
  46 H :    0.107513
  47 H :    0.120262
  48 H :    0.130872
  49 H :    0.118282
  50 H :    0.216524
  51 H :    0.217862
  52 H :    0.104527
  53 H :    0.125715

-------------------------------
LOEWDIN REDUCED ORBITAL CHARGES
-------------------------------
  0 C s       :     2.990322  s :     2.990322
      pz      :     1.098494  p :     3.311709
      px      :     1.127503
      py      :     1.085711
      dz2     :     0.016614  d :     0.066627
      dxz     :     0.006882
      dyz     :     0.013778
      dx2y2   :     0.016941
      dxy     :     0.012411

  1 C s       :     2.927437  s :     2.927437
      pz      :     0.938258  p :     3.119692
      px      :     1.095664
      py      :     1.085771
      dz2     :     0.030260  d :     0.114163
      dxz     :     0.019938
      dyz     :     0.029837
      dx2y2   :     0.023092
      dxy     :     0.011037

  2 N s       :     3.116572  s :     3.116572
      pz      :     1.195576  p :     3.908821
      px      :     1.371251
      py      :     1.341994
      dz2     :     0.019664  d :     0.081861
      dxz     :     0.017980
      dyz     :     0.020176
      dx2y2   :     0.012114
      dxy     :     0.011926

  3 C s       :     2.863073  s :     2.863073
      pz      :     0.872598  p :     2.757493
      px      :     1.001232
      py      :     0.883662
      dz2     :     0.036584  d :     0.233376
      dxz     :     0.044639
      dyz     :     0.042548
      dx2y2   :     0.066377
      dxy     :     0.043228

  4 O s       :     3.590688  s :     3.590688
      pz      :     1.503874  p :     4.631189
      px      :     1.637091
      py      :     1.490224
      dz2     :     0.008248  d :     0.050040
      dxz     :     0.013180
      dyz     :     0.008574
      dx2y2   :     0.008043
      dxy     :     0.011995

  5 C s       :     2.876574  s :     2.876574
      pz      :     1.021058  p :     3.095080
      px      :     1.020315
      py      :     1.053707
      dz2     :     0.007359  d :     0.096304
      dxz     :     0.008318
      dyz     :     0.012343
      dx2y2   :     0.032310
      dxy     :     0.035974

  6 C s       :     2.917880  s :     2.917880
      pz      :     0.955779  p :     3.091035
      px      :     1.076493
      py      :     1.058763
      dz2     :     0.006062  d :     0.085482
      dxz     :     0.009061
      dyz     :     0.009495
      dx2y2   :     0.026941
      dxy     :     0.033922

  7 C s       :     2.913893  s :     2.913893
      pz      :     1.006305  p :     3.146844
      px      :     1.068424
      py      :     1.072115
      dz2     :     0.006333  d :     0.085052
      dxz     :     0.012078
      dyz     :     0.003971
      dx2y2   :     0.033282
      dxy     :     0.029387

  8 C s       :     2.916835  s :     2.916835
      pz      :     0.963550  p :     3.108958
      px      :     1.076615
      py      :     1.068793
      dz2     :     0.006336  d :     0.087099
      dxz     :     0.004121
      dyz     :     0.014540
      dx2y2   :     0.033221
      dxy     :     0.028883

  9 C s       :     2.916505  s :     2.916505
      pz      :     1.043036  p :     3.173244
      px      :     1.055027
      py      :     1.075181
      dz2     :     0.006507  d :     0.081325
      dxz     :     0.007689
      dyz     :     0.008403
      dx2y2   :     0.025709
      dxy     :     0.033018

 10 C s       :     2.861834  s :     2.861834
      pz      :     0.965063  p :     2.882343
      px      :     1.064475
      py      :     0.852805
      dz2     :     0.010408  d :     0.155342
      dxz     :     0.014950
      dyz     :     0.027367
      dx2y2   :     0.051524
      dxy     :     0.051093

 11 O s       :     3.465548  s :     3.465548
      pz      :     1.781716  p :     4.653230
      px      :     1.633722
      py      :     1.237791
      dz2     :     0.006909  d :     0.060387
      dxz     :     0.004204
      dyz     :     0.011461
      dx2y2   :     0.015852
      dxy     :     0.021961

 12 C s       :     2.926956  s :     2.926956
      pz      :     1.072000  p :     3.018174
      px      :     1.013833
      py      :     0.932341
      dz2     :     0.022985  d :     0.138290
      dxz     :     0.033175
      dyz     :     0.021358
      dx2y2   :     0.020467
      dxy     :     0.040305

 13 C s       :     2.881270  s :     2.881270
      pz      :     1.029725  p :     3.060334
      px      :     1.060195
      py      :     0.970414
      dz2     :     0.025573  d :     0.099430
      dxz     :     0.033993
      dyz     :     0.010544
      dx2y2   :     0.015174
      dxy     :     0.014146

 14 C s       :     2.917678  s :     2.917678
      pz      :     1.052858  p :     3.115964
      px      :     1.080098
      py      :     0.983008
      dz2     :     0.026876  d :     0.084327
      dxz     :     0.025605
      dyz     :     0.013831
      dx2y2   :     0.012833
      dxy     :     0.005182

 15 C s       :     2.919381  s :     2.919381
      pz      :     1.073776  p :     3.127517
      px      :     1.055783
      py      :     0.997958
      dz2     :     0.020260  d :     0.084181
      dxz     :     0.030623
      dyz     :     0.008603
      dx2y2   :     0.013189
      dxy     :     0.011506

 16 C s       :     2.915228  s :     2.915228
      pz      :     0.950819  p :     3.056031
      px      :     1.082190
      py      :     1.023022
      dz2     :     0.030723  d :     0.113638
      dxz     :     0.037823
      dyz     :     0.014109
      dx2y2   :     0.015567
      dxy     :     0.015415

 17 Cls       :     5.800838  s :     5.800838
      pz      :     3.382059  p :    11.127075
      px      :     3.846635
      py      :     3.898380
      dz2     :     0.013542  d :     0.032639
      dxz     :     0.009639
      dyz     :     0.006992
      dx2y2   :     0.000945
      dxy     :     0.001521

 18 C s       :     2.919664  s :     2.919664
      pz      :     1.054876  p :     3.127396
      px      :     1.077123
      py      :     0.995398
      dz2     :     0.025431  d :     0.083915
      dxz     :     0.026846
      dyz     :     0.013949
      dx2y2   :     0.012442
      dxy     :     0.005247

 19 C s       :     2.918300  s :     2.918300
      pz      :     1.063480  p :     3.122386
      px      :     1.063484
      py      :     0.995422
      dz2     :     0.020069  d :     0.084730
      dxz     :     0.032857
      dyz     :     0.008740
      dx2y2   :     0.011852
      dxy     :     0.011213

 20 C s       :     2.893362  s :     2.893362
      pz      :     1.081347  p :     3.029269
      px      :     0.967491
      py      :     0.980431
      dz2     :     0.026884  d :     0.127864
      dxz     :     0.020584
      dyz     :     0.013058
      dx2y2   :     0.036506
      dxy     :     0.030833

 21 C s       :     2.948592  s :     2.948592
      pz      :     1.088416  p :     3.208151
      px      :     1.047871
      py      :     1.071864
      dz2     :     0.019259  d :     0.080780
      dxz     :     0.014580
      dyz     :     0.010979
      dx2y2   :     0.013724
      dxy     :     0.022238

 22 C s       :     2.939715  s :     2.939715
      pz      :     1.069875  p :     3.209908
      px      :     1.083197
      py      :     1.056836
      dz2     :     0.018488  d :     0.084012
      dxz     :     0.006758
      dyz     :     0.025130
      dx2y2   :     0.016765
      dxy     :     0.016870

 23 C s       :     2.946302  s :     2.946302
      pz      :     1.071360  p :     3.207250
      px      :     1.049597
      py      :     1.086293
      dz2     :     0.018200  d :     0.080939
      dxz     :     0.010401
      dyz     :     0.020445
      dx2y2   :     0.011501
      dxy     :     0.020392

 24 C s       :     2.898192  s :     2.898192
      pz      :     1.065442  p :     3.052963
      px      :     1.038805
      py      :     0.948716
      dz2     :     0.031508  d :     0.127762
      dxz     :     0.011849
      dyz     :     0.020023
      dx2y2   :     0.033210
      dxy     :     0.031172

 25 N s       :     3.298210  s :     3.298210
      pz      :     1.291706  p :     4.101201
      px      :     1.424601
      py      :     1.384895
      dz2     :     0.025376  d :     0.061843
      dxz     :     0.001296
      dyz     :     0.006724
      dx2y2   :     0.019551
      dxy     :     0.008896

 26 C s       :     2.959684  s :     2.959684
      pz      :     1.084526  p :     3.209400
      px      :     1.079777
      py      :     1.045098
      dz2     :     0.018999  d :     0.081122
      dxz     :     0.014283
      dyz     :     0.012467
      dx2y2   :     0.020484
      dxy     :     0.014890

 27 H s       :     0.871907  s :     0.871907

 28 H s       :     0.871787  s :     0.871787

 29 H s       :     0.877470  s :     0.877470

 30 H s       :     0.873603  s :     0.873603

 31 H s       :     0.877726  s :     0.877726

 32 H s       :     0.851376  s :     0.851376

 33 H s       :     0.866290  s :     0.866290

 34 H s       :     0.865081  s :     0.865081

 35 H s       :     0.865962  s :     0.865962

 36 H s       :     0.863318  s :     0.863318

 37 H s       :     0.880941  s :     0.880941

 38 H s       :     0.856293  s :     0.856293

 39 H s       :     0.854965  s :     0.854965

 40 H s       :     0.854333  s :     0.854333

 41 H s       :     0.864599  s :     0.864599

 42 H s       :     0.861771  s :     0.861771

 43 H s       :     0.870624  s :     0.870624

 44 H s       :     0.881091  s :     0.881091

 45 H s       :     0.876700  s :     0.876700

 46 H s       :     0.892487  s :     0.892487

 47 H s       :     0.879738  s :     0.879738

 48 H s       :     0.869128  s :     0.869128

 49 H s       :     0.881718  s :     0.881718

 50 H s       :     0.783476  s :     0.783476

 51 H s       :     0.782138  s :     0.782138

 52 H s       :     0.895473  s :     0.895473

 53 H s       :     0.874285  s :     0.874285



                      *****************************
                      * MAYER POPULATION ANALYSIS *
                      *****************************

  NA   - Mulliken gross atomic population
  ZA   - Total nuclear charge
  QA   - Mulliken gross atomic charge
  VA   - Mayer's total valence
  BVA  - Mayer's bonded valence
  FA   - Mayer's free valence

  ATOM       NA         ZA         QA         VA         BVA        FA
  0 C      6.4400     6.0000    -0.4400     3.8251     3.8251     0.0000
  1 C      6.1498     6.0000    -0.1498     3.8561     3.8561    -0.0000
  2 N      7.3997     7.0000    -0.3997     3.0254     3.0254     0.0000
  3 C      5.5652     6.0000     0.4348     3.9449     3.9449     0.0000
  4 O      8.4648     8.0000    -0.4648     2.0381     2.0381     0.0000
  5 C      5.9699     6.0000     0.0301     3.8349     3.8349    -0.0000
  6 C      6.1458     6.0000    -0.1458     3.9562     3.9562    -0.0000
  7 C      6.1369     6.0000    -0.1369     3.9298     3.9298     0.0000
  8 C      6.1155     6.0000    -0.1155     3.9529     3.9529     0.0000
  9 C      6.1961     6.0000    -0.1961     3.8846     3.8846     0.0000
 10 C      5.6611     6.0000     0.3389     3.8130     3.8130     0.0000
 11 O      8.5156     8.0000    -0.5156     1.9626     1.9626     0.0000
 12 C      6.1169     6.0000    -0.1169     3.7974     3.7974     0.0000
 13 C      5.8725     6.0000     0.1275     3.9266     3.9266     0.0000
 14 C      6.1539     6.0000    -0.1539     3.9196     3.9196    -0.0000
 15 C      6.1350     6.0000    -0.1350     3.9168     3.9168     0.0000
 16 C      6.0623     6.0000    -0.0623     3.9618     3.9618     0.0000
 17 Cl    17.0139    17.0000    -0.0139     1.0963     1.0963     0.0000
 18 C      6.1309     6.0000    -0.1309     3.9211     3.9211     0.0000
 19 C      6.1641     6.0000    -0.1641     3.9405     3.9405     0.0000
 20 C      5.9615     6.0000     0.0385     3.8751     3.8751     0.0000
 21 C      6.2720     6.0000    -0.2720     3.8375     3.8375     0.0000
 22 C      6.2675     6.0000    -0.2675     3.8724     3.8724    -0.0000
 23 C      6.2695     6.0000    -0.2695     3.8512     3.8512    -0.0000
 24 C      5.9660     6.0000     0.0340     3.8783     3.8783    -0.0000
 25 N      7.7024     7.0000    -0.7024     2.7650     2.7650    -0.0000
 26 C      6.2919     6.0000    -0.2919     3.8180     3.8180     0.0000
 27 H      0.8428     1.0000     0.1572     0.9384     0.9384     0.0000
 28 H      0.8475     1.0000     0.1525     0.9439     0.9439    -0.0000
 29 H      0.8648     1.0000     0.1352     0.9384     0.9384    -0.0000
 30 H      0.8410     1.0000     0.1590     0.9349     0.9349    -0.0000
 31 H      0.8593     1.0000     0.1407     0.9405     0.9405     0.0000
 32 H      0.8429     1.0000     0.1571     0.9392     0.9392    -0.0000
 33 H      0.8686     1.0000     0.1314     0.9373     0.9373     0.0000
 34 H      0.8653     1.0000     0.1347     0.9363     0.9363     0.0000
 35 H      0.8709     1.0000     0.1291     0.9450     0.9450     0.0000
 36 H      0.8347     1.0000     0.1653     0.9274     0.9274    -0.0000
 37 H      0.8542     1.0000     0.1458     0.9333     0.9333    -0.0000
 38 H      0.8437     1.0000     0.1563     0.9411     0.9411    -0.0000
 39 H      0.8466     1.0000     0.1534     0.9372     0.9372    -0.0000
 40 H      0.8455     1.0000     0.1545     0.9367     0.9367     0.0000
 41 H      0.8610     1.0000     0.1390     0.9378     0.9378     0.0000
 42 H      0.8415     1.0000     0.1585     0.9425     0.9425     0.0000
 43 H      0.8488     1.0000     0.1512     0.9350     0.9350    -0.0000
 44 H      0.8701     1.0000     0.1299     0.9397     0.9397    -0.0000
 45 H      0.8652     1.0000     0.1348     0.9355     0.9355     0.0000
 46 H      0.8826     1.0000     0.1174     0.9350     0.9350    -0.0000
 47 H      0.8655     1.0000     0.1345     0.9339     0.9339    -0.0000
 48 H      0.8510     1.0000     0.1490     0.9408     0.9408     0.0000
 49 H      0.8691     1.0000     0.1309     0.9315     0.9315    -0.0000
 50 H      0.7157     1.0000     0.2843     0.8779     0.8779    -0.0000
 51 H      0.7160     1.0000     0.2840     0.8746     0.8746    -0.0000
 52 H      0.8909     1.0000     0.1091     0.9493     0.9493    -0.0000
 53 H      0.8541     1.0000     0.1459     0.9447     0.9447    -0.0000

  Mayer bond orders larger than 0.100000
B(  0-C ,  1-C ) :   1.0047 B(  0-C , 27-H ) :   0.9448 B(  0-C , 28-H ) :   0.9428 
B(  0-C , 29-H ) :   0.9445 B(  1-C ,  2-N ) :   0.9464 B(  1-C , 30-H ) :   0.9157 
B(  1-C , 31-H ) :   0.9351 B(  2-N ,  3-C ) :   1.0677 B(  2-N , 20-C ) :   0.9304 
B(  3-C ,  4-O ) :   1.8240 B(  3-C ,  5-C ) :   0.9333 B(  5-C ,  6-C ) :   1.4180 
B(  5-C , 10-C ) :   1.3575 B(  6-C ,  7-C ) :   1.4367 B(  6-C , 32-H ) :   0.9175 
B(  7-C ,  8-C ) :   1.4437 B(  7-C , 33-H ) :   0.9292 B(  8-C ,  9-C ) :   1.4461 
B(  8-C , 34-H ) :   0.9293 B(  9-C , 10-C ) :   1.3560 B(  9-C , 35-H ) :   0.9133 
B( 10-C , 11-O ) :   0.9087 B( 11-O , 12-C ) :   0.9050 B( 12-C , 13-C ) :   0.9604 
B( 12-C , 36-H ) :   0.9251 B( 12-C , 37-H ) :   0.9198 B( 13-C , 14-C ) :   1.4204 
B( 13-C , 19-C ) :   1.4342 B( 14-C , 15-C ) :   1.4424 B( 14-C , 38-H ) :   0.9105 
B( 15-C , 16-C ) :   1.4094 B( 15-C , 39-H ) :   0.9235 B( 16-C , 17-Cl) :   1.0173 
B( 16-C , 18-C ) :   1.4230 B( 18-C , 19-C ) :   1.4337 B( 18-C , 40-H ) :   0.9225 
B( 19-C , 41-H ) :   0.9200 B( 20-C , 21-C ) :   0.9829 B( 20-C , 26-C ) :   0.9842 
B( 20-C , 42-H ) :   0.9178 B( 21-C , 22-C ) :   0.9868 B( 21-C , 43-H ) :   0.9409 
B( 21-C , 44-H ) :   0.9367 B( 22-C , 23-C ) :   1.0152 B( 22-C , 45-H ) :   0.9431 
B( 22-C , 46-H ) :   0.9441 B( 23-C , 24-C ) :   0.9870 B( 23-C , 47-H ) :   0.9405 
B( 23-C , 48-H ) :   0.9336 B( 24-C , 25-N ) :   1.0030 B( 24-C , 26-C ) :   0.9656 
B( 24-C , 49-H ) :   0.9348 B( 25-N , 50-H ) :   0.8599 B( 25-N , 51-H ) :   0.8657 
B( 26-C , 52-H ) :   0.9267 B( 26-C , 53-H ) :   0.9251 

-------
TIMINGS
-------

Total SCF time: 0 days 0 hours 7 min 51 sec 

Total time                  ....     471.397 sec
Sum of individual times     ....     471.075 sec  ( 99.9%)

SCF preparation             ....       0.394 sec  (  0.1%)
Fock matrix formation       ....     468.595 sec  ( 99.4%)
  Startup                   ....       0.084 sec  (  0.0% of F)
  Split-RI-J                ....      54.762 sec  ( 11.7% of F)
  Chain of spheres X        ....     372.709 sec  ( 79.5% of F)
  XC integration            ....      40.397 sec  (  8.6% of F)
    XC Preparation          ....       0.000 sec  (  0.0% of XC)
    Basis function eval.    ....      16.090 sec  ( 39.8% of XC)
    Density eval.           ....      10.115 sec  ( 25.0% of XC)
    XC-Functional eval.     ....       1.868 sec  (  4.6% of XC)
    XC-Potential eval.      ....      10.675 sec  ( 26.4% of XC)
Diagonalization             ....       0.000 sec  (  0.0%)
Density matrix formation    ....       0.279 sec  (  0.1%)
Total Energy calculation    ....       0.060 sec  (  0.0%)
Population analysis         ....       0.059 sec  (  0.0%)
Orbital Transformation      ....       0.155 sec  (  0.0%)
Orbital Orthonormalization  ....       0.000 sec  (  0.0%)
DIIS solution               ....       1.140 sec  (  0.2%)
SOSCF solution              ....       0.391 sec  (  0.1%)
Finished LeanSCF after 471.5 sec

Maximum memory used throughout the entire LEANSCF-calculation: 80.5 MB

-------------------------   --------------------
FINAL SINGLE POINT ENERGY     -1573.929142137441
-------------------------   --------------------


------------------------------------------------------------------------------
                              ORCA PROPERTY CALCULATIONS
------------------------------------------------------------------------------

GBWName                                 ... /home/nmrbox/aojoawo/Documents/ERDOS/inputs/CHEMBL2442013.gbw
Number of atoms                         ...     54
Number of basis functions               ...    436
Max core memory                         ...   1024 MB

Electric properties:
Dipole moment                           ... YES
Quadrupole moment                       ...  NO
Static polarizability (Dipole/Dipole)   ...  NO
Static polarizability (Dipole/Quad.)    ...  NO
Static polarizability (Quad./Quad.)     ...  NO
Static polarizability (Velocity)        ...  NO

Atomic electric properties:
Dipole moment                           ...  NO
Quadrupole moment                       ...  NO
Static polarizability                   ...  NO

Choice of electric origin               ... Center of mass
Position of electric origin             ...     1.194649     0.044725    -0.144688

General magnetic properties:
Magnetizability                         ...  NO

EPR properties:
g-Tensor (aka g-matrix)                 ...  NO
Zero-Field splitting spin-orbit         ...  NO
Zero-field splitting spin-spin          ...  NO
Hyperfine couplings                     ...  NO (   0 nuclei)
Quadrupole couplings                    ...  NO (   0 nuclei)
Contact density                         ...  NO (   0 nuclei)

NMR properties:
Chemical shifts                         ...  NO (   0 nuclei)
Spin-rotation constants                 ...  NO (   0 nuclei)
Spin-spin couplings                     ...  NO (   0 nuclei,    0 pairs)

Choice of magnetic origin               ... GIAO
Position of magnetic origin             ...     0.000000     0.000000     0.000000

Properties with geometric perturbations:
SCF Hessian                             ...  NO
IR spectrum                             ...  NO
VCD spectrum                            ...  NO
X-ray spectroscopy properties:
SCF XES/XAS/RIXS spectra                ...  NO


-------------
DIPOLE MOMENT
-------------

Method             : SCF
Type of density    : Electron Density
Multiplicity       :   1
Irrep              :   0
Energy             : -1573.9291421374407491 Eh
Relativity type    : 
Basis              : AO
                                X                 Y                 Z
Electronic contribution:     35.136958541       0.892214353      -9.190902180
Nuclear contribution   :    -33.845110929      -0.407203675       8.767620150
                        -----------------------------------------
Total Dipole Moment    :      1.291847612       0.485010679      -0.423282030
                        -----------------------------------------
Magnitude (a.u.)       :      1.443354872
Magnitude (Debye)      :      3.668716528



--------------------
Rotational spectrum 
--------------------
 
Rotational constants in cm-1:             0.006580             0.004144             0.003071 
Rotational constants in MHz :           197.277694           124.230400            92.075685 

Dipole components along the rotational axes: 
x,y,z [a.u.] :     1.414726    -0.220634     0.182053 
x,y,z [Debye]:     3.595949    -0.560807     0.462741 

 

Dipole moment calculation done in   0.1 sec 

Maximum memory used throughout the entire PROP-calculation: 37.9 MB

--------------------------------
SUGGESTED CITATIONS FOR THIS RUN
--------------------------------

Below you find a list of papers that are relevant to this ORCA run
We neither can nor want to force you to cite these papers, but we appreciate if you do
You receive ORCA, which is the product of decades of hard work by many enthusiastic individuals, for free
The only thing we kindly ask in return is that you cite our papers,
We deeply appreciate it, if you show your appreciation for ORCA by not just citing the generic ORCA reference.

Please note that relegating all ORCA citations to the supporting information does *not* help us.
SI sections are not indexed - citations you put there will not count into any citation statistics
But we need these citations in order to attract the funding resources that allow us to do what we are doing

Therefore, if you are a happy ORCA user, please consider citing a few of the papers listed below in the main body of your paper

In addition to the list printed below, the program has created the file /home/nmrbox/aojoawo/Documents/ERDOS/inputs/CHEMBL2442013.bibtex that contains the list in bibtex format
You can import this file easily into all common literature databanks and citation aid programs


List of essential papers. We consider these as the minimum necessary citations

  1. Neese,F.
     Software update: the ORCA program system, version 5.0
     WIRES Comput. Molec. Sci., 2022 12(1)e1606
     doi.org/10.1002/wcms.1606

List of papers to cite with high priority. The work reported in these papers was absolutely
necessary for this run to complete.
Our perspective: the developers of density functionals and basis sets usually get cited in chemistry papers
Good! But without the algorithms to do something with them, the functionals or basis sets would not do anything.
Hence, in our opinion, the algorithm design and method developments papers are equally worthy of getting cited

  1. Neese,F.
     An improvement of the resolution of the identity approximation for the formation of the Coulomb matrix
     J. Comp. Chem., 2003 24(14)1740-1747
     doi.org/10.1002/jcc.10318
  2. Neese,F.; Wennmohs,F.; Hansen,A.; Becker,U.
     Efficient, approximate and parallel Hartree-Fock and hybrid DFT calculations. A 'chain-of-spheres' algorithm for the Hartree-Fock exchange
     Chem. Phys., 2009 356(1-3)98-109
     doi.org/10.1016/j.chemphys.2008.10.036
  3. Helmich-Paris,B.; de Souza,B.; Neese,F.; Izsák,R.
     An improved chain of spheres for exchange algorithm
     J. Chem. Phys., 2021 155 104109
     doi.org/doi: 10.1063/5.0058766.
  4. Neese,F.
     The SHARK Integral Generation and Digestion System
     J. Comp. Chem., 2022  1-16
     doi.org/10.1002/jcc.26942

List of suggested additional citations. These are papers that are important in the 'surrounding' of 
of this run, or papers that preceded the highly important papers. If you like your results we are grateful for a citation.

  1. Izsak,R.; Neese,F.
     An overlap fitted chain of spheres exchange method
     J. Chem. Phys., 2011 135 144105
     doi.org/10.1063/1.3646921
  2. Izsak,R.; Hansen,A.; Neese,F.
     The resolution of identity and chain of spheres approximations for the LPNO-CCSD singles Fock term
     Molec. Phys., 2012 110 2413-2417
     doi.org/10.1080/00268976.2012.687466
  3. Neese,F.
     The ORCA program system
     WIRES Comput. Molec. Sci., 2012 2(1)73-78
     doi.org/10.1002/wcms.81
  4. Izsak,R.; Neese,F.; Klopper,W.
     Robust fitting techniques in the chain of spheres approximation to the Fock exchange: The role of the complementary space
     J. Chem. Phys., 2013 139 
     doi.org/10.1063/1.4819264
  5. Neese,F.
     Software update: the ORCA program system, version 4.0
     WIRES Comput. Molec. Sci., 2018 8(1)1-6
     doi.org/10.1002/wcms.1327
  6. Neese,F.; Wennmohs,F.; Becker,U.; Riplinger,C.
     The ORCA quantum chemistry program package
     J. Chem. Phys., 2020 152 Art. No. L224108
     doi.org/10.1063/5.0004608

List of optional additional citations

  1. Neese,F.
     Approximate second-order SCF convergence for spin unrestricted wavefunctions
     Chem. Phys. Lett., 2000 325(1-3)93-98
     doi.org/10.1016/s0009-2614(00)00662-x

Timings for individual modules:

Sum of individual times          ...      491.941 sec (=   8.199 min)
Startup calculation              ...       13.145 sec (=   0.219 min)   2.7 %
SCF iterations                   ...      478.532 sec (=   7.976 min)  97.3 %
Property calculations            ...        0.264 sec (=   0.004 min)   0.1 %
                             ****ORCA TERMINATED NORMALLY****
TOTAL RUN TIME: 0 days 0 hours 8 minutes 12 seconds 634 msec
