
                                 *****************
                                 * O   R   C   A *
                                 *****************

                                            #,                                       
                                            ###                                      
                                            ####                                     
                                            #####                                    
                                            ######                                   
                                           ########,                                 
                                     ,,################,,,,,                         
                               ,,#################################,,                 
                          ,,##########################################,,             
                       ,#########################################, ''#####,          
                    ,#############################################,,   '####,        
                  ,##################################################,,,,####,       
                ,###########''''           ''''###############################       
              ,#####''   ,,,,##########,,,,          '''####'''          '####       
            ,##' ,,,,###########################,,,                        '##       
           ' ,,###''''                  '''############,,,                           
         ,,##''                                '''############,,,,        ,,,,,,###''
      ,#''                                            '''#######################'''  
     '                                                          ''''####''''         
             ,#######,   #######,   ,#######,      ##                                
            ,#'     '#,  ##    ##  ,#'     '#,    #''#        ,####,   ,####,        
            ##       ##  ##   ,#'  ##            #'  '#       #'       #'  '#        
            ##       ##  #######   ##           ,######,      #####,   #    #        
            '#,     ,#'  ##    ##  '#,     ,#' ,#      #,     #,   #   #,  ,#        
             '#######'   ##     ##  '#######'  #'      '#     '####' # '####'        



                #########################################################
                #                        -***-                          #
                #          Department of theory and spectroscopy        #
                #                                                       #
                #                      Frank Neese                      #
                #                                                       #
                #     Directorship, Architecture, Infrastructure        #
                #                    SHARK, DRIVERS                     #
                #        Core code/Algorithms in most modules           #
                #                                                       #
                #        Max Planck Institute fuer Kohlenforschung      #
                #                Kaiser Wilhelm Platz 1                 #
                #                 D-45470 Muelheim/Ruhr                 #
                #                      Germany                          #
                #                                                       #
                #                  All rights reserved                  #
                #                        -***-                          #
                #########################################################


                         Program Version 6.0.0  -   RELEASE  -


 With contributions from (in alphabetic order):
   Daniel Aravena         : Magnetic Suceptibility
   Michael Atanasov       : Ab Initio Ligand Field Theory (pilot matlab implementation)
   Alexander A. Auer      : GIAO ZORA, VPT2 properties, NMR spectrum
   Ute Becker             : All parallelization in ORCA, NUMFREQ, NUMCALC
   Giovanni Bistoni       : ED, misc. LED, open-shell LED, HFLD
   Martin Brehm           : Molecular dynamics
   Dmytro Bykov           : pre 5.0 version of the SCF Hessian
   Marcos Casanova-Páez   : Triplet and SCS-CIS(D). UHF-(DLPNO)-IP/EA/STEOM-CCSD. UHF-CVS-IP/STEOM-CCSD
   Vijay G. Chilkuri      : MRCI spin determinant printing, contributions to CSF-ICE
   Pauline Colinet        : FMM embedding
   Dipayan Datta          : RHF DLPNO-CCSD density
   Achintya Kumar Dutta   : EOM-CC, STEOM-CC
   Nicolas Foglia         : Exact transition moments, OPA infrastructure, MCD improvements
   Dmitry Ganyushin       : Spin-Orbit,Spin-Spin,Magnetic field MRCI
   Miquel Garcia          : C-PCM and meta-GGA Hessian, CCSD/C-PCM, Gaussian charge scheme
   Tiago L. C. Gouveia    : GS-ROHF, GS-ROCIS
   Yang Guo               : DLPNO-NEVPT2, F12-NEVPT2, CIM, IAO-localization
   Andreas Hansen         : Spin unrestricted coupled pair/coupled cluster methods
   Ingolf Harden          : AUTO-CI MPn and infrastructure 
   Benjamin Helmich-Paris : MC-RPA, TRAH-(SCF,CASSCF), AVAS, COSX integrals, SCF dyn. polar.
   Lee Huntington         : MR-EOM, pCC
   Robert Izsak           : Overlap fitted RIJCOSX, COSX-SCS-MP3, EOM
   Riya Kayal             : Wick's Theorem for AUTO-CI, AUTO-CI UHF-CCSDT
   Emily Kempfer          : AUTO-CI, RHF CISDT and CCSDT
   Christian Kollmar      : KDIIS, OOCD, Brueckner-CCSD(T), CCSD density, CASPT2, CASPT2-K, improved NEVPT2
   Axel Koslowski         : Symmetry handling
   Simone Kossmann        : Meta GGA functionals, TD-DFT gradient, OOMP2, (MP2 Hessian; deprecated post 5.0)
   Lucas Lang             : DCDCAS
   Marvin Lechner         : AUTO-CI (C++ implementation), FIC-MRCC
   Spencer Leger          : CASSCF response
   Dagmar Lenk            : GEPOL surface, SMD, ORCA-2-JSON
   Dimitrios Liakos       : Extrapolation schemes; Compound Job, initial MDCI parallelization
   Dimitrios Manganas     : Further ROCIS development; embedding schemes. LFT, Crystal Embedding
   Dimitrios Pantazis     : SARC Basis sets
   Anastasios Papadopoulos: AUTO-CI, single reference methods and gradients
   Taras Petrenko         : pre 6.0 DFT Hessian and TD-DFT gradient, (ASA, deprecated), ECA, 1-Electron XAS/XES, NRVS
   Peter Pinski           : DLPNO-MP2, DLPNO-MP2 Gradient
   Christoph Reimann      : Effective Core Potentials
   Marius Retegan         : Local ZFS, SOC
   Christoph Riplinger    : Optimizer, TS searches, QM/MM, DLPNO-CCSD(T), (RO)-DLPNO pert. Triples
   Michael Roemelt        : Original ROCIS implementation
   Masaaki Saitow         : Open-shell DLPNO-CCSD energy and density
   Barbara Sandhoefer     : DKH picture change effects
   Kantharuban Sivalingam : CASSCF convergence/infrastructure, NEVPT2 and variants, FIC-MRCI
   Bernardo de Souza      : ESD, SOC TD-DFT
   Georgi Stoychev        : AutoAux, RI-MP2 NMR, DLPNO-MP2 response, X2C
   Van Anh Tran           : RI-MP2 g-tensors
   Willem Van den Heuvel  : Paramagnetic NMR
   Zikuan Wang            : NOTCH, Electric field optimization 
   Frank Wennmohs         : Technical directorship and infrastructure
   Hang Xu                : AUTO-CI-Response properties 


 We gratefully acknowledge several colleagues who have allowed us to
 interface, adapt or use parts of their codes:
   Stefan Grimme, W. Hujo, H. Kruse, P. Pracht,  : VdW corrections, initial TS optimization,
                  C. Bannwarth, S. Ehlert,         DFT functionals, gCP, sTDA/sTD-DF
                  L. Wittmann, M. Mueller
   Ed Valeev, F. Pavosevic, A. Kumar             : LibInt (2-el integral package), F12 methods
   Garnet Chan, S. Sharma, J. Yang, R. Olivares  : DMRG
   Ulf Ekstrom                                   : XCFun DFT Library
   Mihaly Kallay                                 : mrcc  (arbitrary order and MRCC methods)
   Frank Weinhold                                : gennbo (NPA and NBO analysis)
   Simon Mueller                                 : openCOSMO-RS
   Christopher J. Cramer and Donald G. Truhlar   : smd solvation model
   Lars Goerigk                                  : TD-DFT with DH, B97 family of functionals
   V. Asgeirsson, H. Jonsson                     : NEB implementation
   FAccTs GmbH                                   : IRC, NEB, NEB-TS, DLPNO-Multilevel, CI-OPT
                                                   MM, QMMM, 2- and 3-layer-ONIOM, Crystal-QMMM,
                                                   LR-CPCM, SF, NACMEs, symmetry and pop. for TD-DFT,
                                                   nearIR, NL-DFT gradient (VV10), updates on ESD,
                                                   ML-optimized integration grids, MBIS, APM,
                                                   GOAT, DOCKER, SOLVATOR, interface openCOSMO-RS
   S Lehtola, MJT Oliveira, MAL Marques          : LibXC Library
   Liviu Ungur et al                             : ANISO software


 Your calculation uses the libint2 library for the computation of 2-el integrals
 For citations please refer to: http://libint.valeyev.net

 Your ORCA version has been built with support for libXC version: 6.2.2
 For citations please refer to: https://libxc.gitlab.io

 This ORCA versions uses:
   CBLAS   interface :  Fast vector & matrix operations
   LAPACKE interface :  Fast linear algebra routines
   SCALAPACK package :  Parallel linear algebra routines
   Shared memory     :  Shared parallel matrices
   BLAS/LAPACK       :  OpenBLAS 0.3.27  USE64BITINT DYNAMIC_ARCH NO_AFFINITY SkylakeX SINGLE_THREADED
        Core in use  :  SkylakeX
   Copyright (c) 2011-2014, The OpenBLAS Project


Warning: RI is on but no J-basis has been assigned. Assigning Def2/J (nothing to worry about!)
================================================================================

----- Orbital basis set information -----
Your calculation utilizes the basis: 6-31G*
   H-He, Li-Ne : W. J. Hehre, R. Ditchfield and J.A. Pople, J. Chem. Phys. 56, 2257 (1972).
                 Note: He and Ne are unpublished basis sets taken from the Gaussian program.
                 Note: Li and B from J. D. Dill and J. A. Pople, J. Chem. Phys. 62, 2921 (1975).
   Na - Ar     : M. M. Francl, W. J. Pietro, W. J. Hehre, J. S. Binkley, M. S. Gordon, 
                 D. J. DeFrees and J. A. Pople, J. Chem. Phys. 77, 3654 (1982).
   K - Zn      : V. A. Rassolov, J. A. Pople, M. A. Ratner, and T. L. Windus, J. Chem. Phys. 109, 1223 (1998).

----- AuxJ basis set information -----
Your calculation utilizes the auxiliary basis: def2/J
   F. Weigend, Phys. Chem. Chem. Phys. 8, 1057 (2006).

================================================================================
                                        WARNINGS
                       Please study these warnings very carefully!
================================================================================


================================================================================
                                       INPUT FILE
================================================================================
NAME = /home/nmrbox/aojoawo/Documents/ERDOS/inputs/CHEMBL4649088.inp
|  1> ! B3LYP 6-31G* SP
|  2> 
|  3> * xyz 0 1
|  4> O -0.5274 -0.2247 2.6802
|  5> C -0.6611 0.2334 1.5130
|  6> N -1.8525 0.9462 1.1770
|  7> C -2.2025 1.2292 -0.2102
|  8> C -2.9214 0.0254 -0.8429
|  9> C -4.2110 -0.2837 -0.1274
| 10> C -4.2460 -1.2572 0.8855
| 11> C -5.4370 -1.5186 1.5698
| 12> C -6.5975 -0.8070 1.2534
| 13> C -6.5681 0.1700 0.2544
| 14> C -5.3790 0.4350 -0.4321
| 15> C -0.9625 1.5529 -0.9899
| 16> O -1.0424 2.3683 -1.9495
| 17> N 0.2899 0.8994 -0.6908
| 18> C 1.3308 0.9199 -1.7430
| 19> C 2.6433 0.4101 -1.2406
| 20> N 3.7839 0.3325 -1.9634
| 21> C 4.7158 -0.1272 -1.1057
| 22> C 6.0662 -0.3543 -1.3669
| 23> C 6.8728 -0.8124 -0.3083
| 24> C 6.3198 -1.0257 0.9747
| 25> C 4.9541 -0.7851 1.2124
| 26> C 4.1796 -0.3398 0.1427
| 27> C 2.8448 -0.0109 0.0547
| 28> C 1.8018 0.0550 1.1140
| 29> C 0.3999 -0.0299 0.4671
| 30> H -2.5524 1.1496 1.9261
| 31> H -2.8804 2.1119 -0.2340
| 32> H -2.2554 -0.8658 -0.8299
| 33> H -3.1428 0.2457 -1.9108
| 34> H -3.3516 -1.8090 1.1473
| 35> H -5.4595 -2.2707 2.3478
| 36> H -7.5183 -1.0098 1.7849
| 37> H -7.4661 0.7243 0.0140
| 38> H -5.3668 1.2003 -1.1983
| 39> H 1.0014 0.2967 -2.6015
| 40> H 1.4886 1.9618 -2.0952
| 41> H 3.9174 0.5954 -2.9653
| 42> H 6.4832 -0.1807 -2.3504
| 43> H 7.9253 -0.9989 -0.4774
| 44> H 6.9517 -1.3745 1.7811
| 45> H 4.5232 -0.9418 2.1928
| 46> H 1.9147 1.0172 1.6595
| 47> H 1.9449 -0.7857 1.8270
| 48> H 0.2485 -1.0666 0.0935
| 49> *
| 50> 
| 51>                          ****END OF INPUT****
================================================================================

                       ****************************
                       * Single Point Calculation *
                       ****************************

---------------------------------
CARTESIAN COORDINATES (ANGSTROEM)
---------------------------------
  O     -0.527400   -0.224700    2.680200
  C     -0.661100    0.233400    1.513000
  N     -1.852500    0.946200    1.177000
  C     -2.202500    1.229200   -0.210200
  C     -2.921400    0.025400   -0.842900
  C     -4.211000   -0.283700   -0.127400
  C     -4.246000   -1.257200    0.885500
  C     -5.437000   -1.518600    1.569800
  C     -6.597500   -0.807000    1.253400
  C     -6.568100    0.170000    0.254400
  C     -5.379000    0.435000   -0.432100
  C     -0.962500    1.552900   -0.989900
  O     -1.042400    2.368300   -1.949500
  N      0.289900    0.899400   -0.690800
  C      1.330800    0.919900   -1.743000
  C      2.643300    0.410100   -1.240600
  N      3.783900    0.332500   -1.963400
  C      4.715800   -0.127200   -1.105700
  C      6.066200   -0.354300   -1.366900
  C      6.872800   -0.812400   -0.308300
  C      6.319800   -1.025700    0.974700
  C      4.954100   -0.785100    1.212400
  C      4.179600   -0.339800    0.142700
  C      2.844800   -0.010900    0.054700
  C      1.801800    0.055000    1.114000
  C      0.399900   -0.029900    0.467100
  H     -2.552400    1.149600    1.926100
  H     -2.880400    2.111900   -0.234000
  H     -2.255400   -0.865800   -0.829900
  H     -3.142800    0.245700   -1.910800
  H     -3.351600   -1.809000    1.147300
  H     -5.459500   -2.270700    2.347800
  H     -7.518300   -1.009800    1.784900
  H     -7.466100    0.724300    0.014000
  H     -5.366800    1.200300   -1.198300
  H      1.001400    0.296700   -2.601500
  H      1.488600    1.961800   -2.095200
  H      3.917400    0.595400   -2.965300
  H      6.483200   -0.180700   -2.350400
  H      7.925300   -0.998900   -0.477400
  H      6.951700   -1.374500    1.781100
  H      4.523200   -0.941800    2.192800
  H      1.914700    1.017200    1.659500
  H      1.944900   -0.785700    1.827000
  H      0.248500   -1.066600    0.093500

----------------------------
CARTESIAN COORDINATES (A.U.)
----------------------------
  NO LB      ZA    FRAG     MASS         X           Y           Z
   0 O     8.0000    0    15.999   -0.996642   -0.424621    5.064844
   1 C     6.0000    0    12.011   -1.249298    0.441062    2.859156
   2 N     7.0000    0    14.007   -3.500718    1.788059    2.224208
   3 C     6.0000    0    12.011   -4.162122    2.322851   -0.397220
   4 C     6.0000    0    12.011   -5.520646    0.047999   -1.592850
   5 C     6.0000    0    12.011   -7.957637   -0.536115   -0.240751
   6 C     6.0000    0    12.011   -8.023777   -2.375764    1.673352
   7 C     6.0000    0    12.011  -10.274441   -2.869738    2.966492
   8 C     6.0000    0    12.011  -12.467468   -1.525009    2.368583
   9 C     6.0000    0    12.011  -12.411910    0.321253    0.480746
  10 C     6.0000    0    12.011  -10.164837    0.822031   -0.816551
  11 C     6.0000    0    12.011   -1.818861    2.934556   -1.870640
  12 O     8.0000    0    15.999   -1.969851    4.475438   -3.684021
  13 N     7.0000    0    14.007    0.547832    1.699620   -1.305423
  14 C     6.0000    0    12.011    2.514848    1.738359   -3.293793
  15 C     6.0000    0    12.011    4.995113    0.774977   -2.344394
  16 N     7.0000    0    14.007    7.150535    0.628334   -3.710288
  17 C     6.0000    0    12.011    8.911571   -0.240373   -2.089470
  18 C     6.0000    0    12.011   11.463457   -0.669530   -2.583067
  19 C     6.0000    0    12.011   12.987710   -1.535214   -0.582603
  20 C     6.0000    0    12.011   11.942691   -1.938292    1.841916
  21 C     6.0000    0    12.011    9.361892   -1.483624    2.291104
  22 C     6.0000    0    12.011    7.898299   -0.642129    0.269664
  23 C     6.0000    0    12.011    5.375893   -0.020598    0.103368
  24 C     6.0000    0    12.011    3.404909    0.103935    2.105155
  25 C     6.0000    0    12.011    0.755701   -0.056503    0.882691
  26 H     1.0000    0     1.008   -4.823337    2.172429    3.639802
  27 H     1.0000    0     1.008   -5.443167    3.990913   -0.442196
  28 H     1.0000    0     1.008   -4.262088   -1.636125   -1.568284
  29 H     1.0000    0     1.008   -5.939031    0.464306   -3.610889
  30 H     1.0000    0     1.008   -6.333606   -3.418515    2.168083
  31 H     1.0000    0     1.008  -10.316960   -4.291001    4.436699
  32 H     1.0000    0     1.008  -14.207528   -1.908245    3.372972
  33 H     1.0000    0     1.008  -14.108884    1.368729    0.026456
  34 H     1.0000    0     1.008  -10.141782    2.268238   -2.264459
  35 H     1.0000    0     1.008    1.892372    0.560682   -4.916123
  36 H     1.0000    0     1.008    2.813046    3.707265   -3.959354
  37 H     1.0000    0     1.008    7.402813    1.125143   -5.603605
  38 H     1.0000    0     1.008   12.251472   -0.341474   -4.441612
  39 H     1.0000    0     1.008   14.976647   -1.887647   -0.902155
  40 H     1.0000    0     1.008   13.136809   -2.597429    3.365791
  41 H     1.0000    0     1.008    8.547609   -1.779744    4.143791
  42 H     1.0000    0     1.008    3.618259    1.922229    3.136001
  43 H     1.0000    0     1.008    3.675328   -1.484758    3.452530
  44 H     1.0000    0     1.008    0.469597   -2.015582    0.176689

--------------------------------
INTERNAL COORDINATES (ANGSTROEM)
--------------------------------
 O      0   0   0     0.000000000000     0.00000000     0.00000000
 C      1   0   0     1.260986574076     0.00000000     0.00000000
 N      2   1   0     1.428430537338   119.17284719     0.00000000
 C      3   2   1     1.458393924836   121.38185479   194.23159416
 C      4   3   2     1.538265562249   110.58091550    83.74914414
 C      5   4   3     1.506834835010   111.41961696    61.60495340
 C      6   5   4     1.405309097672   120.37533156   264.81175960
 C      7   6   5     1.398240841200   120.22939024   178.43988040
 C      8   7   6     1.397584977738   120.08638804   359.67526842
 C      9   8   7     1.397638851778   120.01824313   359.82651843
 C     10   9   8     1.398379798195   120.08341262     0.14816809
 C      4   3   2     1.500104589687   109.74810403   322.26519431
 O     12   4   3     1.261781807604   118.84158054   211.75964465
 N     12   4   3     1.443962887335   120.77216922    34.57252735
 C     14  12   4     1.480208735280   117.15563126   160.40665989
 C     15  14  12     1.494977608528   111.94823684   170.86695408
 N     16  15  14     1.352564216590   125.47393444   181.25036910
 C     17  16  15     1.347371882592   105.22726765   177.54864150
 C     18  17  16     1.394051652558   127.32196611   181.33365134
 C     19  18  17     1.407513101182   117.85422245   178.61316530
 C     20  19  18     1.413292216776   120.50794152   359.73702939
 C     21  20  19     1.406956339052   120.48901206     0.09252494
 C     18  17  16     1.375213350721   111.15812828     0.00000000
 C     16  15  14     1.376824367884   123.29293121   359.35361290
 C     24  16  15     1.488055207309   123.61408425   356.94191069
 C     14  12   4     1.488768249258   120.50992914   355.17026875
 H      3   2   1     1.045170981227   119.14702253     5.45955599
 H      4   3   2     1.113226904095   108.68367374   203.47509703
 H      5   4   3     1.112637604973   110.01551898   299.30292047
 H      5   4   3     1.112636715195   109.43988526   182.26085658
 H      7   6   5     1.083039168267   120.43774783   358.71805656
 H      8   7   6     1.082332970947   119.96069573   179.87766043
 H      9   8   7     1.082355177379   119.98983842   180.07197917
 H     10   9   8     1.082332966328   119.95427163   180.33941689
 H     11  10   9     1.083002940901   119.39387323   180.51887502
 H     15  14  12     1.110812697983   109.45597230   292.08258502
 H     15  14  12     1.111081135651   109.76662678    51.50285025
 H     17  16  15     1.044386073251   127.30120498   358.90750359
 H     19  18  17     1.082265314052   121.15639425   358.84972615
 H     20  19  18     1.082189128572   119.72999434   179.98010069
 H     21  20  19     1.082238425672   119.77575755   180.23433582
 H     22  21  20     1.082318742331   120.97945794   180.25966390
 H     25  24  16     1.111820803907   108.44660037   267.34093704
 H     25  24  16     1.111585849136   109.44397789   148.45728217
 H     26  14  12     1.112315517288   108.08856725    95.36335582

---------------------------
INTERNAL COORDINATES (A.U.)
---------------------------
 O      0   0   0     0.000000000000     0.00000000     0.00000000
 C      1   0   0     2.382919283555     0.00000000     0.00000000
 N      2   1   0     2.699342516899   119.17284719     0.00000000
 C      3   2   1     2.755965113316   121.38185479   194.23159416
 C      4   3   2     2.906900633892   110.58091550    83.74914414
 C      5   4   3     2.847505167222   111.41961696    61.60495340
 C      6   5   4     2.655649328108   120.37533156   264.81175960
 C      7   6   5     2.642292259132   120.22939024   178.43988040
 C      8   7   6     2.641052856808   120.08638804   359.67526842
 C      9   8   7     2.641154663989   120.01824313   359.82651843
 C     10   9   8     2.642554849797   120.08341262     0.14816809
 C      4   3   2     2.834786846747   109.74810403   322.26519431
 O     12   4   3     2.384422057135   118.84158054   211.75964465
 N     12   4   3     2.728694404609   120.77216922    34.57252735
 C     14  12   4     2.797189130718   117.15563126   160.40665989
 C     15  14  12     2.825098256462   111.94823684   170.86695408
 N     16  15  14     2.555975947897   125.47393444   181.25036910
 C     17  16  15     2.546163858645   105.22726765   177.54864150
 C     18  17  16     2.634375839875   127.32196611   181.33365134
 C     19  18  17     2.659814291141   117.85422245   178.61316530
 C     20  19  18     2.670735236909   120.50794152   359.73702939
 C     21  20  19     2.658762163194   120.48901206     0.09252494
 C     18  17  16     2.598776608574   111.15812828     0.00000000
 C     16  15  14     2.601820989811   123.29293121   359.35361290
 C     24  16  15     2.812016813970   123.61408425   356.94191069
 C     14  12   4     2.813364267976   120.50992914   355.17026875
 H      3   2   1     1.975086917642   119.14702253     5.45955599
 H      4   3   2     2.103693973652   108.68367374   203.47509703
 H      5   4   3     2.102580359701   110.01551898   299.30292047
 H      5   4   3     2.102578678264   109.43988526   182.26085658
 H      7   6   5     2.046647420334   120.43774783   358.71805656
 H      8   7   6     2.045312900804   119.96069573   179.87766043
 H      9   8   7     2.045354864879   119.98983842   180.07197917
 H     10   9   8     2.045312892074   119.95427163   180.33941689
 H     11  10   9     2.046578960534   119.39387323   180.51887502
 H     15  14  12     2.099131785270   109.45597230   292.08258502
 H     15  14  12     2.099639058947   109.76662678    51.50285025
 H     17  16  15     1.973603656525   127.30120498   358.90750359
 H     19  18  17     2.045185047800   121.15639425   358.84972615
 H     20  19  18     2.045041078108   119.72999434   179.98010069
 H     21  20  19     2.045134236125   119.77575755   180.23433582
 H     22  21  20     2.045286012615   120.97945794   180.25966390
 H     25  24  16     2.101036829380   108.44660037   267.34093704
 H     25  24  16     2.100592829210   109.44397789   148.45728217
 H     26  14  12     2.101971702186   108.08856725    95.36335582

---------------------
BASIS SET INFORMATION
---------------------
There are 4 groups of distinct atoms

 Group   1 Type O   : 10s4p1d contracted to 3s2p1d pattern {631/31/1}
 Group   2 Type C   : 10s4p1d contracted to 3s2p1d pattern {631/31/1}
 Group   3 Type N   : 10s4p1d contracted to 3s2p1d pattern {631/31/1}
 Group   4 Type H   : 4s contracted to 2s pattern {31}

Atom   0O    basis set group =>   1
Atom   1C    basis set group =>   2
Atom   2N    basis set group =>   3
Atom   3C    basis set group =>   2
Atom   4C    basis set group =>   2
Atom   5C    basis set group =>   2
Atom   6C    basis set group =>   2
Atom   7C    basis set group =>   2
Atom   8C    basis set group =>   2
Atom   9C    basis set group =>   2
Atom  10C    basis set group =>   2
Atom  11C    basis set group =>   2
Atom  12O    basis set group =>   1
Atom  13N    basis set group =>   3
Atom  14C    basis set group =>   2
Atom  15C    basis set group =>   2
Atom  16N    basis set group =>   3
Atom  17C    basis set group =>   2
Atom  18C    basis set group =>   2
Atom  19C    basis set group =>   2
Atom  20C    basis set group =>   2
Atom  21C    basis set group =>   2
Atom  22C    basis set group =>   2
Atom  23C    basis set group =>   2
Atom  24C    basis set group =>   2
Atom  25C    basis set group =>   2
Atom  26H    basis set group =>   4
Atom  27H    basis set group =>   4
Atom  28H    basis set group =>   4
Atom  29H    basis set group =>   4
Atom  30H    basis set group =>   4
Atom  31H    basis set group =>   4
Atom  32H    basis set group =>   4
Atom  33H    basis set group =>   4
Atom  34H    basis set group =>   4
Atom  35H    basis set group =>   4
Atom  36H    basis set group =>   4
Atom  37H    basis set group =>   4
Atom  38H    basis set group =>   4
Atom  39H    basis set group =>   4
Atom  40H    basis set group =>   4
Atom  41H    basis set group =>   4
Atom  42H    basis set group =>   4
Atom  43H    basis set group =>   4
Atom  44H    basis set group =>   4
---------------------------------
AUXILIARY/J BASIS SET INFORMATION
---------------------------------
There are 4 groups of distinct atoms

 Group   1 Type O   : 12s5p4d2f1g contracted to 6s4p3d1f1g pattern {711111/2111/211/2/1}
 Group   2 Type C   : 12s5p4d2f1g contracted to 6s4p3d1f1g pattern {711111/2111/211/2/1}
 Group   3 Type N   : 12s5p4d2f1g contracted to 6s4p3d1f1g pattern {711111/2111/211/2/1}
 Group   4 Type H   : 5s2p1d contracted to 3s1p1d pattern {311/2/1}

Atom   0O    basis set group =>   1
Atom   1C    basis set group =>   2
Atom   2N    basis set group =>   3
Atom   3C    basis set group =>   2
Atom   4C    basis set group =>   2
Atom   5C    basis set group =>   2
Atom   6C    basis set group =>   2
Atom   7C    basis set group =>   2
Atom   8C    basis set group =>   2
Atom   9C    basis set group =>   2
Atom  10C    basis set group =>   2
Atom  11C    basis set group =>   2
Atom  12O    basis set group =>   1
Atom  13N    basis set group =>   3
Atom  14C    basis set group =>   2
Atom  15C    basis set group =>   2
Atom  16N    basis set group =>   3
Atom  17C    basis set group =>   2
Atom  18C    basis set group =>   2
Atom  19C    basis set group =>   2
Atom  20C    basis set group =>   2
Atom  21C    basis set group =>   2
Atom  22C    basis set group =>   2
Atom  23C    basis set group =>   2
Atom  24C    basis set group =>   2
Atom  25C    basis set group =>   2
Atom  26H    basis set group =>   4
Atom  27H    basis set group =>   4
Atom  28H    basis set group =>   4
Atom  29H    basis set group =>   4
Atom  30H    basis set group =>   4
Atom  31H    basis set group =>   4
Atom  32H    basis set group =>   4
Atom  33H    basis set group =>   4
Atom  34H    basis set group =>   4
Atom  35H    basis set group =>   4
Atom  36H    basis set group =>   4
Atom  37H    basis set group =>   4
Atom  38H    basis set group =>   4
Atom  39H    basis set group =>   4
Atom  40H    basis set group =>   4
Atom  41H    basis set group =>   4
Atom  42H    basis set group =>   4
Atom  43H    basis set group =>   4
Atom  44H    basis set group =>   4
------------------------------------------------------------------------------
                             ORCA STARTUP CALCULATIONS
                           -- RI-GTO INTEGRALS CHOSEN --
------------------------------------------------------------------------------
------------------------------------------------------------------------------
                   ___                                                        
                  /   \      - P O W E R E D   B Y -                         
                 /     \                                                     
                 |  |  |   _    _      __       _____    __    __             
                 |  |  |  | |  | |    /  \     |  _  \  |  |  /  |          
                  \  \/   | |  | |   /    \    | | | |  |  | /  /          
                 / \  \   | |__| |  /  /\  \   | |_| |  |  |/  /          
                |  |  |   |  __  | /  /__\  \  |    /   |      \           
                |  |  |   | |  | | |   __   |  |    \   |  |\   \          
                \     /   | |  | | |  |  |  |  | |\  \  |  | \   \       
                 \___/    |_|  |_| |__|  |__|  |_| \__\ |__|  \__/        
                                                                              
                      - O R C A' S   B I G   F R I E N D -                    
                                      &                                       
                       - I N T E G R A L  F E E D E R -                       
                                                                              
 v1 FN, 2020, v2 2021, v3 2022-2024                                           
------------------------------------------------------------------------------


----------------------
SHARK INTEGRAL PACKAGE
----------------------

Number of atoms                             ...     45
Number of basis functions                   ...    402
Number of shells                            ...    194
Maximum angular momentum                    ...      2
Integral batch strategy                     ... SHARK/LIBINT Hybrid
RI-J (if used) integral strategy            ... SPLIT-RIJ (Revised 2003 algorithm where possible)
Printlevel                                  ...      1
Contraction scheme used                     ... SEGMENTED contraction
Prescreening option                         ... SCHWARTZ
   Thresh                                   ... 1.000e-10
   Tcut                                     ... 1.000e-11
   Tpresel                                  ... 1.000e-11 
Coulomb Range Separation                    ... NOT USED
Exchange Range Separation                   ... NOT USED
Multipole approximations                    ... NOT USED
Finite Nucleus Model                        ... NOT USED
CABS basis                                  ... NOT available
Auxiliary Coulomb fitting basis             ... AVAILABLE
   # of basis functions in Aux-J            ...   1483
   # of shells in Aux-J                     ...    485
   Maximum angular momentum in Aux-J        ...      4
Auxiliary J/K fitting basis                 ... NOT available
Auxiliary Correlation fitting basis         ... NOT available
Auxiliary 'external' fitting basis          ... NOT available

Checking pre-screening integrals            ... done (  0.0 sec) Dimension = 194
Check shell pair data                       ... done (  0.0 sec)
Shell pair information
Shell pair cut-off parameter TPreSel        ...   1.0e-11
Total number of shell pairs                 ...     18915
Shell pairs after pre-screening             ...     11729
Total number of primitive shell pairs       ...    109414
Primitive shell pairs kept                  ...     37059
          la=0 lb=0:   3954 shell pairs
          la=1 lb=0:   4041 shell pairs
          la=1 lb=1:   1041 shell pairs
          la=2 lb=0:   1631 shell pairs
          la=2 lb=1:    880 shell pairs
          la=2 lb=2:    182 shell pairs

Calculating one electron integrals          ... done (  0.1 sec)
Calculating RI/J V-Matrix + Cholesky decomp.... done (  0.3 sec)
Calculating Nuclear repulsion               ... done (  0.0 sec) ENN=   2177.463334635685 Eh

Diagonalization of the overlap matrix:
Smallest eigenvalue                        ... 3.325e-04
Time for diagonalization                   ...    0.024 sec
Threshold for overlap eigenvalues          ... 1.000e-07
Number of eigenvalues below threshold      ... 0
Time for construction of square roots      ...    0.029 sec
Total time needed                          ...    0.063 sec

-------------------
DFT GRID GENERATION
-------------------

General Integration Accuracy     IntAcc      ... 4.388
Radial Grid Type                 RadialGrid  ... OptM3 with GC (2021)
Angular Grid (max. ang.)         AngularGrid ... 4 (Lebedev-302)
Angular grid pruning method      GridPruning ... 4 (adaptive)
Weight generation scheme         WeightScheme... mBecke (2022)
Basis function cutoff            BFCut       ... 1.0000e-10
Integration weight cutoff        WCut        ... 1.0000e-14
Partially contracted basis set               ... off
Rotationally invariant grid construction     ... off
Angular grids for H and He will be reduced by one unit

Total number of grid points                  ...   215402
Total number of batches                      ...     3388
Average number of points per batch           ...       63
Average number of grid points per atom       ...     4787

--------------------
COSX GRID GENERATION
--------------------

GRIDX 1
-------
General Integration Accuracy     IntAcc      ... 3.816
Radial Grid Type                 RadialGrid  ... OptM3 with GC (2021)
Angular Grid (max. ang.)         AngularGrid ... 1 (Lebedev-50)
Angular grid pruning method      GridPruning ... 4 (adaptive)
Weight generation scheme         WeightScheme... mBecke (2022)
Basis function cutoff            BFCut       ... 1.0000e-10
Integration weight cutoff        WCut        ... 1.0000e-14
Partially contracted basis set               ... on
Rotationally invariant grid construction     ... off
Angular grids for H and He will be reduced by one unit

Total number of grid points                  ...    27280
Total number of batches                      ...      239
Average number of points per batch           ...      114
Average number of grid points per atom       ...      606
UseSFitting                                  ... on

GRIDX 2
-------
General Integration Accuracy     IntAcc      ... 4.020
Radial Grid Type                 RadialGrid  ... OptM3 with GC (2021)
Angular Grid (max. ang.)         AngularGrid ... 2 (Lebedev-110)
Angular grid pruning method      GridPruning ... 4 (adaptive)
Weight generation scheme         WeightScheme... mBecke (2022)
Basis function cutoff            BFCut       ... 1.0000e-10
Integration weight cutoff        WCut        ... 1.0000e-14
Partially contracted basis set               ... on
Rotationally invariant grid construction     ... off
Angular grids for H and He will be reduced by one unit

Total number of grid points                  ...    59481
Total number of batches                      ...      489
Average number of points per batch           ...      121
Average number of grid points per atom       ...     1322
UseSFitting                                  ... on

GRIDX 3
-------
General Integration Accuracy     IntAcc      ... 4.338
Radial Grid Type                 RadialGrid  ... OptM3 with GC (2021)
Angular Grid (max. ang.)         AngularGrid ... 3 (Lebedev-194)
Angular grid pruning method      GridPruning ... 4 (adaptive)
Weight generation scheme         WeightScheme... mBecke (2022)
Basis function cutoff            BFCut       ... 1.0000e-10
Integration weight cutoff        WCut        ... 1.0000e-14
Partially contracted basis set               ... on
Rotationally invariant grid construction     ... off
Angular grids for H and He will be reduced by one unit

Total number of grid points                  ...   130038
Total number of batches                      ...     1040
Average number of points per batch           ...      125
Average number of grid points per atom       ...     2890
UseSFitting                                  ... on
Initializing property integral containers    ... done (  0.0 sec)

SHARK setup successfully completed in   8.2 seconds

Maximum memory used throughout the entire STARTUP-calculation: 90.6 MB
-------------------------------------------------------------------------------
                                 ORCA GUESS
                   Start orbitals & Density for SCF / CASSCF
-------------------------------------------------------------------------------

------------
SCF SETTINGS
------------
Hamiltonian:
 Density Functional     Method          .... DFT(GTOs)
 Exchange Functional    Exchange        .... B88
   X-Alpha parameter    XAlpha          ....  0.666667
   Becke's b parameter  XBeta           ....  0.004200
 Correlation Functional Correlation     .... LYP
 LDA part of GGA corr.  LDAOpt          .... VWN-5
 Gradients option       PostSCFGGA      .... off
 Hybrid DFT is turned on
   Fraction HF Exchange ScalHFX         ....  0.200000
   Scaling of DF-GGA-X  ScalDFX         ....  0.720000
   Scaling of DF-GGA-C  ScalDFC         ....  0.810000
   Scaling of DF-LDA-C  ScalLDAC        ....  1.000000
   Perturbative correction              ....  0.000000
   NL short-range parameter             ....  4.800000
 RI-approximation to the Coulomb term is turned on
   Number of AuxJ basis functions       .... 1483
   RIJ-COSX (HFX calculated with COS-X)).... on


General Settings:
 Integral files         IntName         .... /home/nmrbox/aojoawo/Documents/ERDOS/inputs/CHEMBL4649088
 Hartree-Fock type      HFTyp           .... RHF
 Total Charge           Charge          ....    0
 Multiplicity           Mult            ....    1
 Number of Electrons    NEL             ....  182
 Basis Dimension        Dim             ....  402
 Nuclear Repulsion      ENuc            ....   2177.4633346357 Eh

Convergence Acceleration:
 AO-DIIS                CNVDIIS         .... on
   Start iteration      DIISMaxIt       ....    12
   Startup error        DIISStart       ....  0.200000
   # of expansion vecs  DIISMaxEq       ....     5
   Bias factor          DIISBfac        ....   1.050
   Max. coefficient     DIISMaxC        ....  10.000
 MO-DIIS                CNVKDIIS        .... off
 Trust-Rad. Augm. Hess. CNVTRAH         .... auto
   Auto Start mean grad. ratio tolernc. ....  1.125000
   Auto Start start iteration           ....    50
   Auto Start num. interpolation iter.  ....    10
   Max. Number of Micro iterations      ....    24
   Max. Number of Macro iterations      .... Maxiter - #DIIS iter
   Number of Davidson start vectors     ....     2
   Converg. threshold    (grad. norm)   ....   5.000e-05
   Grad. Scal. Fac. for Micro threshold ....   0.100
   Minimum threshold for Micro iter.    ....   1.000e-02
   NR start threshold (gradient norm)   ....   1.000e-04
   Initial trust radius                 ....   0.400
   Minimum AH scaling param. (alpha)    ....   1.000
   Maximum AH scaling param. (alpha)    .... 1000.000
   Quad. conv. algorithm                .... NR
   White noise on init. David. guess    .... on
   Maximum white noise                  ....   0.010
   Pseudo random numbers                .... off
   Inactive MOs                         .... canonical
   Orbital update algorithm             .... Taylor
   Preconditioner                       .... Diag
   Full preconditioner red. dimension   ....   250
 SOSCF                  CNVSOSCF        .... on
   Start iteration      SOSCFMaxIt      ....   150
   Startup grad/error   SOSCFStart      ....  0.003300
   Hessian update       SOSCFHessUp     .... L-BFGS
 Level Shifting         CNVShift        .... on
   Level shift para.    LevelShift      ....    0.2500
   Turn off err/grad.   ShiftErr        ....    0.0010
 Zerner damping         CNVZerner       .... off
 Static damping         CNVDamp         .... on
   Fraction old density DampFac         ....    0.7000
   Max. Damping (<1)    DampMax         ....    0.9800
   Min. Damping (>=0)   DampMin         ....    0.0000
   Turn off err/grad.   DampErr         ....    0.1000

SCF Procedure:
 Maximum # iterations   MaxIter         ....   125
 SCF integral mode      SCFMode         .... Direct
   Integral package                     .... SHARK and LIBINT hybrid scheme
 Reset frequency        DirectResetFreq ....    20
 Integral Threshold     Thresh          ....  1.000e-10 Eh
 Primitive CutOff       TCut            ....  1.000e-11 Eh

Convergence Tolerance:
 Convergence Check Mode ConvCheckMode   .... Total+1el-Energy
 Convergence forced     ConvForced      .... 0
 Energy Change          TolE            ....  1.000e-06 Eh
 1-El. energy change                    ....  1.000e-03 Eh
 Orbital Gradient       TolG            ....  5.000e-05
 Orbital Rotation angle TolX            ....  5.000e-05
 DIIS Error             TolErr          ....  1.000e-06

------------------------------
INITIAL GUESS: MODEL POTENTIAL
------------------------------
Loading Hartree-Fock densities                     ... done
Calculating cut-offs                               ... done
Initializing the effective Hamiltonian             ... done
Setting up the integral package (SHARK)            ... done
Starting the Coulomb interaction                   ... done (   1.6 sec)
Making the grid                                    ... done (   1.0 sec)
Mapping shells                                     ... done
Starting the XC term evaluation                    ... done (   0.8 sec)
  promolecular density results
     # of electrons  =    181.981104119
     EX              =   -149.800861812
     EC              =     -6.213987886
     EX+EC           =   -156.014849698
Transforming the Hamiltonian                       ... done (   0.0 sec)
Diagonalizing the Hamiltonian                      ... done (   0.0 sec)
Back transforming the eigenvectors                 ... done (   0.0 sec)
Now organizing SCF variables                       ... done
                      ------------------
                      INITIAL GUESS DONE (   3.5 sec)
                      ------------------
             **** ENERGY FILE WAS UPDATED (/home/nmrbox/aojoawo/Documents/ERDOS/inputs/CHEMBL4649088.en.tmp) ****
Finished Guess after   3.9 sec
Maximum memory used throughout the entire GUESS-calculation: 48.2 MB

-------------------------------------------------------------------------------------------
                                      ORCA LEAN-SCF
                              memory conserving SCF solver
-------------------------------------------------------------------------------------------

----------------------------------------D-I-I-S--------------------------------------------
Iteration    Energy (Eh)           Delta-E    RMSDP     MaxDP     DIISErr   Damp  Time(sec)
-------------------------------------------------------------------------------------------
               ***  Starting incremental Fock matrix formation  ***
    1    -1125.0354571207285517     0.00e+00  2.53e-03  1.06e-01  2.78e-01  0.700  31.4
    2    -1125.3406568154282468    -3.05e-01  1.64e-03  5.72e-02  9.82e-02  0.700  14.3
                               ***Turning on AO-DIIS***
    3    -1125.4566511356547380    -1.16e-01  7.06e-04  1.81e-02  4.21e-02  0.700  14.6
    4    -1125.5295457527126928    -7.29e-02  1.28e-03  3.28e-02  1.95e-02  0.000  12.9
    5    -1125.6890527431232840    -1.60e-01  2.61e-04  9.63e-03  9.73e-03  0.000  13.7
                              *** Initializing SOSCF ***
---------------------------------------S-O-S-C-F--------------------------------------
Iteration    Energy (Eh)           Delta-E    RMSDP     MaxDP     MaxGrad    Time(sec)
--------------------------------------------------------------------------------------
    6    -1125.6903615472701858    -1.31e-03  8.67e-05  2.79e-03  2.41e-03    12.3
               *** Restarting incremental Fock matrix formation ***
    7    -1125.6904822421684003    -1.21e-04  7.03e-05  2.38e-03  4.08e-04    31.2
    8    -1125.6904410296037895     4.12e-05  4.29e-05  1.91e-03  1.06e-03    19.2
    9    -1125.6904977494314153    -5.67e-05  1.38e-05  5.55e-04  9.54e-05    16.9
   10    -1125.6904960107940497     1.74e-06  8.94e-06  3.87e-04  1.58e-04    14.1
   11    -1125.6904984961820446    -2.49e-06  3.69e-06  1.43e-04  4.02e-05    13.0
   12    -1125.6904985310134180    -3.48e-08  2.14e-06  9.37e-05  6.08e-05    11.6
                 **** Energy Check signals convergence ****

               *****************************************************
               *                     SUCCESS                       *
               *           SCF CONVERGED AFTER  12 CYCLES          *
               *****************************************************

Recomputing exchange energy using gridx3       ... done (   54.237 sec)
Old exchange energy                            :    -30.414842001 Eh
New exchange energy                            :    -30.414867285 Eh
Exchange energy change after final integration :     -0.000025284 Eh
Total energy after final integration           :  -1125.690523815 Eh
             **** ENERGY FILE WAS UPDATED (/home/nmrbox/aojoawo/Documents/ERDOS/inputs/CHEMBL4649088.en.tmp) ****

----------------
TOTAL SCF ENERGY
----------------

Total Energy       :      -1125.69052381507777 Eh          -30631.59643 eV

Components:
Nuclear Repulsion  :       2177.46333463568544 Eh           59251.78964 eV
Electronic Energy  :      -3303.15383316669886 Eh          -89883.38538 eV
One Electron Energy:      -5856.10531326308501 Eh         -159352.72691 eV
Two Electron Energy:       2552.95148009638615 Eh           69469.34153 eV

Virial components:
Potential Energy   :      -2244.48146036125218 Eh          -61075.44555 eV
Kinetic Energy     :       1118.79093654617418 Eh           30443.84912 eV
Virial Ratio       :          2.00616700318489

DFT components:
N(Alpha)           :       90.999944269039 electrons
N(Beta)            :       90.999944269039 electrons
N(Total)           :      181.999888538078 electrons
E(X)               :     -120.808067766662 Eh       
E(C)               :       -7.312407717833 Eh       
E(XC)              :     -128.120475484496 Eh       

---------------
SCF CONVERGENCE
---------------

  Last Energy change         ...    3.4831e-08  Tolerance :   1.0000e-06
  Last MAX-Density change    ...    9.3687e-05  Tolerance :   1.0000e-05
  Last RMS-Density change    ...    2.1386e-06  Tolerance :   1.0000e-06
  Last DIIS Error            ...    2.4095e-03  Tolerance :   1.0000e-06
  Last Orbital Gradient      ...    6.0801e-05  Tolerance :   5.0000e-05
  Last Orbital Rotation      ...    1.1345e-04  Tolerance :   5.0000e-05


----------------
ORBITAL ENERGIES
----------------

  NO   OCC          E(Eh)            E(eV) 
   0   2.0000     -19.119070      -520.2563 
   1   2.0000     -19.114895      -520.1427 
   2   2.0000     -14.378492      -391.2587 
   3   2.0000     -14.371890      -391.0790 
   4   2.0000     -14.362598      -390.8262 
   5   2.0000     -10.298263      -280.2300 
   6   2.0000     -10.295756      -280.1618 
   7   2.0000     -10.246731      -278.8277 
   8   2.0000     -10.244064      -278.7551 
   9   2.0000     -10.233274      -278.4615 
  10   2.0000     -10.213770      -277.9308 
  11   2.0000     -10.202752      -277.6310 
  12   2.0000     -10.197901      -277.4990 
  13   2.0000     -10.196562      -277.4626 
  14   2.0000     -10.189858      -277.2801 
  15   2.0000     -10.186853      -277.1984 
  16   2.0000     -10.186423      -277.1867 
  17   2.0000     -10.185659      -277.1659 
  18   2.0000     -10.185070      -277.1498 
  19   2.0000     -10.184652      -277.1385 
  20   2.0000     -10.175249      -276.8826 
  21   2.0000     -10.171138      -276.7707 
  22   2.0000     -10.169753      -276.7330 
  23   2.0000     -10.167756      -276.6787 
  24   2.0000     -10.162423      -276.5336 
  25   2.0000     -10.161875      -276.5187 
  26   2.0000      -1.025042       -27.8928 
  27   2.0000      -1.012632       -27.5551 
  28   2.0000      -1.000140       -27.2152 
  29   2.0000      -0.936421       -25.4813 
  30   2.0000      -0.916153       -24.9298 
  31   2.0000      -0.856420       -23.3044 
  32   2.0000      -0.836853       -22.7719 
  33   2.0000      -0.806027       -21.9331 
  34   2.0000      -0.790608       -21.5135 
  35   2.0000      -0.778045       -21.1717 
  36   2.0000      -0.750614       -20.4252 
  37   2.0000      -0.746049       -20.3010 
  38   2.0000      -0.733082       -19.9482 
  39   2.0000      -0.724427       -19.7126 
  40   2.0000      -0.679067       -18.4783 
  41   2.0000      -0.672984       -18.3128 
  42   2.0000      -0.651703       -17.7337 
  43   2.0000      -0.619569       -16.8593 
  44   2.0000      -0.607994       -16.5443 
  45   2.0000      -0.599341       -16.3089 
  46   2.0000      -0.584801       -15.9132 
  47   2.0000      -0.580333       -15.7917 
  48   2.0000      -0.563650       -15.3377 
  49   2.0000      -0.539911       -14.6917 
  50   2.0000      -0.525450       -14.2982 
  51   2.0000      -0.522141       -14.2082 
  52   2.0000      -0.513052       -13.9609 
  53   2.0000      -0.504676       -13.7329 
  54   2.0000      -0.487263       -13.2591 
  55   2.0000      -0.482589       -13.1319 
  56   2.0000      -0.464737       -12.6461 
  57   2.0000      -0.458875       -12.4866 
  58   2.0000      -0.457281       -12.4433 
  59   2.0000      -0.454402       -12.3649 
  60   2.0000      -0.444131       -12.0854 
  61   2.0000      -0.440725       -11.9927 
  62   2.0000      -0.431528       -11.7425 
  63   2.0000      -0.427432       -11.6310 
  64   2.0000      -0.423367       -11.5204 
  65   2.0000      -0.421739       -11.4761 
  66   2.0000      -0.414203       -11.2710 
  67   2.0000      -0.409301       -11.1376 
  68   2.0000      -0.406715       -11.0673 
  69   2.0000      -0.397855       -10.8262 
  70   2.0000      -0.389790       -10.6067 
  71   2.0000      -0.381163       -10.3720 
  72   2.0000      -0.373894       -10.1742 
  73   2.0000      -0.367509       -10.0004 
  74   2.0000      -0.362960        -9.8766 
  75   2.0000      -0.359962        -9.7951 
  76   2.0000      -0.347711        -9.4617 
  77   2.0000      -0.342927        -9.3315 
  78   2.0000      -0.340278        -9.2594 
  79   2.0000      -0.336298        -9.1511 
  80   2.0000      -0.329287        -8.9604 
  81   2.0000      -0.324428        -8.8281 
  82   2.0000      -0.268917        -7.3176 
  83   2.0000      -0.267089        -7.2679 
  84   2.0000      -0.255957        -6.9650 
  85   2.0000      -0.253615        -6.9012 
  86   2.0000      -0.250685        -6.8215 
  87   2.0000      -0.245052        -6.6682 
  88   2.0000      -0.235437        -6.4066 
  89   2.0000      -0.216145        -5.8816 
  90   2.0000      -0.191669        -5.2156 
  91   0.0000      -0.013927        -0.3790 
  92   0.0000      -0.005422        -0.1475 
  93   0.0000      -0.004231        -0.1151 
  94   0.0000       0.001262         0.0343 
  95   0.0000       0.005833         0.1587 
  96   0.0000       0.034610         0.9418 
  97   0.0000       0.060768         1.6536 
  98   0.0000       0.066564         1.8113 
  99   0.0000       0.075182         2.0458 
 100   0.0000       0.081588         2.2201 
 101   0.0000       0.097720         2.6591 
*Only the first 10 virtual orbitals were printed.

                    ********************************
                    * MULLIKEN POPULATION ANALYSIS *
                    ********************************

-----------------------
MULLIKEN ATOMIC CHARGES
-----------------------
   0 O :   -0.486892
   1 C :    0.559670
   2 N :   -0.600220
   3 C :   -0.046223
   4 C :   -0.357151
   5 C :    0.155122
   6 C :   -0.176832
   7 C :   -0.128906
   8 C :   -0.125527
   9 C :   -0.127165
  10 C :   -0.178629
  11 C :    0.565311
  12 O :   -0.490386
  13 N :   -0.478995
  14 C :   -0.167371
  15 C :    0.234759
  16 N :   -0.696294
  17 C :    0.310364
  18 C :   -0.196885
  19 C :   -0.141745
  20 C :   -0.150314
  21 C :   -0.202162
  22 C :    0.096711
  23 C :    0.030302
  24 C :   -0.325430
  25 C :   -0.047017
  26 H :    0.346378
  27 H :    0.179995
  28 H :    0.147786
  29 H :    0.166967
  30 H :    0.137883
  31 H :    0.134361
  32 H :    0.130364
  33 H :    0.131443
  34 H :    0.131189
  35 H :    0.154352
  36 H :    0.187772
  37 H :    0.333351
  38 H :    0.114321
  39 H :    0.119574
  40 H :    0.119008
  41 H :    0.126255
  42 H :    0.165471
  43 H :    0.172587
  44 H :    0.172851
Sum of atomic charges:   -0.0000000

--------------------------------
MULLIKEN REDUCED ORBITAL CHARGES
--------------------------------
  0 O s       :     3.892374  s :     3.892374
      pz      :     1.369659  p :     4.568805
      px      :     1.738505
      py      :     1.460642
      dz2     :     0.009171  d :     0.025713
      dxz     :     0.005914
      dyz     :     0.008324
      dx2y2   :     0.001423
      dxy     :     0.000881

  1 C s       :     3.007138  s :     3.007138
      pz      :     0.796130  p :     2.334187
      px      :     0.769385
      py      :     0.768672
      dz2     :     0.024405  d :     0.099004
      dxz     :     0.030683
      dyz     :     0.017597
      dx2y2   :     0.013908
      dxy     :     0.012411

  2 N s       :     3.597110  s :     3.597110
      pz      :     1.137457  p :     3.974438
      px      :     1.258540
      py      :     1.578441
      dz2     :     0.006342  d :     0.028671
      dxz     :     0.010779
      dyz     :     0.004108
      dx2y2   :     0.003474
      dxy     :     0.003968

  3 C s       :     3.200250  s :     3.200250
      pz      :     0.787989  p :     2.786898
      px      :     0.992534
      py      :     1.006374
      dz2     :     0.016013  d :     0.059075
      dxz     :     0.012475
      dyz     :     0.011858
      dx2y2   :     0.006803
      dxy     :     0.011927

  4 C s       :     3.274747  s :     3.274747
      pz      :     1.041309  p :     3.042285
      px      :     1.010418
      py      :     0.990558
      dz2     :     0.011616  d :     0.040119
      dxz     :     0.006331
      dyz     :     0.004114
      dx2y2   :     0.005985
      dxy     :     0.012073

  5 C s       :     3.128864  s :     3.128864
      pz      :     0.900266  p :     2.675286
      px      :     0.864186
      py      :     0.910834
      dz2     :     0.007611  d :     0.040728
      dxz     :     0.009058
      dyz     :     0.005747
      dx2y2   :     0.009237
      dxy     :     0.009074

  6 C s       :     3.201814  s :     3.201814
      pz      :     0.970639  p :     2.939101
      px      :     0.977382
      py      :     0.991079
      dz2     :     0.007284  d :     0.035918
      dxz     :     0.007312
      dyz     :     0.005211
      dx2y2   :     0.006774
      dxy     :     0.009336

  7 C s       :     3.191372  s :     3.191372
      pz      :     0.987063  p :     2.901393
      px      :     0.934633
      py      :     0.979697
      dz2     :     0.004567  d :     0.036141
      dxz     :     0.007764
      dyz     :     0.007514
      dx2y2   :     0.008536
      dxy     :     0.007760

  8 C s       :     3.185690  s :     3.185690
      pz      :     0.970197  p :     2.903790
      px      :     0.970210
      py      :     0.963383
      dz2     :     0.005415  d :     0.036047
      dxz     :     0.009438
      dyz     :     0.005144
      dx2y2   :     0.009112
      dxy     :     0.006939

  9 C s       :     3.190335  s :     3.190335
      pz      :     0.956713  p :     2.900652
      px      :     0.971753
      py      :     0.972187
      dz2     :     0.007432  d :     0.036178
      dxz     :     0.007300
      dyz     :     0.005107
      dx2y2   :     0.006773
      dxy     :     0.009565

 10 C s       :     3.198179  s :     3.198179
      pz      :     0.999251  p :     2.944576
      px      :     0.960071
      py      :     0.985254
      dz2     :     0.004408  d :     0.035874
      dxz     :     0.007658
      dyz     :     0.007529
      dx2y2   :     0.008565
      dxy     :     0.007715

 11 C s       :     3.005233  s :     3.005233
      pz      :     0.775424  p :     2.331862
      px      :     0.772996
      py      :     0.783442
      dz2     :     0.018418  d :     0.097594
      dxz     :     0.025541
      dyz     :     0.013238
      dx2y2   :     0.017760
      dxy     :     0.022636

 12 O s       :     3.893529  s :     3.893529
      pz      :     1.398668  p :     4.571177
      px      :     1.782991
      py      :     1.389517
      dz2     :     0.007891  d :     0.025680
      dxz     :     0.003717
      dyz     :     0.007518
      dx2y2   :     0.003866
      dxy     :     0.002688

 13 N s       :     3.594951  s :     3.594951
      pz      :     1.244618  p :     3.851396
      px      :     1.191603
      py      :     1.415175
      dz2     :     0.006523  d :     0.032647
      dxz     :     0.008264
      dyz     :     0.005956
      dx2y2   :     0.006508
      dxy     :     0.005396

 14 C s       :     3.199006  s :     3.199006
      pz      :     0.921412  p :     2.914501
      px      :     0.900817
      py      :     1.092272
      dz2     :     0.008704  d :     0.053864
      dxz     :     0.013808
      dyz     :     0.011724
      dx2y2   :     0.011795
      dxy     :     0.007833

 15 C s       :     3.049125  s :     3.049125
      pz      :     0.909903  p :     2.656261
      px      :     0.717574
      py      :     1.028784
      dz2     :     0.011216  d :     0.059855
      dxz     :     0.018086
      dyz     :     0.010563
      dx2y2   :     0.009769
      dxy     :     0.010222

 16 N s       :     3.662912  s :     3.662912
      pz      :     1.194076  p :     3.993257
      px      :     1.227647
      py      :     1.571534
      dz2     :     0.012027  d :     0.040125
      dxz     :     0.009490
      dyz     :     0.004828
      dx2y2   :     0.005622
      dxy     :     0.008159

 17 C s       :     3.029851  s :     3.029851
      pz      :     0.862386  p :     2.596682
      px      :     0.762527
      py      :     0.971769
      dz2     :     0.011922  d :     0.063102
      dxz     :     0.020262
      dyz     :     0.009522
      dx2y2   :     0.009883
      dxy     :     0.011514

 18 C s       :     3.179607  s :     3.179607
      pz      :     0.953909  p :     2.981487
      px      :     0.988245
      py      :     1.039332
      dz2     :     0.010162  d :     0.035792
      dxz     :     0.009997
      dyz     :     0.003249
      dx2y2   :     0.006163
      dxy     :     0.006219

 19 C s       :     3.198688  s :     3.198688
      pz      :     0.927768  p :     2.907407
      px      :     0.968722
      py      :     1.010917
      dz2     :     0.010147  d :     0.035650
      dxz     :     0.009465
      dyz     :     0.006332
      dx2y2   :     0.006744
      dxy     :     0.002961

 20 C s       :     3.203909  s :     3.203909
      pz      :     0.940616  p :     2.910775
      px      :     0.955805
      py      :     1.014354
      dz2     :     0.007758  d :     0.035630
      dxz     :     0.012756
      dyz     :     0.004862
      dx2y2   :     0.004641
      dxy     :     0.005613

 21 C s       :     3.190264  s :     3.190264
      pz      :     0.986414  p :     2.975528
      px      :     0.970512
      py      :     1.018601
      dz2     :     0.009498  d :     0.036370
      dxz     :     0.012273
      dyz     :     0.003504
      dx2y2   :     0.005181
      dxy     :     0.005915

 22 C s       :     3.102516  s :     3.102516
      pz      :     0.834525  p :     2.754323
      px      :     0.912998
      py      :     1.006800
      dz2     :     0.011315  d :     0.046451
      dxz     :     0.012649
      dyz     :     0.006509
      dx2y2   :     0.006818
      dxy     :     0.009160

 23 C s       :     3.097458  s :     3.097458
      pz      :     0.847545  p :     2.828318
      px      :     0.913339
      py      :     1.067434
      dz2     :     0.011116  d :     0.043922
      dxz     :     0.010956
      dyz     :     0.007685
      dx2y2   :     0.007778
      dxy     :     0.006387

 24 C s       :     3.268601  s :     3.268601
      pz      :     1.010583  p :     3.015974
      px      :     0.921924
      py      :     1.083467
      dz2     :     0.003689  d :     0.040855
      dxz     :     0.009604
      dyz     :     0.012817
      dx2y2   :     0.010963
      dxy     :     0.003782

 25 C s       :     3.189200  s :     3.189200
      pz      :     0.858267  p :     2.801337
      px      :     0.982917
      py      :     0.960153
      dz2     :     0.010560  d :     0.056480
      dxz     :     0.012226
      dyz     :     0.013710
      dx2y2   :     0.014469
      dxy     :     0.005516

 26 H s       :     0.653622  s :     0.653622

 27 H s       :     0.820005  s :     0.820005

 28 H s       :     0.852214  s :     0.852214

 29 H s       :     0.833033  s :     0.833033

 30 H s       :     0.862117  s :     0.862117

 31 H s       :     0.865639  s :     0.865639

 32 H s       :     0.869636  s :     0.869636

 33 H s       :     0.868557  s :     0.868557

 34 H s       :     0.868811  s :     0.868811

 35 H s       :     0.845648  s :     0.845648

 36 H s       :     0.812228  s :     0.812228

 37 H s       :     0.666649  s :     0.666649

 38 H s       :     0.885679  s :     0.885679

 39 H s       :     0.880426  s :     0.880426

 40 H s       :     0.880992  s :     0.880992

 41 H s       :     0.873745  s :     0.873745

 42 H s       :     0.834529  s :     0.834529

 43 H s       :     0.827413  s :     0.827413

 44 H s       :     0.827149  s :     0.827149



                     *******************************
                     * LOEWDIN POPULATION ANALYSIS *
                     *******************************

----------------------
LOEWDIN ATOMIC CHARGES
----------------------
   0 O :   -0.286020
   1 C :    0.139615
   2 N :   -0.222020
   3 C :   -0.075901
   4 C :   -0.220923
   5 C :   -0.026716
   6 C :   -0.134356
   7 C :   -0.126131
   8 C :   -0.131009
   9 C :   -0.126787
  10 C :   -0.137375
  11 C :    0.144718
  12 O :   -0.285734
  13 N :   -0.108542
  14 C :   -0.139527
  15 C :   -0.016328
  16 N :   -0.116511
  17 C :    0.010126
  18 C :   -0.155722
  19 C :   -0.143231
  20 C :   -0.144850
  21 C :   -0.135980
  22 C :   -0.042315
  23 C :   -0.090124
  24 C :   -0.204844
  25 C :   -0.065547
  26 H :    0.268329
  27 H :    0.150859
  28 H :    0.128528
  29 H :    0.140482
  30 H :    0.135336
  31 H :    0.134185
  32 H :    0.132464
  33 H :    0.132791
  34 H :    0.132090
  35 H :    0.127055
  36 H :    0.150667
  37 H :    0.268391
  38 H :    0.126171
  39 H :    0.128741
  40 H :    0.127630
  41 H :    0.132267
  42 H :    0.140273
  43 H :    0.146818
  44 H :    0.138960

-------------------------------
LOEWDIN REDUCED ORBITAL CHARGES
-------------------------------
  0 O s       :     3.588519  s :     3.588519
      pz      :     1.450767  p :     4.647218
      px      :     1.729815
      py      :     1.466636
      dz2     :     0.020759  d :     0.050284
      dxz     :     0.010101
      dyz     :     0.015516
      dx2y2   :     0.002239
      dxy     :     0.001668

  1 C s       :     2.869822  s :     2.869822
      pz      :     0.987332  p :     2.760644
      px      :     0.925946
      py      :     0.847366
      dz2     :     0.058719  d :     0.229919
      dxz     :     0.073335
      dyz     :     0.040290
      dx2y2   :     0.028604
      dxy     :     0.028972

  2 N s       :     3.159499  s :     3.159499
      pz      :     1.176066  p :     3.993090
      px      :     1.266705
      py      :     1.550318
      dz2     :     0.017693  d :     0.069431
      dxz     :     0.025171
      dyz     :     0.010104
      dx2y2   :     0.007125
      dxy     :     0.009339

  3 C s       :     2.895894  s :     2.895894
      pz      :     0.925523  p :     3.047200
      px      :     1.049962
      py      :     1.071715
      dz2     :     0.036500  d :     0.132807
      dxz     :     0.029466
      dyz     :     0.026706
      dx2y2   :     0.014080
      dxy     :     0.026055

  4 C s       :     2.939796  s :     2.939796
      pz      :     1.086889  p :     3.196668
      px      :     1.051340
      py      :     1.058440
      dz2     :     0.022824  d :     0.084458
      dxz     :     0.013989
      dyz     :     0.008783
      dx2y2   :     0.012923
      dxy     :     0.025940

  5 C s       :     2.876761  s :     2.876761
      pz      :     1.008421  p :     3.048999
      px      :     1.025770
      py      :     1.014809
      dz2     :     0.017223  d :     0.100956
      dxz     :     0.022907
      dyz     :     0.014749
      dx2y2   :     0.023120
      dxy     :     0.022956

  6 C s       :     2.919808  s :     2.919808
      pz      :     1.027097  p :     3.130598
      px      :     1.071058
      py      :     1.032443
      dz2     :     0.015882  d :     0.083949
      dxz     :     0.018659
      dyz     :     0.012937
      dx2y2   :     0.016263
      dxy     :     0.020209

  7 C s       :     2.918706  s :     2.918706
      pz      :     1.029039  p :     3.122400
      px      :     1.066140
      py      :     1.027222
      dz2     :     0.010510  d :     0.085025
      dxz     :     0.019703
      dyz     :     0.013283
      dx2y2   :     0.021759
      dxy     :     0.019769

  8 C s       :     2.917950  s :     2.917950
      pz      :     1.030641  p :     3.128293
      px      :     1.068072
      py      :     1.029579
      dz2     :     0.012439  d :     0.084766
      dxz     :     0.020595
      dyz     :     0.013397
      dx2y2   :     0.020606
      dxy     :     0.017729

  9 C s       :     2.918255  s :     2.918255
      pz      :     1.027602  p :     3.123398
      px      :     1.067250
      py      :     1.028547
      dz2     :     0.016463  d :     0.085133
      dxz     :     0.018587
      dyz     :     0.013020
      dx2y2   :     0.016257
      dxy     :     0.020806

 10 C s       :     2.918089  s :     2.918089
      pz      :     1.039588  p :     3.135393
      px      :     1.059681
      py      :     1.036124
      dz2     :     0.010193  d :     0.083892
      dxz     :     0.019270
      dyz     :     0.013269
      dx2y2   :     0.021858
      dxy     :     0.019303

 11 C s       :     2.870719  s :     2.870719
      pz      :     0.925308  p :     2.757664
      px      :     0.948926
      py      :     0.883430
      dz2     :     0.040825  d :     0.226900
      dxz     :     0.060045
      dyz     :     0.033253
      dx2y2   :     0.038673
      dxy     :     0.054103

 12 O s       :     3.588898  s :     3.588898
      pz      :     1.452297  p :     4.646502
      px      :     1.770022
      py      :     1.424183
      dz2     :     0.012949  d :     0.050335
      dxz     :     0.006675
      dyz     :     0.019006
      dx2y2   :     0.006954
      dxy     :     0.004751

 13 N s       :     3.126153  s :     3.126153
      pz      :     1.258106  p :     3.900154
      px      :     1.209211
      py      :     1.432837
      dz2     :     0.016697  d :     0.082234
      dxz     :     0.021419
      dyz     :     0.014343
      dx2y2   :     0.015923
      dxy     :     0.013853

 14 C s       :     2.914653  s :     2.914653
      pz      :     1.009286  p :     3.112183
      px      :     0.978050
      py      :     1.124847
      dz2     :     0.018574  d :     0.112691
      dxz     :     0.030913
      dyz     :     0.022774
      dx2y2   :     0.024759
      dxy     :     0.015671

 15 C s       :     2.845432  s :     2.845432
      pz      :     1.029800  p :     3.026818
      px      :     0.962529
      py      :     1.034489
      dz2     :     0.029886  d :     0.144078
      dxz     :     0.046110
      dyz     :     0.023651
      dx2y2   :     0.022345
      dxy     :     0.022086

 16 N s       :     3.082137  s :     3.082137
      pz      :     1.204937  p :     3.939206
      px      :     1.209678
      py      :     1.524591
      dz2     :     0.025513  d :     0.095168
      dxz     :     0.026960
      dyz     :     0.009109
      dx2y2   :     0.014380
      dxy     :     0.019206

 17 C s       :     2.823539  s :     2.823539
      pz      :     1.001417  p :     3.010863
      px      :     1.013420
      py      :     0.996025
      dz2     :     0.031371  d :     0.155473
      dxz     :     0.053200
      dyz     :     0.022103
      dx2y2   :     0.023155
      dxy     :     0.025645

 18 C s       :     2.912024  s :     2.912024
      pz      :     1.068392  p :     3.160076
      px      :     1.052114
      py      :     1.039570
      dz2     :     0.022305  d :     0.083622
      dxz     :     0.025825
      dyz     :     0.006500
      dx2y2   :     0.014750
      dxy     :     0.014242

 19 C s       :     2.919584  s :     2.919584
      pz      :     1.058662  p :     3.140701
      px      :     1.065059
      py      :     1.016980
      dz2     :     0.025961  d :     0.082946
      dxz     :     0.024633
      dyz     :     0.014729
      dx2y2   :     0.011951
      dxy     :     0.005673

 20 C s       :     2.920002  s :     2.920002
      pz      :     1.061479  p :     3.141774
      px      :     1.063156
      py      :     1.017140
      dz2     :     0.019290  d :     0.083073
      dxz     :     0.030946
      dyz     :     0.009704
      dx2y2   :     0.011233
      dxy     :     0.011899

 21 C s       :     2.911475  s :     2.911475
      pz      :     1.063412  p :     3.140257
      px      :     1.062589
      py      :     1.014256
      dz2     :     0.021512  d :     0.084249
      dxz     :     0.028879
      dyz     :     0.006819
      dx2y2   :     0.013603
      dxy     :     0.013436

 22 C s       :     2.832044  s :     2.832044
      pz      :     1.039222  p :     3.088686
      px      :     1.037876
      py      :     1.011589
      dz2     :     0.032266  d :     0.121585
      dxz     :     0.036292
      dyz     :     0.014809
      dx2y2   :     0.017377
      dxy     :     0.020841

 23 C s       :     2.846310  s :     2.846310
      pz      :     1.030114  p :     3.132433
      px      :     1.034193
      py      :     1.068126
      dz2     :     0.030650  d :     0.111381
      dxz     :     0.030678
      dyz     :     0.017361
      dx2y2   :     0.018764
      dxy     :     0.013928

 24 C s       :     2.926193  s :     2.926193
      pz      :     1.074089  p :     3.192213
      px      :     0.997888
      py      :     1.120237
      dz2     :     0.008159  d :     0.086439
      dxz     :     0.022330
      dyz     :     0.025169
      dx2y2   :     0.023430
      dxy     :     0.007351

 25 C s       :     2.899956  s :     2.899956
      pz      :     0.960136  p :     3.040664
      px      :     1.050018
      py      :     1.030510
      dz2     :     0.022250  d :     0.124927
      dxz     :     0.029569
      dyz     :     0.030576
      dx2y2   :     0.032299
      dxy     :     0.010233

 26 H s       :     0.731671  s :     0.731671

 27 H s       :     0.849141  s :     0.849141

 28 H s       :     0.871472  s :     0.871472

 29 H s       :     0.859518  s :     0.859518

 30 H s       :     0.864664  s :     0.864664

 31 H s       :     0.865815  s :     0.865815

 32 H s       :     0.867536  s :     0.867536

 33 H s       :     0.867209  s :     0.867209

 34 H s       :     0.867910  s :     0.867910

 35 H s       :     0.872945  s :     0.872945

 36 H s       :     0.849333  s :     0.849333

 37 H s       :     0.731609  s :     0.731609

 38 H s       :     0.873829  s :     0.873829

 39 H s       :     0.871259  s :     0.871259

 40 H s       :     0.872370  s :     0.872370

 41 H s       :     0.867733  s :     0.867733

 42 H s       :     0.859727  s :     0.859727

 43 H s       :     0.853182  s :     0.853182

 44 H s       :     0.861040  s :     0.861040



                      *****************************
                      * MAYER POPULATION ANALYSIS *
                      *****************************

  NA   - Mulliken gross atomic population
  ZA   - Total nuclear charge
  QA   - Mulliken gross atomic charge
  VA   - Mayer's total valence
  BVA  - Mayer's bonded valence
  FA   - Mayer's free valence

  ATOM       NA         ZA         QA         VA         BVA        FA
  0 O      8.4869     8.0000    -0.4869     2.0343     2.0343     0.0000
  1 C      5.4403     6.0000     0.5597     3.8689     3.8689     0.0000
  2 N      7.6002     7.0000    -0.6002     2.9447     2.9447     0.0000
  3 C      6.0462     6.0000    -0.0462     3.7991     3.7991    -0.0000
  4 C      6.3572     6.0000    -0.3572     3.8150     3.8150     0.0000
  5 C      5.8449     6.0000     0.1551     3.9461     3.9461    -0.0000
  6 C      6.1768     6.0000    -0.1768     3.9419     3.9419    -0.0000
  7 C      6.1289     6.0000    -0.1289     3.9436     3.9436    -0.0000
  8 C      6.1255     6.0000    -0.1255     3.9467     3.9467    -0.0000
  9 C      6.1272     6.0000    -0.1272     3.9458     3.9458    -0.0000
 10 C      6.1786     6.0000    -0.1786     3.9327     3.9327     0.0000
 11 C      5.4347     6.0000     0.5653     3.8723     3.8723    -0.0000
 12 O      8.4904     8.0000    -0.4904     2.0305     2.0305     0.0000
 13 N      7.4790     7.0000    -0.4790     3.0160     3.0160     0.0000
 14 C      6.1674     6.0000    -0.1674     3.7918     3.7918    -0.0000
 15 C      5.7652     6.0000     0.2348     3.7397     3.7397     0.0000
 16 N      7.6963     7.0000    -0.6963     3.0408     3.0408     0.0000
 17 C      5.6896     6.0000     0.3104     3.8155     3.8155     0.0000
 18 C      6.1969     6.0000    -0.1969     3.8839     3.8839     0.0000
 19 C      6.1417     6.0000    -0.1417     3.9426     3.9426    -0.0000
 20 C      6.1503     6.0000    -0.1503     3.9298     3.9298    -0.0000
 21 C      6.2022     6.0000    -0.2022     3.8685     3.8685    -0.0000
 22 C      5.9033     6.0000     0.0967     4.1289     4.1289     0.0000
 23 C      5.9697     6.0000     0.0303     3.9333     3.9333    -0.0000
 24 C      6.3254     6.0000    -0.3254     3.8123     3.8123    -0.0000
 25 C      6.0470     6.0000    -0.0470     3.7940     3.7940    -0.0000
 26 H      0.6536     1.0000     0.3464     0.8647     0.8647     0.0000
 27 H      0.8200     1.0000     0.1800     0.9351     0.9351    -0.0000
 28 H      0.8522     1.0000     0.1478     0.9377     0.9377     0.0000
 29 H      0.8330     1.0000     0.1670     0.9331     0.9331     0.0000
 30 H      0.8621     1.0000     0.1379     0.9395     0.9395    -0.0000
 31 H      0.8656     1.0000     0.1344     0.9359     0.9359     0.0000
 32 H      0.8696     1.0000     0.1304     0.9363     0.9363    -0.0000
 33 H      0.8686     1.0000     0.1314     0.9363     0.9363    -0.0000
 34 H      0.8688     1.0000     0.1312     0.9379     0.9379    -0.0000
 35 H      0.8456     1.0000     0.1544     0.9227     0.9227    -0.0000
 36 H      0.8122     1.0000     0.1878     0.9264     0.9264    -0.0000
 37 H      0.6666     1.0000     0.3334     0.8639     0.8639     0.0000
 38 H      0.8857     1.0000     0.1143     0.9385     0.9385     0.0000
 39 H      0.8804     1.0000     0.1196     0.9402     0.9402     0.0000
 40 H      0.8810     1.0000     0.1190     0.9402     0.9402    -0.0000
 41 H      0.8737     1.0000     0.1263     0.9394     0.9394    -0.0000
 42 H      0.8345     1.0000     0.1655     0.9286     0.9286    -0.0000
 43 H      0.8274     1.0000     0.1726     0.9371     0.9371     0.0000
 44 H      0.8271     1.0000     0.1729     0.9195     0.9195     0.0000

  Mayer bond orders larger than 0.100000
B(  0-O ,  1-C ) :   1.7954 B(  0-O ,  2-N ) :   0.1050 B(  1-C ,  2-N ) :   1.0976 
B(  1-C , 25-C ) :   0.9305 B(  2-N ,  3-C ) :   0.9145 B(  2-N , 26-H ) :   0.8123 
B(  3-C ,  4-C ) :   0.9517 B(  3-C , 11-C ) :   0.9530 B(  3-C , 27-H ) :   0.9146 
B(  4-C ,  5-C ) :   0.9786 B(  4-C , 28-H ) :   0.9280 B(  4-C , 29-H ) :   0.9201 
B(  5-C ,  6-C ) :   1.4309 B(  5-C , 10-C ) :   1.4291 B(  6-C ,  7-C ) :   1.4377 
B(  6-C , 30-H ) :   0.9221 B(  7-C ,  8-C ) :   1.4549 B(  7-C , 31-H ) :   0.9286 
B(  8-C ,  9-C ) :   1.4518 B(  8-C , 32-H ) :   0.9301 B(  9-C , 10-C ) :   1.4426 
B(  9-C , 33-H ) :   0.9292 B( 10-C , 34-H ) :   0.9245 B( 11-C , 12-O ) :   1.7802 
B( 11-C , 13-N ) :   1.0831 B( 13-N , 14-C ) :   0.9201 B( 13-N , 25-C ) :   0.8915 
B( 14-C , 15-C ) :   0.9790 B( 14-C , 35-H ) :   0.9147 B( 14-C , 36-H ) :   0.9077 
B( 15-C , 16-N ) :   1.0360 B( 15-C , 23-C ) :   1.5434 B( 16-N , 17-C ) :   0.9946 
B( 16-N , 37-H ) :   0.8372 B( 17-C , 18-C ) :   1.3595 B( 17-C , 22-C ) :   1.3089 
B( 18-C , 19-C ) :   1.4711 B( 18-C , 21-C ) :   0.1023 B( 18-C , 38-H ) :   0.9235 
B( 19-C , 20-C ) :   1.3877 B( 19-C , 39-H ) :   0.9321 B( 20-C , 21-C ) :   1.4618 
B( 20-C , 40-H ) :   0.9320 B( 21-C , 22-C ) :   1.3512 B( 21-C , 41-H ) :   0.9240 
B( 22-C , 23-C ) :   1.2742 B( 23-C , 24-C ) :   0.9761 B( 24-C , 25-C ) :   0.9755 
B( 24-C , 42-H ) :   0.9217 B( 24-C , 43-H ) :   0.9137 B( 25-C , 44-H ) :   0.8998 


-------
TIMINGS
-------

Total SCF time: 0 days 0 hours 4 min 20 sec 

Total time                  ....     260.082 sec
Sum of individual times     ....     259.598 sec  ( 99.8%)

SCF preparation             ....       0.295 sec  (  0.1%)
Fock matrix formation       ....     257.304 sec  ( 98.9%)
  Startup                   ....       0.210 sec  (  0.1% of F)
  Split-RI-J                ....      31.802 sec  ( 12.4% of F)
  Chain of spheres X        ....     197.268 sec  ( 76.7% of F)
  XC integration            ....      26.822 sec  ( 10.4% of F)
    XC Preparation          ....       0.000 sec  (  0.0% of XC)
    Basis function eval.    ....      10.079 sec  ( 37.6% of XC)
    Density eval.           ....       6.181 sec  ( 23.0% of XC)
    XC-Functional eval.     ....       1.207 sec  (  4.5% of XC)
    XC-Potential eval.      ....       7.592 sec  ( 28.3% of XC)
Diagonalization             ....       0.000 sec  (  0.0%)
Density matrix formation    ....       0.309 sec  (  0.1%)
Total Energy calculation    ....       0.178 sec  (  0.1%)
Population analysis         ....       0.051 sec  (  0.0%)
Orbital Transformation      ....       0.225 sec  (  0.1%)
Orbital Orthonormalization  ....       0.000 sec  (  0.0%)
DIIS solution               ....       0.598 sec  (  0.2%)
SOSCF solution              ....       0.638 sec  (  0.2%)
Finished LeanSCF after 260.2 sec

Maximum memory used throughout the entire LEANSCF-calculation: 65.2 MB

-------------------------   --------------------
FINAL SINGLE POINT ENERGY     -1125.690523815078
-------------------------   --------------------


------------------------------------------------------------------------------
                              ORCA PROPERTY CALCULATIONS
------------------------------------------------------------------------------

GBWName                                 ... /home/nmrbox/aojoawo/Documents/ERDOS/inputs/CHEMBL4649088.gbw
Number of atoms                         ...     45
Number of basis functions               ...    402
Max core memory                         ...   1024 MB

Electric properties:
Dipole moment                           ... YES
Quadrupole moment                       ...  NO
Static polarizability (Dipole/Dipole)   ...  NO
Static polarizability (Dipole/Quad.)    ...  NO
Static polarizability (Quad./Quad.)     ...  NO
Static polarizability (Velocity)        ...  NO

Atomic electric properties:
Dipole moment                           ...  NO
Quadrupole moment                       ...  NO
Static polarizability                   ...  NO

Choice of electric origin               ... Center of mass
Position of electric origin             ...     0.206377     0.191002     0.021992

General magnetic properties:
Magnetizability                         ...  NO

EPR properties:
g-Tensor (aka g-matrix)                 ...  NO
Zero-Field splitting spin-orbit         ...  NO
Zero-field splitting spin-spin          ...  NO
Hyperfine couplings                     ...  NO (   0 nuclei)
Quadrupole couplings                    ...  NO (   0 nuclei)
Contact density                         ...  NO (   0 nuclei)

NMR properties:
Chemical shifts                         ...  NO (   0 nuclei)
Spin-rotation constants                 ...  NO (   0 nuclei)
Spin-spin couplings                     ...  NO (   0 nuclei,    0 pairs)

Choice of magnetic origin               ... GIAO
Position of magnetic origin             ...     0.000000     0.000000     0.000000

Properties with geometric perturbations:
SCF Hessian                             ...  NO
IR spectrum                             ...  NO
VCD spectrum                            ...  NO
X-ray spectroscopy properties:
SCF XES/XAS/RIXS spectra                ...  NO


-------------
DIPOLE MOMENT
-------------

Method             : SCF
Type of density    : Electron Density
Multiplicity       :   1
Irrep              :   0
Energy             : -1125.6905238150777677 Eh
Relativity type    : 
Basis              : AO
                                X                 Y                 Z
Electronic contribution:      4.932044311       3.419318098      -0.862501367
Nuclear contribution   :     -5.334905800      -3.639558686      -0.100982940
                        -----------------------------------------
Total Dipole Moment    :     -0.402861489      -0.220240589      -0.963484306
                        -----------------------------------------
Magnitude (a.u.)       :      1.067288763
Magnitude (Debye)      :      2.712832444



--------------------
Rotational spectrum 
--------------------
 
Rotational constants in cm-1:             0.020624             0.002943             0.002702 
Rotational constants in MHz :           618.283341            88.230222            80.994142 

Dipole components along the rotational axes: 
x,y,z [a.u.] :    -0.316024    -0.735164     0.706236 
x,y,z [Debye]:    -0.803268    -1.868638     1.795108 

 

Dipole moment calculation done in   0.0 sec 

Maximum memory used throughout the entire PROP-calculation: 30.9 MB

--------------------------------
SUGGESTED CITATIONS FOR THIS RUN
--------------------------------

Below you find a list of papers that are relevant to this ORCA run
We neither can nor want to force you to cite these papers, but we appreciate if you do
You receive ORCA, which is the product of decades of hard work by many enthusiastic individuals, for free
The only thing we kindly ask in return is that you cite our papers,
We deeply appreciate it, if you show your appreciation for ORCA by not just citing the generic ORCA reference.

Please note that relegating all ORCA citations to the supporting information does *not* help us.
SI sections are not indexed - citations you put there will not count into any citation statistics
But we need these citations in order to attract the funding resources that allow us to do what we are doing

Therefore, if you are a happy ORCA user, please consider citing a few of the papers listed below in the main body of your paper

In addition to the list printed below, the program has created the file /home/nmrbox/aojoawo/Documents/ERDOS/inputs/CHEMBL4649088.bibtex that contains the list in bibtex format
You can import this file easily into all common literature databanks and citation aid programs


List of essential papers. We consider these as the minimum necessary citations

  1. Neese,F.
     Software update: the ORCA program system, version 5.0
     WIRES Comput. Molec. Sci., 2022 12(1)e1606
     doi.org/10.1002/wcms.1606

List of papers to cite with high priority. The work reported in these papers was absolutely
necessary for this run to complete.
Our perspective: the developers of density functionals and basis sets usually get cited in chemistry papers
Good! But without the algorithms to do something with them, the functionals or basis sets would not do anything.
Hence, in our opinion, the algorithm design and method developments papers are equally worthy of getting cited

  1. Neese,F.
     An improvement of the resolution of the identity approximation for the formation of the Coulomb matrix
     J. Comp. Chem., 2003 24(14)1740-1747
     doi.org/10.1002/jcc.10318
  2. Neese,F.; Wennmohs,F.; Hansen,A.; Becker,U.
     Efficient, approximate and parallel Hartree-Fock and hybrid DFT calculations. A 'chain-of-spheres' algorithm for the Hartree-Fock exchange
     Chem. Phys., 2009 356(1-3)98-109
     doi.org/10.1016/j.chemphys.2008.10.036
  3. Helmich-Paris,B.; de Souza,B.; Neese,F.; Izsák,R.
     An improved chain of spheres for exchange algorithm
     J. Chem. Phys., 2021 155 104109
     doi.org/doi: 10.1063/5.0058766.
  4. Neese,F.
     The SHARK Integral Generation and Digestion System
     J. Comp. Chem., 2022  1-16
     doi.org/10.1002/jcc.26942

List of suggested additional citations. These are papers that are important in the 'surrounding' of 
of this run, or papers that preceded the highly important papers. If you like your results we are grateful for a citation.

  1. Izsak,R.; Neese,F.
     An overlap fitted chain of spheres exchange method
     J. Chem. Phys., 2011 135 144105
     doi.org/10.1063/1.3646921
  2. Izsak,R.; Hansen,A.; Neese,F.
     The resolution of identity and chain of spheres approximations for the LPNO-CCSD singles Fock term
     Molec. Phys., 2012 110 2413-2417
     doi.org/10.1080/00268976.2012.687466
  3. Neese,F.
     The ORCA program system
     WIRES Comput. Molec. Sci., 2012 2(1)73-78
     doi.org/10.1002/wcms.81
  4. Izsak,R.; Neese,F.; Klopper,W.
     Robust fitting techniques in the chain of spheres approximation to the Fock exchange: The role of the complementary space
     J. Chem. Phys., 2013 139 
     doi.org/10.1063/1.4819264
  5. Neese,F.
     Software update: the ORCA program system, version 4.0
     WIRES Comput. Molec. Sci., 2018 8(1)1-6
     doi.org/10.1002/wcms.1327
  6. Neese,F.; Wennmohs,F.; Becker,U.; Riplinger,C.
     The ORCA quantum chemistry program package
     J. Chem. Phys., 2020 152 Art. No. L224108
     doi.org/10.1063/5.0004608

List of optional additional citations

  1. Neese,F.
     Approximate second-order SCF convergence for spin unrestricted wavefunctions
     Chem. Phys. Lett., 2000 325(1-3)93-98
     doi.org/10.1016/s0009-2614(00)00662-x

Timings for individual modules:

Sum of individual times          ...      272.606 sec (=   4.543 min)
Startup calculation              ...        8.309 sec (=   0.138 min)   3.0 %
SCF iterations                   ...      264.151 sec (=   4.403 min)  96.9 %
Property calculations            ...        0.147 sec (=   0.002 min)   0.1 %
                             ****ORCA TERMINATED NORMALLY****
TOTAL RUN TIME: 0 days 0 hours 4 minutes 33 seconds 605 msec
