
                                 *****************
                                 * O   R   C   A *
                                 *****************

                                            #,                                       
                                            ###                                      
                                            ####                                     
                                            #####                                    
                                            ######                                   
                                           ########,                                 
                                     ,,################,,,,,                         
                               ,,#################################,,                 
                          ,,##########################################,,             
                       ,#########################################, ''#####,          
                    ,#############################################,,   '####,        
                  ,##################################################,,,,####,       
                ,###########''''           ''''###############################       
              ,#####''   ,,,,##########,,,,          '''####'''          '####       
            ,##' ,,,,###########################,,,                        '##       
           ' ,,###''''                  '''############,,,                           
         ,,##''                                '''############,,,,        ,,,,,,###''
      ,#''                                            '''#######################'''  
     '                                                          ''''####''''         
             ,#######,   #######,   ,#######,      ##                                
            ,#'     '#,  ##    ##  ,#'     '#,    #''#        ,####,   ,####,        
            ##       ##  ##   ,#'  ##            #'  '#       #'       #'  '#        
            ##       ##  #######   ##           ,######,      #####,   #    #        
            '#,     ,#'  ##    ##  '#,     ,#' ,#      #,     #,   #   #,  ,#        
             '#######'   ##     ##  '#######'  #'      '#     '####' # '####'        



                #########################################################
                #                        -***-                          #
                #          Department of theory and spectroscopy        #
                #                                                       #
                #                      Frank Neese                      #
                #                                                       #
                #     Directorship, Architecture, Infrastructure        #
                #                    SHARK, DRIVERS                     #
                #        Core code/Algorithms in most modules           #
                #                                                       #
                #        Max Planck Institute fuer Kohlenforschung      #
                #                Kaiser Wilhelm Platz 1                 #
                #                 D-45470 Muelheim/Ruhr                 #
                #                      Germany                          #
                #                                                       #
                #                  All rights reserved                  #
                #                        -***-                          #
                #########################################################


                         Program Version 6.0.0  -   RELEASE  -


 With contributions from (in alphabetic order):
   Daniel Aravena         : Magnetic Suceptibility
   Michael Atanasov       : Ab Initio Ligand Field Theory (pilot matlab implementation)
   Alexander A. Auer      : GIAO ZORA, VPT2 properties, NMR spectrum
   Ute Becker             : All parallelization in ORCA, NUMFREQ, NUMCALC
   Giovanni Bistoni       : ED, misc. LED, open-shell LED, HFLD
   Martin Brehm           : Molecular dynamics
   Dmytro Bykov           : pre 5.0 version of the SCF Hessian
   Marcos Casanova-Páez   : Triplet and SCS-CIS(D). UHF-(DLPNO)-IP/EA/STEOM-CCSD. UHF-CVS-IP/STEOM-CCSD
   Vijay G. Chilkuri      : MRCI spin determinant printing, contributions to CSF-ICE
   Pauline Colinet        : FMM embedding
   Dipayan Datta          : RHF DLPNO-CCSD density
   Achintya Kumar Dutta   : EOM-CC, STEOM-CC
   Nicolas Foglia         : Exact transition moments, OPA infrastructure, MCD improvements
   Dmitry Ganyushin       : Spin-Orbit,Spin-Spin,Magnetic field MRCI
   Miquel Garcia          : C-PCM and meta-GGA Hessian, CCSD/C-PCM, Gaussian charge scheme
   Tiago L. C. Gouveia    : GS-ROHF, GS-ROCIS
   Yang Guo               : DLPNO-NEVPT2, F12-NEVPT2, CIM, IAO-localization
   Andreas Hansen         : Spin unrestricted coupled pair/coupled cluster methods
   Ingolf Harden          : AUTO-CI MPn and infrastructure 
   Benjamin Helmich-Paris : MC-RPA, TRAH-(SCF,CASSCF), AVAS, COSX integrals, SCF dyn. polar.
   Lee Huntington         : MR-EOM, pCC
   Robert Izsak           : Overlap fitted RIJCOSX, COSX-SCS-MP3, EOM
   Riya Kayal             : Wick's Theorem for AUTO-CI, AUTO-CI UHF-CCSDT
   Emily Kempfer          : AUTO-CI, RHF CISDT and CCSDT
   Christian Kollmar      : KDIIS, OOCD, Brueckner-CCSD(T), CCSD density, CASPT2, CASPT2-K, improved NEVPT2
   Axel Koslowski         : Symmetry handling
   Simone Kossmann        : Meta GGA functionals, TD-DFT gradient, OOMP2, (MP2 Hessian; deprecated post 5.0)
   Lucas Lang             : DCDCAS
   Marvin Lechner         : AUTO-CI (C++ implementation), FIC-MRCC
   Spencer Leger          : CASSCF response
   Dagmar Lenk            : GEPOL surface, SMD, ORCA-2-JSON
   Dimitrios Liakos       : Extrapolation schemes; Compound Job, initial MDCI parallelization
   Dimitrios Manganas     : Further ROCIS development; embedding schemes. LFT, Crystal Embedding
   Dimitrios Pantazis     : SARC Basis sets
   Anastasios Papadopoulos: AUTO-CI, single reference methods and gradients
   Taras Petrenko         : pre 6.0 DFT Hessian and TD-DFT gradient, (ASA, deprecated), ECA, 1-Electron XAS/XES, NRVS
   Peter Pinski           : DLPNO-MP2, DLPNO-MP2 Gradient
   Christoph Reimann      : Effective Core Potentials
   Marius Retegan         : Local ZFS, SOC
   Christoph Riplinger    : Optimizer, TS searches, QM/MM, DLPNO-CCSD(T), (RO)-DLPNO pert. Triples
   Michael Roemelt        : Original ROCIS implementation
   Masaaki Saitow         : Open-shell DLPNO-CCSD energy and density
   Barbara Sandhoefer     : DKH picture change effects
   Kantharuban Sivalingam : CASSCF convergence/infrastructure, NEVPT2 and variants, FIC-MRCI
   Bernardo de Souza      : ESD, SOC TD-DFT
   Georgi Stoychev        : AutoAux, RI-MP2 NMR, DLPNO-MP2 response, X2C
   Van Anh Tran           : RI-MP2 g-tensors
   Willem Van den Heuvel  : Paramagnetic NMR
   Zikuan Wang            : NOTCH, Electric field optimization 
   Frank Wennmohs         : Technical directorship and infrastructure
   Hang Xu                : AUTO-CI-Response properties 


 We gratefully acknowledge several colleagues who have allowed us to
 interface, adapt or use parts of their codes:
   Stefan Grimme, W. Hujo, H. Kruse, P. Pracht,  : VdW corrections, initial TS optimization,
                  C. Bannwarth, S. Ehlert,         DFT functionals, gCP, sTDA/sTD-DF
                  L. Wittmann, M. Mueller
   Ed Valeev, F. Pavosevic, A. Kumar             : LibInt (2-el integral package), F12 methods
   Garnet Chan, S. Sharma, J. Yang, R. Olivares  : DMRG
   Ulf Ekstrom                                   : XCFun DFT Library
   Mihaly Kallay                                 : mrcc  (arbitrary order and MRCC methods)
   Frank Weinhold                                : gennbo (NPA and NBO analysis)
   Simon Mueller                                 : openCOSMO-RS
   Christopher J. Cramer and Donald G. Truhlar   : smd solvation model
   Lars Goerigk                                  : TD-DFT with DH, B97 family of functionals
   V. Asgeirsson, H. Jonsson                     : NEB implementation
   FAccTs GmbH                                   : IRC, NEB, NEB-TS, DLPNO-Multilevel, CI-OPT
                                                   MM, QMMM, 2- and 3-layer-ONIOM, Crystal-QMMM,
                                                   LR-CPCM, SF, NACMEs, symmetry and pop. for TD-DFT,
                                                   nearIR, NL-DFT gradient (VV10), updates on ESD,
                                                   ML-optimized integration grids, MBIS, APM,
                                                   GOAT, DOCKER, SOLVATOR, interface openCOSMO-RS
   S Lehtola, MJT Oliveira, MAL Marques          : LibXC Library
   Liviu Ungur et al                             : ANISO software


 Your calculation uses the libint2 library for the computation of 2-el integrals
 For citations please refer to: http://libint.valeyev.net

 Your ORCA version has been built with support for libXC version: 6.2.2
 For citations please refer to: https://libxc.gitlab.io

 This ORCA versions uses:
   CBLAS   interface :  Fast vector & matrix operations
   LAPACKE interface :  Fast linear algebra routines
   SCALAPACK package :  Parallel linear algebra routines
   Shared memory     :  Shared parallel matrices
   BLAS/LAPACK       :  OpenBLAS 0.3.27  USE64BITINT DYNAMIC_ARCH NO_AFFINITY SkylakeX SINGLE_THREADED
        Core in use  :  SkylakeX
   Copyright (c) 2011-2014, The OpenBLAS Project


Warning: RI is on but no J-basis has been assigned. Assigning Def2/J (nothing to worry about!)
================================================================================

----- Orbital basis set information -----
Your calculation utilizes the basis: 6-31G*
   H-He, Li-Ne : W. J. Hehre, R. Ditchfield and J.A. Pople, J. Chem. Phys. 56, 2257 (1972).
                 Note: He and Ne are unpublished basis sets taken from the Gaussian program.
                 Note: Li and B from J. D. Dill and J. A. Pople, J. Chem. Phys. 62, 2921 (1975).
   Na - Ar     : M. M. Francl, W. J. Pietro, W. J. Hehre, J. S. Binkley, M. S. Gordon, 
                 D. J. DeFrees and J. A. Pople, J. Chem. Phys. 77, 3654 (1982).
   K - Zn      : V. A. Rassolov, J. A. Pople, M. A. Ratner, and T. L. Windus, J. Chem. Phys. 109, 1223 (1998).

----- AuxJ basis set information -----
Your calculation utilizes the auxiliary basis: def2/J
   F. Weigend, Phys. Chem. Chem. Phys. 8, 1057 (2006).

================================================================================
                                        WARNINGS
                       Please study these warnings very carefully!
================================================================================


================================================================================
                                       INPUT FILE
================================================================================
NAME = /home/nmrbox/aojoawo/Documents/ERDOS/inputs/CHEMBL3682544.inp
|  1> ! B3LYP 6-31G* SP
|  2> 
|  3> * xyz -1 1
|  4> C 1.2148 0.8270 2.0343
|  5> C 0.6155 1.4160 0.7759
|  6> C -0.1463 0.6127 -0.1058
|  7> N -0.3639 -0.7784 0.1559
|  8> C 0.3687 -1.7844 -0.6129
|  9> C 1.8110 -1.7800 -0.2053
| 10> C 2.2694 -2.6201 0.8178
| 11> C 3.5959 -2.5226 1.2391
| 12> C 4.4473 -1.5841 0.6524
| 13> F 5.7325 -1.4839 1.0765
| 14> C 3.9549 -0.7471 -0.3621
| 15> C 4.8302 0.2990 -0.9895
| 16> F 5.9444 -0.2982 -1.5502
| 17> F 5.2334 1.2053 -0.0260
| 18> F 4.1416 0.9780 -1.9799
| 19> N 2.6568 -0.8661 -0.7552
| 20> S -1.6916 -1.2526 1.1656
| 21> O -1.2656 -2.3885 2.0532
| 22> O -2.1101 -0.1025 2.0388
| 23> C -3.0425 -1.7358 0.1484
| 24> C -3.8194 -0.7597 -0.4859
| 25> C -4.8822 -1.1330 -1.3138
| 26> C -5.1791 -2.4912 -1.5231
| 27> C -6.3043 -2.8840 -2.3995
| 28> O -6.5723 -4.0998 -2.5925
| 29> O -7.0830 -1.9156 -3.0226
| 30> C -4.3888 -3.4671 -0.8894
| 31> C -3.3265 -3.0908 -0.0622
| 32> N -0.6635 1.1471 -1.2427
| 33> C -0.4864 2.4466 -1.5816
| 34> C 0.2612 3.2915 -0.7577
| 35> C 0.4555 4.6354 -1.1123
| 36> C 1.2104 5.4751 -0.2930
| 37> C 1.7767 4.9816 0.8822
| 38> C 1.5902 3.6460 1.2485
| 39> C 0.8267 2.7778 0.4366
| 40> H 2.3224 0.8893 1.9840
| 41> H 0.8501 1.3866 2.9211
| 42> H 0.9477 -0.2371 2.1862
| 43> H 0.2847 -1.5600 -1.6983
| 44> H -0.0701 -2.7933 -0.4536
| 45> H 1.6044 -3.3314 1.2916
| 46> H 3.9602 -3.1665 2.0291
| 47> H -3.6000 0.2910 -0.3422
| 48> H -5.4685 -0.3580 -1.7910
| 49> H -4.5890 -4.5214 -1.0346
| 50> H -2.7252 -3.8576 0.4087
| 51> H -0.9258 2.8156 -2.5002
| 52> H 0.0254 5.0349 -2.0233
| 53> H 1.3586 6.5107 -0.5705
| 54> H 2.3635 5.6368 1.5132
| 55> H 2.0499 3.3068 2.1667
| 56> *
| 57> 
| 58>                          ****END OF INPUT****
================================================================================

                       ****************************
                       * Single Point Calculation *
                       ****************************

---------------------------------
CARTESIAN COORDINATES (ANGSTROEM)
---------------------------------
  C      1.214800    0.827000    2.034300
  C      0.615500    1.416000    0.775900
  C     -0.146300    0.612700   -0.105800
  N     -0.363900   -0.778400    0.155900
  C      0.368700   -1.784400   -0.612900
  C      1.811000   -1.780000   -0.205300
  C      2.269400   -2.620100    0.817800
  C      3.595900   -2.522600    1.239100
  C      4.447300   -1.584100    0.652400
  F      5.732500   -1.483900    1.076500
  C      3.954900   -0.747100   -0.362100
  C      4.830200    0.299000   -0.989500
  F      5.944400   -0.298200   -1.550200
  F      5.233400    1.205300   -0.026000
  F      4.141600    0.978000   -1.979900
  N      2.656800   -0.866100   -0.755200
  S     -1.691600   -1.252600    1.165600
  O     -1.265600   -2.388500    2.053200
  O     -2.110100   -0.102500    2.038800
  C     -3.042500   -1.735800    0.148400
  C     -3.819400   -0.759700   -0.485900
  C     -4.882200   -1.133000   -1.313800
  C     -5.179100   -2.491200   -1.523100
  C     -6.304300   -2.884000   -2.399500
  O     -6.572300   -4.099800   -2.592500
  O     -7.083000   -1.915600   -3.022600
  C     -4.388800   -3.467100   -0.889400
  C     -3.326500   -3.090800   -0.062200
  N     -0.663500    1.147100   -1.242700
  C     -0.486400    2.446600   -1.581600
  C      0.261200    3.291500   -0.757700
  C      0.455500    4.635400   -1.112300
  C      1.210400    5.475100   -0.293000
  C      1.776700    4.981600    0.882200
  C      1.590200    3.646000    1.248500
  C      0.826700    2.777800    0.436600
  H      2.322400    0.889300    1.984000
  H      0.850100    1.386600    2.921100
  H      0.947700   -0.237100    2.186200
  H      0.284700   -1.560000   -1.698300
  H     -0.070100   -2.793300   -0.453600
  H      1.604400   -3.331400    1.291600
  H      3.960200   -3.166500    2.029100
  H     -3.600000    0.291000   -0.342200
  H     -5.468500   -0.358000   -1.791000
  H     -4.589000   -4.521400   -1.034600
  H     -2.725200   -3.857600    0.408700
  H     -0.925800    2.815600   -2.500200
  H      0.025400    5.034900   -2.023300
  H      1.358600    6.510700   -0.570500
  H      2.363500    5.636800    1.513200
  H      2.049900    3.306800    2.166700

----------------------------
CARTESIAN COORDINATES (A.U.)
----------------------------
  NO LB      ZA    FRAG     MASS         X           Y           Z
   0 C     6.0000    0    12.011    2.295639    1.562804    3.844270
   1 C     6.0000    0    12.011    1.163126    2.675852    1.466239
   2 C     6.0000    0    12.011   -0.276467    1.157835   -0.199933
   3 N     7.0000    0    14.007   -0.687671   -1.470963    0.294608
   4 C     6.0000    0    12.011    0.696742   -3.372027   -1.158213
   5 C     6.0000    0    12.011    3.422294   -3.363713   -0.387961
   6 C     6.0000    0    12.011    4.288544   -4.951271    1.545418
   7 C     6.0000    0    12.011    6.795266   -4.767023    2.341560
   8 C     6.0000    0    12.011    8.404179   -2.993515    1.232857
   9 F     9.0000    0    18.998   10.832855   -2.804165    2.034290
  10 C     6.0000    0    12.011    7.473678   -1.411814   -0.684270
  11 C     6.0000    0    12.011    9.127755    0.565028   -1.869884
  12 F     9.0000    0    18.998   11.233288   -0.563516   -2.929453
  13 F     9.0000    0    18.998    9.889693    2.277687   -0.049133
  14 F     9.0000    0    18.998    7.826490    1.848152   -3.741469
  15 N     7.0000    0    14.007    5.020624   -1.636692   -1.427121
  16 S    16.0000    0    32.060   -3.196661   -2.367071    2.202665
  17 O     8.0000    0    15.999   -2.391637   -4.513611    3.879986
  18 O     8.0000    0    15.999   -3.987511   -0.193697    3.852774
  19 C     6.0000    0    12.011   -5.749492   -3.280187    0.280435
  20 C     6.0000    0    12.011   -7.217620   -1.435625   -0.918218
  21 C     6.0000    0    12.011   -9.226021   -2.141060   -2.482722
  22 C     6.0000    0    12.011   -9.787081   -4.707686   -2.878242
  23 C     6.0000    0    12.011  -11.913400   -5.449970   -4.534398
  24 O     8.0000    0    15.999  -12.419847   -7.747499   -4.899115
  25 O     8.0000    0    15.999  -13.384930   -3.619959   -5.711886
  26 C     6.0000    0    12.011   -8.293630   -6.551869   -1.680722
  27 C     6.0000    0    12.011   -6.286174   -5.840766   -0.117541
  28 N     7.0000    0    14.007   -1.253833    2.167705   -2.348363
  29 C     6.0000    0    12.011   -0.919163    4.623404   -2.988791
  30 C     6.0000    0    12.011    0.493596    6.220034   -1.431845
  31 C     6.0000    0    12.011    0.860770    8.759637   -2.101942
  32 C     6.0000    0    12.011    2.287325   10.346440   -0.553690
  33 C     6.0000    0    12.011    3.357476    9.413860    1.667116
  34 C     6.0000    0    12.011    3.005042    6.889941    2.359323
  35 C     6.0000    0    12.011    1.562237    5.249281    0.825054
  36 H     1.0000    0     1.008    4.388700    1.680533    3.749217
  37 H     1.0000    0     1.008    1.606456    2.620294    5.520079
  38 H     1.0000    0     1.008    1.790893   -0.448054    4.131319
  39 H     1.0000    0     1.008    0.538005   -2.947973   -3.209322
  40 H     1.0000    0     1.008   -0.132470   -5.278572   -0.857180
  41 H     1.0000    0     1.008    3.031877   -6.295434    2.440770
  42 H     1.0000    0     1.008    7.483693   -5.983818    3.834443
  43 H     1.0000    0     1.008   -6.803014    0.549910   -0.646664
  44 H     1.0000    0     1.008  -10.333967   -0.676522   -3.384500
  45 H     1.0000    0     1.008   -8.671953   -8.544208   -1.955111
  46 H     1.0000    0     1.008   -5.149882   -7.289808    0.772331
  47 H     1.0000    0     1.008   -1.749508    5.320713   -4.724693
  48 H     1.0000    0     1.008    0.047999    9.514582   -3.823483
  49 H     1.0000    0     1.008    2.567382   12.303440   -1.078089
  50 H     1.0000    0     1.008    4.466368   10.652008    2.859534
  51 H     1.0000    0     1.008    3.873750    6.248946    4.094470

--------------------------------
INTERNAL COORDINATES (ANGSTROEM)
--------------------------------
 C      0   0   0     0.000000000000     0.00000000     0.00000000
 C      1   0   0     1.513159624759     0.00000000     0.00000000
 C      2   1   0     1.415282664347   120.68699031     0.00000000
 N      3   2   1     1.432129833500   121.28347590   359.43737227
 C      4   3   2     1.462802857531   119.72802075   255.11091239
 C      5   4   3     1.498794985980   109.69383885    70.97791737
 C      6   5   4     1.400939748883   120.77846515    91.41763517
 C      7   6   5     1.395206862798   119.32160137   184.62075586
 C      8   7   6     1.396381430699   119.98603255     0.72627434
 F      9   8   7     1.357070333476   119.71912440   179.27930955
 C      9   8   7     1.404363560479   119.36065880   359.88153773
 C     11   9   8     1.501368062801   120.84619990   178.30426055
 F     12  11   9     1.382922257396   109.77062461    58.64423742
 F     12  11   9     1.382852913364   109.60136518   298.58334864
 F     12  11   9     1.384233766385   110.53328564   178.68493750
 N      6   5   4     1.361242395755   119.34283199   277.23507877
 S      4   3   2     1.734112747200   119.23221083    86.23288724
 O     17   4   3     1.503189465769   109.47945740   219.36977202
 O     17   4   3     1.503446207884   110.00558683   338.26648612
 C     17   4   3     1.758723653676   109.05426332    98.25746915
 C     20  17   4     1.399528960043   119.79540103   283.52386887
 C     21  20  17     1.397968218523   120.27766309   178.97000641
 C     22  21  20     1.405938597521   120.44235845   359.73089970
 C     23  22  21     1.479338987521   120.35287201   179.99467942
 O     24  23  22     1.259858182495   120.58340683   179.83817671
 O     24  23  22     1.390117210885   120.44055156   359.80760086
 C     23  22  21     1.406602498931   118.98131788   359.85719253
 C     27  23  22     1.397978118570   120.44854363     0.13310058
 N      3   2   1     1.358536274819   120.19866431   180.95684962
 C     29   3   2     1.354591403339   122.47712518   359.73037327
 C     30  29   3     1.396987108029   120.17336672     0.58611026
 C     31  30  29     1.403410438895   120.28020380   179.46491481
 C     32  31  30     1.395070818991   120.19272104   180.45879629
 C     33  32  31     1.394751942103   120.10411347     0.06450678
 C     34  33  32     1.397420945886   120.32135131   359.86222036
 C     35  34  33     1.412757976442   120.58662131   359.96693679
 H      1   2   3     1.110490495232   109.60422117   117.11689767
 H      1   2   3     1.110212812933   109.75376323   237.53890176
 H      1   2   3     1.107576105737   113.11113506   357.18383894
 H      5   4   3     1.111532509646   109.66518348   310.39430993
 H      5   4   3     1.111665930035   110.55754903   192.57429850
 H      7   6   5     1.082893868299   120.82935454     3.79237564
 H      8   7   6     1.082322364178   119.92374777   179.96813100
 H     21  20  17     1.082938844072   120.27037404   359.18732002
 H     22  21  20     1.082632222872   118.78958267   179.88713840
 H     27  23  22     1.082918080928   120.74301503   180.30938639
 H     28  27  23     1.082261862952   119.27036896   180.55426892
 H     30  29   3     1.083078630571   119.07741192   180.16511735
 H     32  31  30     1.083746861587   120.69361373     0.33462329
 H     33  32  31     1.082329362994   119.96279350   179.94650950
 H     34  33  32     1.082488928350   119.80795066   179.85800470
 H     35  34  33     1.081421273140   117.75004811   179.85194835

---------------------------
INTERNAL COORDINATES (A.U.)
---------------------------
 C      0   0   0     0.000000000000     0.00000000     0.00000000
 C      1   0   0     2.859457287701     0.00000000     0.00000000
 C      2   1   0     2.674496637701   120.68699031     0.00000000
 N      3   2   1     2.706333173533   121.28347590   359.43737227
 C      4   3   2     2.764296788650   119.72802075   255.11091239
 C      5   4   3     2.832312054397   109.69383885    70.97791737
 C      6   5   4     2.647392455513   120.77846515    91.41763517
 C      7   6   5     2.636558870857   119.32160137   184.62075586
 C      8   7   6     2.638778482514   119.98603255     0.72627434
 F      9   8   7     2.564491274738   119.71912440   179.27930955
 C      9   8   7     2.653862521763   119.36065880   359.88153773
 C     11   9   8     2.837174464911   120.84619990   178.30426055
 F     12  11   9     2.613344330982   109.77062461    58.64423742
 F     12  11   9     2.613213289754   109.60136518   298.58334864
 F     12  11   9     2.615822723794   110.53328564   178.68493750
 N      6   5   4     2.572375329859   119.34283199   277.23507877
 S      4   3   2     3.276998177549   119.23221083    86.23288724
 O     17   4   3     2.840616417700   109.47945740   219.36977202
 O     17   4   3     2.841101589983   110.00558683   338.26648612
 C     17   4   3     3.323506050697   109.05426332    98.25746915
 C     20  17   4     2.644726450974   119.79540103   283.52386887
 C     21  20  17     2.641777076934   120.27766309   178.97000641
 C     22  21  20     2.656838910424   120.44235845   359.73089970
 C     23  22  21     2.795545545647   120.35287201   179.99467942
 O     24  23  22     2.380786932496   120.58340683   179.83817671
 O     24  23  22     2.626940822624   120.44055156   359.80760086
 C     23  22  21     2.658093502270   118.98131788   359.85719253
 C     27  23  22     2.641795785311   120.44854363     0.13310058
 N      3   2   1     2.567261502406   120.19866431   180.95684962
 C     29   3   2     2.559806775675   122.47712518   359.73037327
 C     30  29   3     2.639923046794   120.17336672     0.58611026
 C     31  30  29     2.652061382998   120.28020380   179.46491481
 C     32  31  30     2.636301785318   120.19272104   180.45879629
 C     33  32  31     2.635699195329   120.10411347     0.06450678
 C     34  33  32     2.640742881529   120.32135131   359.86222036
 C     35  34  33     2.669725668988   120.58662131   359.96693679
 H      1   2   3     2.098522910311   109.60422117   117.11689767
 H      1   2   3     2.097998166813   109.75376323   237.53890176
 H      1   2   3     2.093015512318   113.11113506   357.18383894
 H      5   4   3     2.100492032181   109.66518348   310.39430993
 H      5   4   3     2.100744160177   110.55754903   192.57429850
 H      7   6   5     2.046372843188   120.82935454     3.79237564
 H      8   7   6     2.045292856915   119.92374777   179.96813100
 H     21  20  17     2.046457835081   120.27037404   359.18732002
 H     22  21  20     2.045878404986   118.78958267   179.88713840
 H     27  23  22     2.046418598425   120.74301503   180.30938639
 H     28  27  23     2.045178526166   119.27036896   180.55426892
 H     30  29   3     2.046721993282   119.07741192   180.16511735
 H     32  31  30     2.047984766896   120.69361373     0.33462329
 H     33  32  31     2.045306082761   119.96279350   179.94650950
 H     34  33  32     2.045607617583   119.80795066   179.85800470
 H     35  34  33     2.043590041631   117.75004811   179.85194835

---------------------
BASIS SET INFORMATION
---------------------
There are 6 groups of distinct atoms

 Group   1 Type C   : 10s4p1d contracted to 3s2p1d pattern {631/31/1}
 Group   2 Type N   : 10s4p1d contracted to 3s2p1d pattern {631/31/1}
 Group   3 Type F   : 10s4p1d contracted to 3s2p1d pattern {631/31/1}
 Group   4 Type S   : 16s10p1d contracted to 4s3p1d pattern {6631/631/1}
 Group   5 Type O   : 10s4p1d contracted to 3s2p1d pattern {631/31/1}
 Group   6 Type H   : 4s contracted to 2s pattern {31}

Atom   0C    basis set group =>   1
Atom   1C    basis set group =>   1
Atom   2C    basis set group =>   1
Atom   3N    basis set group =>   2
Atom   4C    basis set group =>   1
Atom   5C    basis set group =>   1
Atom   6C    basis set group =>   1
Atom   7C    basis set group =>   1
Atom   8C    basis set group =>   1
Atom   9F    basis set group =>   3
Atom  10C    basis set group =>   1
Atom  11C    basis set group =>   1
Atom  12F    basis set group =>   3
Atom  13F    basis set group =>   3
Atom  14F    basis set group =>   3
Atom  15N    basis set group =>   2
Atom  16S    basis set group =>   4
Atom  17O    basis set group =>   5
Atom  18O    basis set group =>   5
Atom  19C    basis set group =>   1
Atom  20C    basis set group =>   1
Atom  21C    basis set group =>   1
Atom  22C    basis set group =>   1
Atom  23C    basis set group =>   1
Atom  24O    basis set group =>   5
Atom  25O    basis set group =>   5
Atom  26C    basis set group =>   1
Atom  27C    basis set group =>   1
Atom  28N    basis set group =>   2
Atom  29C    basis set group =>   1
Atom  30C    basis set group =>   1
Atom  31C    basis set group =>   1
Atom  32C    basis set group =>   1
Atom  33C    basis set group =>   1
Atom  34C    basis set group =>   1
Atom  35C    basis set group =>   1
Atom  36H    basis set group =>   6
Atom  37H    basis set group =>   6
Atom  38H    basis set group =>   6
Atom  39H    basis set group =>   6
Atom  40H    basis set group =>   6
Atom  41H    basis set group =>   6
Atom  42H    basis set group =>   6
Atom  43H    basis set group =>   6
Atom  44H    basis set group =>   6
Atom  45H    basis set group =>   6
Atom  46H    basis set group =>   6
Atom  47H    basis set group =>   6
Atom  48H    basis set group =>   6
Atom  49H    basis set group =>   6
Atom  50H    basis set group =>   6
Atom  51H    basis set group =>   6
---------------------------------
AUXILIARY/J BASIS SET INFORMATION
---------------------------------
There are 6 groups of distinct atoms

 Group   1 Type C   : 12s5p4d2f1g contracted to 6s4p3d1f1g pattern {711111/2111/211/2/1}
 Group   2 Type N   : 12s5p4d2f1g contracted to 6s4p3d1f1g pattern {711111/2111/211/2/1}
 Group   3 Type F   : 12s5p4d2f1g contracted to 6s4p3d1f1g pattern {711111/2111/211/2/1}
 Group   4 Type S   : 14s5p5d2f1g contracted to 8s4p3d1f1g pattern {71111111/2111/311/2/1}
 Group   5 Type O   : 12s5p4d2f1g contracted to 6s4p3d1f1g pattern {711111/2111/211/2/1}
 Group   6 Type H   : 5s2p1d contracted to 3s1p1d pattern {311/2/1}

Atom   0C    basis set group =>   1
Atom   1C    basis set group =>   1
Atom   2C    basis set group =>   1
Atom   3N    basis set group =>   2
Atom   4C    basis set group =>   1
Atom   5C    basis set group =>   1
Atom   6C    basis set group =>   1
Atom   7C    basis set group =>   1
Atom   8C    basis set group =>   1
Atom   9F    basis set group =>   3
Atom  10C    basis set group =>   1
Atom  11C    basis set group =>   1
Atom  12F    basis set group =>   3
Atom  13F    basis set group =>   3
Atom  14F    basis set group =>   3
Atom  15N    basis set group =>   2
Atom  16S    basis set group =>   4
Atom  17O    basis set group =>   5
Atom  18O    basis set group =>   5
Atom  19C    basis set group =>   1
Atom  20C    basis set group =>   1
Atom  21C    basis set group =>   1
Atom  22C    basis set group =>   1
Atom  23C    basis set group =>   1
Atom  24O    basis set group =>   5
Atom  25O    basis set group =>   5
Atom  26C    basis set group =>   1
Atom  27C    basis set group =>   1
Atom  28N    basis set group =>   2
Atom  29C    basis set group =>   1
Atom  30C    basis set group =>   1
Atom  31C    basis set group =>   1
Atom  32C    basis set group =>   1
Atom  33C    basis set group =>   1
Atom  34C    basis set group =>   1
Atom  35C    basis set group =>   1
Atom  36H    basis set group =>   6
Atom  37H    basis set group =>   6
Atom  38H    basis set group =>   6
Atom  39H    basis set group =>   6
Atom  40H    basis set group =>   6
Atom  41H    basis set group =>   6
Atom  42H    basis set group =>   6
Atom  43H    basis set group =>   6
Atom  44H    basis set group =>   6
Atom  45H    basis set group =>   6
Atom  46H    basis set group =>   6
Atom  47H    basis set group =>   6
Atom  48H    basis set group =>   6
Atom  49H    basis set group =>   6
Atom  50H    basis set group =>   6
Atom  51H    basis set group =>   6
------------------------------------------------------------------------------
                             ORCA STARTUP CALCULATIONS
                           -- RI-GTO INTEGRALS CHOSEN --
------------------------------------------------------------------------------
------------------------------------------------------------------------------
                   ___                                                        
                  /   \      - P O W E R E D   B Y -                         
                 /     \                                                     
                 |  |  |   _    _      __       _____    __    __             
                 |  |  |  | |  | |    /  \     |  _  \  |  |  /  |          
                  \  \/   | |  | |   /    \    | | | |  |  | /  /          
                 / \  \   | |__| |  /  /\  \   | |_| |  |  |/  /          
                |  |  |   |  __  | /  /__\  \  |    /   |      \           
                |  |  |   | |  | | |   __   |  |    \   |  |\   \          
                \     /   | |  | | |  |  |  |  | |\  \  |  | \   \       
                 \___/    |_|  |_| |__|  |__|  |_| \__\ |__|  \__/        
                                                                              
                      - O R C A' S   B I G   F R I E N D -                    
                                      &                                       
                       - I N T E G R A L  F E E D E R -                       
                                                                              
 v1 FN, 2020, v2 2021, v3 2022-2024                                           
------------------------------------------------------------------------------


----------------------
SHARK INTEGRAL PACKAGE
----------------------

Number of atoms                             ...     52
Number of basis functions                   ...    540
Number of shells                            ...    250
Maximum angular momentum                    ...      2
Integral batch strategy                     ... SHARK/LIBINT Hybrid
RI-J (if used) integral strategy            ... SPLIT-RIJ (Revised 2003 algorithm where possible)
Printlevel                                  ...      1
Contraction scheme used                     ... SEGMENTED contraction
Prescreening option                         ... SCHWARTZ
   Thresh                                   ... 1.000e-10
   Tcut                                     ... 1.000e-11
   Tpresel                                  ... 1.000e-11 
Coulomb Range Separation                    ... NOT USED
Exchange Range Separation                   ... NOT USED
Multipole approximations                    ... NOT USED
Finite Nucleus Model                        ... NOT USED
CABS basis                                  ... NOT available
Auxiliary Coulomb fitting basis             ... AVAILABLE
   # of basis functions in Aux-J            ...   1942
   # of shells in Aux-J                     ...    622
   Maximum angular momentum in Aux-J        ...      4
Auxiliary J/K fitting basis                 ... NOT available
Auxiliary Correlation fitting basis         ... NOT available
Auxiliary 'external' fitting basis          ... NOT available

Checking pre-screening integrals            ... done (  0.0 sec) Dimension = 250
Check shell pair data                       ... done (  0.0 sec)
Shell pair information
Shell pair cut-off parameter TPreSel        ...   1.0e-11
Total number of shell pairs                 ...     31375
Shell pairs after pre-screening             ...     17471
Total number of primitive shell pairs       ...    190870
Primitive shell pairs kept                  ...     53506
          la=0 lb=0:   5240 shell pairs
          la=1 lb=0:   6241 shell pairs
          la=1 lb=1:   1866 shell pairs
          la=2 lb=0:   2359 shell pairs
          la=2 lb=1:   1491 shell pairs
          la=2 lb=2:    274 shell pairs

Calculating one electron integrals          ... done (  0.3 sec)
Calculating RI/J V-Matrix + Cholesky decomp.... done (  0.5 sec)
Calculating Nuclear repulsion               ... done (  0.0 sec) ENN=   4107.815871836407 Eh

Diagonalization of the overlap matrix:
Smallest eigenvalue                        ... 3.550e-04
Time for diagonalization                   ...    0.055 sec
Threshold for overlap eigenvalues          ... 1.000e-07
Number of eigenvalues below threshold      ... 0
Time for construction of square roots      ...    0.050 sec
Total time needed                          ...    0.113 sec

-------------------
DFT GRID GENERATION
-------------------

General Integration Accuracy     IntAcc      ... 4.388
Radial Grid Type                 RadialGrid  ... OptM3 with GC (2021)
Angular Grid (max. ang.)         AngularGrid ... 4 (Lebedev-302)
Angular grid pruning method      GridPruning ... 4 (adaptive)
Weight generation scheme         WeightScheme... mBecke (2022)
Basis function cutoff            BFCut       ... 1.0000e-10
Integration weight cutoff        WCut        ... 1.0000e-14
Partially contracted basis set               ... off
Rotationally invariant grid construction     ... off
Angular grids for H and He will be reduced by one unit

Total number of grid points                  ...   267337
Total number of batches                      ...     4201
Average number of points per batch           ...       63
Average number of grid points per atom       ...     5141

--------------------
COSX GRID GENERATION
--------------------

GRIDX 1
-------
General Integration Accuracy     IntAcc      ... 3.816
Radial Grid Type                 RadialGrid  ... OptM3 with GC (2021)
Angular Grid (max. ang.)         AngularGrid ... 1 (Lebedev-50)
Angular grid pruning method      GridPruning ... 4 (adaptive)
Weight generation scheme         WeightScheme... mBecke (2022)
Basis function cutoff            BFCut       ... 1.0000e-10
Integration weight cutoff        WCut        ... 1.0000e-14
Partially contracted basis set               ... on
Rotationally invariant grid construction     ... off
Angular grids for H and He will be reduced by one unit

Total number of grid points                  ...    34785
Total number of batches                      ...      301
Average number of points per batch           ...      115
Average number of grid points per atom       ...      669
UseSFitting                                  ... on

GRIDX 2
-------
General Integration Accuracy     IntAcc      ... 4.020
Radial Grid Type                 RadialGrid  ... OptM3 with GC (2021)
Angular Grid (max. ang.)         AngularGrid ... 2 (Lebedev-110)
Angular grid pruning method      GridPruning ... 4 (adaptive)
Weight generation scheme         WeightScheme... mBecke (2022)
Basis function cutoff            BFCut       ... 1.0000e-10
Integration weight cutoff        WCut        ... 1.0000e-14
Partially contracted basis set               ... on
Rotationally invariant grid construction     ... off
Angular grids for H and He will be reduced by one unit

Total number of grid points                  ...    74873
Total number of batches                      ...      617
Average number of points per batch           ...      121
Average number of grid points per atom       ...     1440
UseSFitting                                  ... on

GRIDX 3
-------
General Integration Accuracy     IntAcc      ... 4.338
Radial Grid Type                 RadialGrid  ... OptM3 with GC (2021)
Angular Grid (max. ang.)         AngularGrid ... 3 (Lebedev-194)
Angular grid pruning method      GridPruning ... 4 (adaptive)
Weight generation scheme         WeightScheme... mBecke (2022)
Basis function cutoff            BFCut       ... 1.0000e-10
Integration weight cutoff        WCut        ... 1.0000e-14
Partially contracted basis set               ... on
Rotationally invariant grid construction     ... off
Angular grids for H and He will be reduced by one unit

Total number of grid points                  ...   164655
Total number of batches                      ...     1312
Average number of points per batch           ...      125
Average number of grid points per atom       ...     3166
UseSFitting                                  ... on
Initializing property integral containers    ... done (  0.0 sec)

SHARK setup successfully completed in  14.5 seconds

Maximum memory used throughout the entire STARTUP-calculation: 117.6 MB
-------------------------------------------------------------------------------
                                 ORCA GUESS
                   Start orbitals & Density for SCF / CASSCF
-------------------------------------------------------------------------------

------------
SCF SETTINGS
------------
Hamiltonian:
 Density Functional     Method          .... DFT(GTOs)
 Exchange Functional    Exchange        .... B88
   X-Alpha parameter    XAlpha          ....  0.666667
   Becke's b parameter  XBeta           ....  0.004200
 Correlation Functional Correlation     .... LYP
 LDA part of GGA corr.  LDAOpt          .... VWN-5
 Gradients option       PostSCFGGA      .... off
 Hybrid DFT is turned on
   Fraction HF Exchange ScalHFX         ....  0.200000
   Scaling of DF-GGA-X  ScalDFX         ....  0.720000
   Scaling of DF-GGA-C  ScalDFC         ....  0.810000
   Scaling of DF-LDA-C  ScalLDAC        ....  1.000000
   Perturbative correction              ....  0.000000
   NL short-range parameter             ....  4.800000
 RI-approximation to the Coulomb term is turned on
   Number of AuxJ basis functions       .... 1942
   RIJ-COSX (HFX calculated with COS-X)).... on


General Settings:
 Integral files         IntName         .... /home/nmrbox/aojoawo/Documents/ERDOS/inputs/CHEMBL3682544
 Hartree-Fock type      HFTyp           .... RHF
 Total Charge           Charge          ....   -1
 Multiplicity           Mult            ....    1
 Number of Electrons    NEL             ....  266
 Basis Dimension        Dim             ....  540
 Nuclear Repulsion      ENuc            ....   4107.8158718364 Eh

Convergence Acceleration:
 AO-DIIS                CNVDIIS         .... on
   Start iteration      DIISMaxIt       ....    12
   Startup error        DIISStart       ....  0.200000
   # of expansion vecs  DIISMaxEq       ....     5
   Bias factor          DIISBfac        ....   1.050
   Max. coefficient     DIISMaxC        ....  10.000
 MO-DIIS                CNVKDIIS        .... off
 Trust-Rad. Augm. Hess. CNVTRAH         .... auto
   Auto Start mean grad. ratio tolernc. ....  1.125000
   Auto Start start iteration           ....    50
   Auto Start num. interpolation iter.  ....    10
   Max. Number of Micro iterations      ....    24
   Max. Number of Macro iterations      .... Maxiter - #DIIS iter
   Number of Davidson start vectors     ....     2
   Converg. threshold    (grad. norm)   ....   5.000e-05
   Grad. Scal. Fac. for Micro threshold ....   0.100
   Minimum threshold for Micro iter.    ....   1.000e-02
   NR start threshold (gradient norm)   ....   1.000e-04
   Initial trust radius                 ....   0.400
   Minimum AH scaling param. (alpha)    ....   1.000
   Maximum AH scaling param. (alpha)    .... 1000.000
   Quad. conv. algorithm                .... NR
   White noise on init. David. guess    .... on
   Maximum white noise                  ....   0.010
   Pseudo random numbers                .... off
   Inactive MOs                         .... canonical
   Orbital update algorithm             .... Taylor
   Preconditioner                       .... Diag
   Full preconditioner red. dimension   ....   250
 SOSCF                  CNVSOSCF        .... on
   Start iteration      SOSCFMaxIt      ....   150
   Startup grad/error   SOSCFStart      ....  0.003300
   Hessian update       SOSCFHessUp     .... L-BFGS
 Level Shifting         CNVShift        .... on
   Level shift para.    LevelShift      ....    0.2500
   Turn off err/grad.   ShiftErr        ....    0.0010
 Zerner damping         CNVZerner       .... off
 Static damping         CNVDamp         .... on
   Fraction old density DampFac         ....    0.7000
   Max. Damping (<1)    DampMax         ....    0.9800
   Min. Damping (>=0)   DampMin         ....    0.0000
   Turn off err/grad.   DampErr         ....    0.1000

SCF Procedure:
 Maximum # iterations   MaxIter         ....   125
 SCF integral mode      SCFMode         .... Direct
   Integral package                     .... SHARK and LIBINT hybrid scheme
 Reset frequency        DirectResetFreq ....    20
 Integral Threshold     Thresh          ....  1.000e-10 Eh
 Primitive CutOff       TCut            ....  1.000e-11 Eh

Convergence Tolerance:
 Convergence Check Mode ConvCheckMode   .... Total+1el-Energy
 Convergence forced     ConvForced      .... 0
 Energy Change          TolE            ....  1.000e-06 Eh
 1-El. energy change                    ....  1.000e-03 Eh
 Orbital Gradient       TolG            ....  5.000e-05
 Orbital Rotation angle TolX            ....  5.000e-05
 DIIS Error             TolErr          ....  1.000e-06

------------------------------
INITIAL GUESS: MODEL POTENTIAL
------------------------------
Loading Hartree-Fock densities                     ... done
Calculating cut-offs                               ... done
Initializing the effective Hamiltonian             ... done
Setting up the integral package (SHARK)            ... done
Starting the Coulomb interaction                   ... done (   4.2 sec)
Making the grid                                    ... done (   1.7 sec)
Mapping shells                                     ... done
Starting the XC term evaluation                    ... done (   1.4 sec)
  promolecular density results
     # of electrons  =    264.994186267
     EX              =   -245.836538076
     EC              =     -9.408504656
     EX+EC           =   -255.245042731
Transforming the Hamiltonian                       ... done (   0.0 sec)
Diagonalizing the Hamiltonian                      ... done (   0.1 sec)
Back transforming the eigenvectors                 ... done (   0.1 sec)
Now organizing SCF variables                       ... done
                      ------------------
                      INITIAL GUESS DONE (   7.6 sec)
                      ------------------
             **** ENERGY FILE WAS UPDATED (/home/nmrbox/aojoawo/Documents/ERDOS/inputs/CHEMBL3682544.en.tmp) ****
Finished Guess after   7.9 sec
Maximum memory used throughout the entire GUESS-calculation: 66.0 MB

-------------------------------------------------------------------------------------------
                                      ORCA LEAN-SCF
                              memory conserving SCF solver
-------------------------------------------------------------------------------------------

----------------------------------------D-I-I-S--------------------------------------------
Iteration    Energy (Eh)           Delta-E    RMSDP     MaxDP     DIISErr   Damp  Time(sec)
-------------------------------------------------------------------------------------------
               ***  Starting incremental Fock matrix formation  ***
    1    -2184.7619512710034542     0.00e+00  2.65e-03  1.86e-01  3.21e-01  0.700  81.5
Warning: op=0 Small HOMO/LUMO gap (  -0.071) - skipping pre-diagonalization
         Will do a full diagonalization
    2    -2185.2696185098857313    -5.08e-01  1.61e-03  9.65e-02  1.23e-01  0.700  36.2
                               ***Turning on AO-DIIS***
    3    -2185.4498034652660863    -1.80e-01  6.35e-04  1.99e-02  3.53e-02  0.700  35.3
    4    -2185.5619853815123861    -1.12e-01  1.07e-03  2.51e-02  1.65e-02  0.000  32.4
    5    -2185.8148959147383721    -2.53e-01  2.69e-04  1.26e-02  7.28e-03  0.000  34.3
                              *** Initializing SOSCF ***
---------------------------------------S-O-S-C-F--------------------------------------
Iteration    Energy (Eh)           Delta-E    RMSDP     MaxDP     MaxGrad    Time(sec)
--------------------------------------------------------------------------------------
    6    -2185.8164926235822350    -1.60e-03  9.82e-05  3.73e-03  2.36e-03    29.1
               *** Restarting incremental Fock matrix formation ***
    7    -2185.8166188924060407    -1.26e-04  8.74e-05  3.28e-03  1.05e-03    81.9
    8    -2185.8166000595765581     1.88e-05  4.89e-05  2.01e-03  1.41e-03    48.7
    9    -2185.8166986619335148    -9.86e-05  2.02e-05  9.90e-04  2.68e-04    42.9
   10    -2185.8166980206697190     6.41e-07  1.19e-05  7.63e-04  2.77e-04    36.8
                 **** Energy Check signals convergence ****

               *****************************************************
               *                     SUCCESS                       *
               *           SCF CONVERGED AFTER  10 CYCLES          *
               *****************************************************

Recomputing exchange energy using gridx3       ... done (  143.123 sec)
Old exchange energy                            :    -49.669487140 Eh
New exchange energy                            :    -49.669538194 Eh
Exchange energy change after final integration :     -0.000051054 Eh
Total energy after final integration           :  -2185.816749075 Eh
             **** ENERGY FILE WAS UPDATED (/home/nmrbox/aojoawo/Documents/ERDOS/inputs/CHEMBL3682544.en.tmp) ****

----------------
TOTAL SCF ENERGY
----------------

Total Energy       :      -2185.81674907511433 Eh          -59479.09760 eV

Components:
Nuclear Repulsion  :       4107.81587183640659 Eh          111779.35263 eV
Electronic Energy  :      -6293.63256985707631 Eh         -171258.44884 eV
One Electron Energy:     -11200.06921939132553 Eh         -304769.37764 eV
Two Electron Energy:       4906.43664953424923 Eh          133510.92880 eV

Virial components:
Potential Energy   :      -4359.64808400553920 Eh         -118632.05550 eV
Kinetic Energy     :       2173.83133493042442 Eh           59152.95790 eV
Virial Ratio       :          2.00551349773651

DFT components:
N(Alpha)           :      132.999954121065 electrons
N(Beta)            :      132.999954121065 electrons
N(Total)           :      265.999908242130 electrons
E(X)               :     -197.526318267425 Eh       
E(C)               :      -11.079878134061 Eh       
E(XC)              :     -208.606196401486 Eh       

---------------
SCF CONVERGENCE
---------------

  Last Energy change         ...   -6.4126e-07  Tolerance :   1.0000e-06
  Last MAX-Density change    ...    7.6280e-04  Tolerance :   1.0000e-05
  Last RMS-Density change    ...    1.1918e-05  Tolerance :   1.0000e-06
  Last DIIS Error            ...    2.3564e-03  Tolerance :   1.0000e-06
  Last Orbital Gradient      ...    2.7722e-04  Tolerance :   5.0000e-05
  Last Orbital Rotation      ...    5.1398e-04  Tolerance :   5.0000e-05


----------------
ORBITAL ENERGIES
----------------

  NO   OCC          E(Eh)            E(eV) 
   0   2.0000     -89.006336     -2421.9855 
   1   2.0000     -24.670666      -671.3230 
   2   2.0000     -24.668989      -671.2773 
   3   2.0000     -24.668755      -671.2710 
   4   2.0000     -24.662015      -671.0876 
   5   2.0000     -19.041157      -518.1362 
   6   2.0000     -19.038257      -518.0573 
   7   2.0000     -18.905033      -514.4321 
   8   2.0000     -18.881910      -513.8029 
   9   2.0000     -14.295554      -389.0018 
  10   2.0000     -14.289938      -388.8490 
  11   2.0000     -14.260406      -388.0454 
  12   2.0000     -10.386167      -282.6220 
  13   2.0000     -10.244414      -278.7647 
  14   2.0000     -10.200606      -277.5726 
  15   2.0000     -10.187307      -277.2107 
  16   2.0000     -10.183364      -277.1034 
  17   2.0000     -10.166333      -276.6400 
  18   2.0000     -10.166014      -276.6313 
  19   2.0000     -10.156400      -276.3697 
  20   2.0000     -10.155737      -276.3517 
  21   2.0000     -10.139775      -275.9173 
  22   2.0000     -10.139227      -275.9024 
  23   2.0000     -10.135801      -275.8092 
  24   2.0000     -10.134984      -275.7869 
  25   2.0000     -10.134011      -275.7604 
  26   2.0000     -10.133918      -275.7579 
  27   2.0000     -10.132803      -275.7276 
  28   2.0000     -10.116437      -275.2822 
  29   2.0000     -10.111254      -275.1412 
  30   2.0000     -10.093908      -274.6692 
  31   2.0000     -10.090419      -274.5743 
  32   2.0000     -10.090336      -274.5720 
  33   2.0000     -10.072634      -274.0903 
  34   2.0000     -10.071276      -274.0534 
  35   2.0000     -10.069642      -274.0089 
  36   2.0000      -8.042233      -218.8403 
  37   2.0000      -6.007629      -163.4759 
  38   2.0000      -6.005576      -163.4200 
  39   2.0000      -6.004080      -163.3793 
  40   2.0000      -1.227656       -33.4062 
  41   2.0000      -1.182954       -32.1898 
  42   2.0000      -1.155096       -31.4318 
  43   2.0000      -1.148856       -31.2620 
  44   2.0000      -0.996520       -27.1167 
  45   2.0000      -0.903918       -24.5968 
  46   2.0000      -0.886417       -24.1206 
  47   2.0000      -0.875921       -23.8350 
  48   2.0000      -0.840506       -22.8713 
  49   2.0000      -0.814102       -22.1528 
  50   2.0000      -0.798898       -21.7391 
  51   2.0000      -0.764505       -20.8032 
  52   2.0000      -0.756744       -20.5921 
  53   2.0000      -0.753108       -20.4931 
  54   2.0000      -0.738443       -20.0940 
  55   2.0000      -0.710699       -19.3391 
  56   2.0000      -0.694600       -18.9010 
  57   2.0000      -0.682341       -18.5674 
  58   2.0000      -0.675044       -18.3689 
  59   2.0000      -0.661142       -17.9906 
  60   2.0000      -0.642427       -17.4813 
  61   2.0000      -0.641032       -17.4434 
  62   2.0000      -0.626946       -17.0601 
  63   2.0000      -0.594062       -16.1653 
  64   2.0000      -0.586000       -15.9459 
  65   2.0000      -0.579010       -15.7557 
  66   2.0000      -0.576740       -15.6939 
  67   2.0000      -0.543357       -14.7855 
  68   2.0000      -0.529011       -14.3951 
  69   2.0000      -0.520768       -14.1708 
  70   2.0000      -0.518847       -14.1185 
  71   2.0000      -0.515236       -14.0203 
  72   2.0000      -0.502153       -13.6643 
  73   2.0000      -0.499888       -13.6026 
  74   2.0000      -0.491436       -13.3726 
  75   2.0000      -0.470734       -12.8093 
  76   2.0000      -0.465605       -12.6698 
  77   2.0000      -0.457175       -12.4404 
  78   2.0000      -0.442619       -12.0443 
  79   2.0000      -0.435578       -11.8527 
  80   2.0000      -0.428497       -11.6600 
  81   2.0000      -0.423400       -11.5213 
  82   2.0000      -0.418599       -11.3907 
  83   2.0000      -0.409187       -11.1345 
  84   2.0000      -0.398593       -10.8463 
  85   2.0000      -0.394043       -10.7225 
  86   2.0000      -0.389071       -10.5872 
  87   2.0000      -0.388069       -10.5599 
  88   2.0000      -0.384454       -10.4615 
  89   2.0000      -0.381117       -10.3707 
  90   2.0000      -0.370297       -10.0763 
  91   2.0000      -0.366177        -9.9642 
  92   2.0000      -0.362577        -9.8662 
  93   2.0000      -0.362241        -9.8571 
  94   2.0000      -0.358837        -9.7645 
  95   2.0000      -0.356911        -9.7120 
  96   2.0000      -0.350993        -9.5510 
  97   2.0000      -0.344715        -9.3802 
  98   2.0000      -0.338635        -9.2147 
  99   2.0000      -0.338139        -9.2012 
 100   2.0000      -0.333993        -9.0884 
 101   2.0000      -0.332365        -9.0441 
 102   2.0000      -0.329193        -8.9578 
 103   2.0000      -0.326963        -8.8971 
 104   2.0000      -0.321958        -8.7609 
 105   2.0000      -0.315346        -8.5810 
 106   2.0000      -0.315178        -8.5764 
 107   2.0000      -0.303077        -8.2472 
 108   2.0000      -0.291644        -7.9360 
 109   2.0000      -0.287390        -7.8203 
 110   2.0000      -0.285350        -7.7648 
 111   2.0000      -0.271897        -7.3987 
 112   2.0000      -0.246063        -6.6957 
 113   2.0000      -0.245286        -6.6746 
 114   2.0000      -0.242684        -6.6038 
 115   2.0000      -0.229531        -6.2459 
 116   2.0000      -0.225404        -6.1335 
 117   2.0000      -0.217943        -5.9305 
 118   2.0000      -0.216070        -5.8796 
 119   2.0000      -0.212630        -5.7859 
 120   2.0000      -0.211474        -5.7545 
 121   2.0000      -0.202137        -5.5004 
 122   2.0000      -0.196515        -5.3475 
 123   2.0000      -0.187599        -5.1048 
 124   2.0000      -0.183410        -4.9908 
 125   2.0000      -0.181516        -4.9393 
 126   2.0000      -0.178103        -4.8464 
 127   2.0000      -0.155821        -4.2401 
 128   2.0000      -0.147191        -4.0053 
 129   2.0000      -0.127951        -3.4817 
 130   2.0000      -0.058680        -1.5968 
 131   2.0000      -0.036657        -0.9975 
 132   2.0000      -0.019875        -0.5408 
 133   0.0000       0.002920         0.0794 
 134   0.0000       0.005321         0.1448 
 135   0.0000       0.022201         0.6041 
 136   0.0000       0.035496         0.9659 
 137   0.0000       0.069410         1.8887 
 138   0.0000       0.086604         2.3566 
 139   0.0000       0.103180         2.8077 
 140   0.0000       0.119261         3.2453 
 141   0.0000       0.132725         3.6116 
 142   0.0000       0.135895         3.6979 
 143   0.0000       0.149823         4.0769 
*Only the first 10 virtual orbitals were printed.

                    ********************************
                    * MULLIKEN POPULATION ANALYSIS *
                    ********************************

-----------------------
MULLIKEN ATOMIC CHARGES
-----------------------
   0 C :   -0.544622
   1 C :    0.132924
   2 C :    0.328717
   3 N :   -0.624395
   4 C :   -0.197912
   5 C :    0.255572
   6 C :   -0.139039
   7 C :   -0.175749
   8 C :    0.385169
   9 F :   -0.303755
  10 C :    0.010782
  11 C :    0.937256
  12 F :   -0.302839
  13 F :   -0.301152
  14 F :   -0.294616
  15 N :   -0.413610
  16 S :    1.210754
  17 O :   -0.581352
  18 O :   -0.564727
  19 C :   -0.139954
  20 C :   -0.142327
  21 C :   -0.151594
  22 C :    0.105328
  23 C :    0.411054
  24 O :   -0.553264
  25 O :   -0.657256
  26 C :   -0.157428
  27 C :   -0.160275
  28 N :   -0.384897
  29 C :   -0.053037
  30 C :    0.140118
  31 C :   -0.202565
  32 C :   -0.128048
  33 C :   -0.122071
  34 C :   -0.193578
  35 C :    0.120491
  36 H :    0.143052
  37 H :    0.165931
  38 H :    0.194794
  39 H :    0.188655
  40 H :    0.181875
  41 H :    0.180479
  42 H :    0.160316
  43 H :    0.145289
  44 H :    0.152613
  45 H :    0.144196
  46 H :    0.136471
  47 H :    0.148632
  48 H :    0.131548
  49 H :    0.121288
  50 H :    0.123084
  51 H :    0.133671
Sum of atomic charges:   -1.0000000

--------------------------------
MULLIKEN REDUCED ORBITAL CHARGES
--------------------------------
  0 C s       :     3.315065  s :     3.315065
      pz      :     1.037315  p :     3.195429
      px      :     1.044015
      py      :     1.114098
      dz2     :     0.008784  d :     0.034128
      dxz     :     0.004670
      dyz     :     0.007431
      dx2y2   :     0.010480
      dxy     :     0.002764

  1 C s       :     3.176557  s :     3.176557
      pz      :     0.863863  p :     2.650764
      px      :     0.905804
      py      :     0.881097
      dz2     :     0.008355  d :     0.039755
      dxz     :     0.005860
      dyz     :     0.010982
      dx2y2   :     0.007773
      dxy     :     0.006785

  2 C s       :     3.043700  s :     3.043700
      pz      :     0.857280  p :     2.553646
      px      :     0.963279
      py      :     0.733087
      dz2     :     0.016113  d :     0.073937
      dxz     :     0.009744
      dyz     :     0.021606
      dx2y2   :     0.013894
      dxy     :     0.012581

  3 N s       :     3.598596  s :     3.598596
      pz      :     1.508894  p :     3.992630
      px      :     1.357425
      py      :     1.126311
      dz2     :     0.004718  d :     0.033169
      dxz     :     0.005221
      dyz     :     0.006796
      dx2y2   :     0.009019
      dxy     :     0.007415

  4 C s       :     3.245909  s :     3.245909
      pz      :     1.029905  p :     2.897477
      px      :     0.907494
      py      :     0.960078
      dz2     :     0.016452  d :     0.054525
      dxz     :     0.007104
      dyz     :     0.007800
      dx2y2   :     0.011601
      dxy     :     0.011568

  5 C s       :     3.071674  s :     3.071674
      pz      :     0.901261  p :     2.615514
      px      :     0.841977
      py      :     0.872276
      dz2     :     0.009820  d :     0.057241
      dxz     :     0.011356
      dyz     :     0.008855
      dx2y2   :     0.014006
      dxy     :     0.013205

  6 C s       :     3.206028  s :     3.206028
      pz      :     0.948773  p :     2.897605
      px      :     0.949893
      py      :     0.998939
      dz2     :     0.005713  d :     0.035406
      dxz     :     0.008360
      dyz     :     0.005573
      dx2y2   :     0.006527
      dxy     :     0.009233

  7 C s       :     3.202178  s :     3.202178
      pz      :     0.989121  p :     2.938883
      px      :     0.980725
      py      :     0.969038
      dz2     :     0.004390  d :     0.034688
      dxz     :     0.008686
      dyz     :     0.006016
      dx2y2   :     0.006762
      dxy     :     0.008835

  8 C s       :     3.100465  s :     3.100465
      pz      :     0.899354  p :     2.442613
      px      :     0.610126
      py      :     0.933133
      dz2     :     0.011470  d :     0.071753
      dxz     :     0.017872
      dyz     :     0.007001
      dx2y2   :     0.018340
      dxy     :     0.017070

  9 F s       :     3.973974  s :     3.973974
      pz      :     1.866974  p :     5.312463
      px      :     1.538449
      py      :     1.907040
      dz2     :     0.002238  d :     0.017318
      dxz     :     0.005063
      dyz     :     0.000560
      dx2y2   :     0.005427
      dxy     :     0.004030

 10 C s       :     3.120145  s :     3.120145
      pz      :     0.978370  p :     2.814716
      px      :     0.861131
      py      :     0.975215
      dz2     :     0.008547  d :     0.054357
      dxz     :     0.014043
      dyz     :     0.005940
      dx2y2   :     0.009872
      dxy     :     0.015956

 11 C s       :     2.790185  s :     2.790185
      pz      :     0.664455  p :     2.134081
      px      :     0.709812
      py      :     0.759814
      dz2     :     0.022895  d :     0.138478
      dxz     :     0.031047
      dyz     :     0.033166
      dx2y2   :     0.021011
      dxy     :     0.030359

 12 F s       :     3.978439  s :     3.978439
      pz      :     1.835601  p :     5.308004
      px      :     1.636429
      py      :     1.835974
      dz2     :     0.002088  d :     0.016395
      dxz     :     0.004271
      dyz     :     0.001863
      dx2y2   :     0.003476
      dxy     :     0.004697

 13 F s       :     3.978301  s :     3.978301
      pz      :     1.706487  p :     5.306465
      px      :     1.871467
      py      :     1.728512
      dz2     :     0.003287  d :     0.016386
      dxz     :     0.002513
      dyz     :     0.005718
      dx2y2   :     0.002270
      dxy     :     0.002598

 14 F s       :     3.983072  s :     3.983072
      pz      :     1.687649  p :     5.294759
      px      :     1.802380
      py      :     1.804731
      dz2     :     0.003314  d :     0.016784
      dxz     :     0.004481
      dyz     :     0.004286
      dx2y2   :     0.001982
      dxy     :     0.002722

 15 N s       :     3.727105  s :     3.727105
      pz      :     1.354121  p :     3.650375
      px      :     1.046034
      py      :     1.250220
      dz2     :     0.005588  d :     0.036130
      dxz     :     0.009077
      dyz     :     0.005652
      dx2y2   :     0.008938
      dxy     :     0.006876

 16 S s       :     5.224024  s :     5.224024
      pz      :     3.038775  p :     9.033139
      px      :     3.042784
      py      :     2.951581
      dz2     :     0.081155  d :     0.532083
      dxz     :     0.124601
      dyz     :     0.120551
      dx2y2   :     0.109330
      dxy     :     0.096446

 17 O s       :     3.921793  s :     3.921793
      pz      :     1.475639  p :     4.633612
      px      :     1.683929
      py      :     1.474044
      dz2     :     0.005770  d :     0.025946
      dxz     :     0.003539
      dyz     :     0.007453
      dx2y2   :     0.004589
      dxy     :     0.004595

 18 O s       :     3.925327  s :     3.925327
      pz      :     1.480949  p :     4.612868
      px      :     1.665069
      py      :     1.466850
      dz2     :     0.005727  d :     0.026532
      dxz     :     0.003698
      dyz     :     0.007298
      dx2y2   :     0.004857
      dxy     :     0.004952

 19 C s       :     3.208915  s :     3.208915
      pz      :     1.030311  p :     2.892414
      px      :     0.894682
      py      :     0.967420
      dz2     :     0.003694  d :     0.038625
      dxz     :     0.006326
      dyz     :     0.008888
      dx2y2   :     0.010168
      dxy     :     0.009550

 20 C s       :     3.197624  s :     3.197624
      pz      :     0.962716  p :     2.908197
      px      :     0.959580
      py      :     0.985901
      dz2     :     0.006976  d :     0.036506
      dxz     :     0.005027
      dyz     :     0.005999
      dx2y2   :     0.010060
      dxy     :     0.008445

 21 C s       :     3.220086  s :     3.220086
      pz      :     0.934627  p :     2.895957
      px      :     0.927962
      py      :     1.033368
      dz2     :     0.004552  d :     0.035552
      dxz     :     0.005010
      dyz     :     0.007612
      dx2y2   :     0.008424
      dxy     :     0.009953

 22 C s       :     3.210307  s :     3.210307
      pz      :     0.901799  p :     2.644388
      px      :     0.918781
      py      :     0.823809
      dz2     :     0.005786  d :     0.039977
      dxz     :     0.005544
      dyz     :     0.008343
      dx2y2   :     0.010042
      dxy     :     0.010263

 23 C s       :     3.003032  s :     3.003032
      pz      :     0.847528  p :     2.473510
      px      :     0.837804
      py      :     0.788178
      dz2     :     0.010285  d :     0.112405
      dxz     :     0.009904
      dyz     :     0.029147
      dx2y2   :     0.030151
      dxy     :     0.032918

 24 O s       :     3.842829  s :     3.842829
      pz      :     1.606420  p :     4.687468
      px      :     1.667653
      py      :     1.413395
      dz2     :     0.002611  d :     0.022967
      dxz     :     0.000789
      dyz     :     0.006621
      dx2y2   :     0.006484
      dxy     :     0.006462

 25 O s       :     3.910547  s :     3.910547
      pz      :     1.550938  p :     4.729615
      px      :     1.551173
      py      :     1.627504
      dz2     :     0.002651  d :     0.017095
      dxz     :     0.002832
      dyz     :     0.003924
      dx2y2   :     0.002704
      dxy     :     0.004985

 26 C s       :     3.214461  s :     3.214461
      pz      :     0.955532  p :     2.907634
      px      :     0.944860
      py      :     1.007241
      dz2     :     0.005934  d :     0.035333
      dxz     :     0.005320
      dyz     :     0.005489
      dx2y2   :     0.011065
      dxy     :     0.007525

 27 C s       :     3.202496  s :     3.202496
      pz      :     0.989512  p :     2.921037
      px      :     0.997989
      py      :     0.933535
      dz2     :     0.004928  d :     0.036742
      dxz     :     0.004874
      dyz     :     0.008371
      dx2y2   :     0.007904
      dxy     :     0.010663

 28 N s       :     3.688248  s :     3.688248
      pz      :     1.226792  p :     3.661413
      px      :     1.239528
      py      :     1.195092
      dz2     :     0.009146  d :     0.035237
      dxz     :     0.006413
      dyz     :     0.005660
      dx2y2   :     0.007053
      dxy     :     0.006965

 29 C s       :     3.161159  s :     3.161159
      pz      :     0.960944  p :     2.838118
      px      :     0.962864
      py      :     0.914310
      dz2     :     0.009779  d :     0.053760
      dxz     :     0.005453
      dyz     :     0.016701
      dx2y2   :     0.010255
      dxy     :     0.011571

 30 C s       :     3.137923  s :     3.137923
      pz      :     0.878601  p :     2.680161
      px      :     0.930994
      py      :     0.870566
      dz2     :     0.008768  d :     0.041797
      dxz     :     0.006121
      dyz     :     0.011224
      dx2y2   :     0.007640
      dxy     :     0.008044

 31 C s       :     3.209399  s :     3.209399
      pz      :     0.981168  p :     2.956809
      px      :     0.981921
      py      :     0.993720
      dz2     :     0.007260  d :     0.036356
      dxz     :     0.005161
      dyz     :     0.009954
      dx2y2   :     0.007058
      dxy     :     0.006923

 32 C s       :     3.189908  s :     3.189908
      pz      :     0.947463  p :     2.901710
      px      :     0.979392
      py      :     0.974854
      dz2     :     0.008894  d :     0.036430
      dxz     :     0.005839
      dyz     :     0.008687
      dx2y2   :     0.008414
      dxy     :     0.004595

 33 C s       :     3.192367  s :     3.192367
      pz      :     0.949264  p :     2.893133
      px      :     0.977940
      py      :     0.965930
      dz2     :     0.006806  d :     0.036571
      dxz     :     0.006055
      dyz     :     0.010872
      dx2y2   :     0.005108
      dxy     :     0.007730

 34 C s       :     3.207313  s :     3.207313
      pz      :     0.992225  p :     2.950617
      px      :     0.998856
      py      :     0.959536
      dz2     :     0.006958  d :     0.035649
      dxz     :     0.005566
      dyz     :     0.009618
      dx2y2   :     0.006374
      dxy     :     0.007132

 35 C s       :     3.135665  s :     3.135665
      pz      :     0.884959  p :     2.702515
      px      :     0.930446
      py      :     0.887109
      dz2     :     0.008806  d :     0.041330
      dxz     :     0.005928
      dyz     :     0.010884
      dx2y2   :     0.007834
      dxy     :     0.007878

 36 H s       :     0.856948  s :     0.856948

 37 H s       :     0.834069  s :     0.834069

 38 H s       :     0.805206  s :     0.805206

 39 H s       :     0.811345  s :     0.811345

 40 H s       :     0.818125  s :     0.818125

 41 H s       :     0.819521  s :     0.819521

 42 H s       :     0.839684  s :     0.839684

 43 H s       :     0.854711  s :     0.854711

 44 H s       :     0.847387  s :     0.847387

 45 H s       :     0.855804  s :     0.855804

 46 H s       :     0.863529  s :     0.863529

 47 H s       :     0.851368  s :     0.851368

 48 H s       :     0.868452  s :     0.868452

 49 H s       :     0.878712  s :     0.878712

 50 H s       :     0.876916  s :     0.876916

 51 H s       :     0.866329  s :     0.866329



                     *******************************
                     * LOEWDIN POPULATION ANALYSIS *
                     *******************************

----------------------
LOEWDIN ATOMIC CHARGES
----------------------
   0 C :   -0.361172
   1 C :    0.004135
   2 C :    0.038545
   3 N :   -0.287950
   4 C :   -0.146180
   5 C :    0.022226
   6 C :   -0.110444
   7 C :   -0.130711
   8 C :    0.112574
   9 F :   -0.096857
  10 C :   -0.053472
  11 C :    0.310307
  12 F :   -0.113072
  13 F :   -0.112242
  14 F :   -0.099608
  15 N :   -0.105007
  16 S :    1.262716
  17 O :   -0.600694
  18 O :   -0.583917
  19 C :   -0.215497
  20 C :   -0.117273
  21 C :   -0.105388
  22 C :   -0.002781
  23 C :    0.071648
  24 O :   -0.378735
  25 O :   -0.505271
  26 C :   -0.116516
  27 C :   -0.130355
  28 N :   -0.121377
  29 C :   -0.061411
  30 C :   -0.026812
  31 C :   -0.113367
  32 C :   -0.134019
  33 C :   -0.125412
  34 C :   -0.121061
  35 C :   -0.005095
  36 H :    0.126577
  37 H :    0.140134
  38 H :    0.150034
  39 H :    0.146795
  40 H :    0.150726
  41 H :    0.157543
  42 H :    0.151216
  43 H :    0.140308
  44 H :    0.150693
  45 H :    0.145419
  46 H :    0.135742
  47 H :    0.135332
  48 H :    0.133687
  49 H :    0.128607
  50 H :    0.129772
  51 H :    0.136963

-------------------------------
LOEWDIN REDUCED ORBITAL CHARGES
-------------------------------
  0 C s       :     2.972992  s :     2.972992
      pz      :     1.076338  p :     3.321900
      px      :     1.104785
      py      :     1.140777
      dz2     :     0.017763  d :     0.066281
      dxz     :     0.009435
      dyz     :     0.014596
      dx2y2   :     0.019627
      dxy     :     0.004859

  1 C s       :     2.889301  s :     2.889301
      pz      :     1.010487  p :     3.009433
      px      :     0.961714
      py      :     1.037232
      dz2     :     0.019718  d :     0.097131
      dxz     :     0.014117
      dyz     :     0.028137
      dx2y2   :     0.018262
      dxy     :     0.016897

  2 C s       :     2.846544  s :     2.846544
      pz      :     1.009112  p :     2.937391
      px      :     0.999039
      py      :     0.929240
      dz2     :     0.038159  d :     0.177520
      dxz     :     0.023557
      dyz     :     0.053190
      dx2y2   :     0.033729
      dxy     :     0.028885

  3 N s       :     3.173708  s :     3.173708
      pz      :     1.504782  p :     4.029477
      px      :     1.367821
      py      :     1.156873
      dz2     :     0.010910  d :     0.084765
      dxz     :     0.013388
      dyz     :     0.017600
      dx2y2   :     0.022932
      dxy     :     0.019935

  4 C s       :     2.921275  s :     2.921275
      pz      :     1.077162  p :     3.107735
      px      :     0.999798
      py      :     1.030775
      dz2     :     0.033844  d :     0.117170
      dxz     :     0.015884
      dyz     :     0.016143
      dx2y2   :     0.026403
      dxy     :     0.024896

  5 C s       :     2.875721  s :     2.875721
      pz      :     0.984210  p :     2.963288
      px      :     1.008364
      py      :     0.970714
      dz2     :     0.022511  d :     0.138765
      dxz     :     0.026223
      dyz     :     0.023781
      dx2y2   :     0.034369
      dxy     :     0.031881

  6 C s       :     2.928010  s :     2.928010
      pz      :     1.012734  p :     3.098010
      px      :     1.057229
      py      :     1.028046
      dz2     :     0.013023  d :     0.084425
      dxz     :     0.021119
      dyz     :     0.012726
      dx2y2   :     0.017070
      dxy     :     0.020486

  7 C s       :     2.923708  s :     2.923708
      pz      :     1.033160  p :     3.124918
      px      :     1.066236
      py      :     1.025522
      dz2     :     0.009713  d :     0.082086
      dxz     :     0.020536
      dyz     :     0.011526
      dx2y2   :     0.017829
      dxy     :     0.022482

  8 C s       :     2.871621  s :     2.871621
      pz      :     1.000944  p :     2.837260
      px      :     0.802217
      py      :     1.034099
      dz2     :     0.027260  d :     0.178545
      dxz     :     0.045412
      dyz     :     0.017281
      dx2y2   :     0.045693
      dxy     :     0.042898

  9 F s       :     3.736318  s :     3.736318
      pz      :     1.865502  p :     5.325510
      px      :     1.556014
      py      :     1.903994
      dz2     :     0.004459  d :     0.035028
      dxz     :     0.010326
      dyz     :     0.001060
      dx2y2   :     0.011135
      dxy     :     0.008047

 10 C s       :     2.883710  s :     2.883710
      pz      :     1.020127  p :     3.035456
      px      :     1.001685
      py      :     1.013644
      dz2     :     0.019708  d :     0.134306
      dxz     :     0.035511
      dyz     :     0.014677
      dx2y2   :     0.025303
      dxy     :     0.039108

 11 C s       :     2.848951  s :     2.848951
      pz      :     0.803978  p :     2.510396
      px      :     0.836996
      py      :     0.869422
      dz2     :     0.048949  d :     0.330346
      dxz     :     0.076394
      dyz     :     0.084377
      dx2y2   :     0.044762
      dxy     :     0.075863

 12 F s       :     3.760449  s :     3.760449
      pz      :     1.835740  p :     5.321412
      px      :     1.652106
      py      :     1.833566
      dz2     :     0.003485  d :     0.031211
      dxz     :     0.008348
      dyz     :     0.003417
      dx2y2   :     0.006943
      dxy     :     0.009018

 13 F s       :     3.760687  s :     3.760687
      pz      :     1.713888  p :     5.320335
      px      :     1.870350
      py      :     1.736097
      dz2     :     0.005771  d :     0.031220
      dxz     :     0.004714
      dyz     :     0.011970
      dx2y2   :     0.003764
      dxy     :     0.005002

 14 F s       :     3.759162  s :     3.759162
      pz      :     1.696719  p :     5.308909
      px      :     1.805235
      py      :     1.806954
      dz2     :     0.005512  d :     0.031537
      dxz     :     0.008727
      dyz     :     0.008734
      dx2y2   :     0.003362
      dxy     :     0.005202

 15 N s       :     3.242611  s :     3.242611
      pz      :     1.353526  p :     3.781836
      px      :     1.147128
      py      :     1.281182
      dz2     :     0.009776  d :     0.080560
      dxz     :     0.020608
      dyz     :     0.009605
      dx2y2   :     0.022368
      dxy     :     0.018203

 16 S s       :     5.106962  s :     5.106962
      pz      :     2.994269  p :     8.956034
      px      :     3.005105
      py      :     2.956661
      dz2     :     0.092023  d :     0.674288
      dxz     :     0.162649
      dyz     :     0.160943
      dx2y2   :     0.138706
      dxy     :     0.119967

 17 O s       :     3.707197  s :     3.707197
      pz      :     1.554090  p :     4.839150
      px      :     1.716500
      py      :     1.568560
      dz2     :     0.008186  d :     0.054347
      dxz     :     0.006353
      dyz     :     0.020822
      dx2y2   :     0.009878
      dxy     :     0.009109

 18 O s       :     3.709331  s :     3.709331
      pz      :     1.554619  p :     4.819555
      px      :     1.701831
      py      :     1.563105
      dz2     :     0.008012  d :     0.055030
      dxz     :     0.006440
      dyz     :     0.020647
      dx2y2   :     0.010264
      dxy     :     0.009668

 19 C s       :     2.925333  s :     2.925333
      pz      :     1.072399  p :     3.191037
      px      :     1.021118
      py      :     1.097520
      dz2     :     0.008778  d :     0.099127
      dxz     :     0.015515
      dyz     :     0.021611
      dx2y2   :     0.027856
      dxy     :     0.025367

 20 C s       :     2.917073  s :     2.917073
      pz      :     1.004965  p :     3.113225
      px      :     1.034335
      py      :     1.073925
      dz2     :     0.014396  d :     0.086975
      dxz     :     0.014103
      dyz     :     0.014432
      dx2y2   :     0.022890
      dxy     :     0.021154

 21 C s       :     2.923839  s :     2.923839
      pz      :     0.991011  p :     3.097839
      px      :     1.019968
      py      :     1.086861
      dz2     :     0.009444  d :     0.083709
      dxz     :     0.012015
      dyz     :     0.017415
      dx2y2   :     0.021113
      dxy     :     0.023721

 22 C s       :     2.902577  s :     2.902577
      pz      :     0.947672  p :     2.998132
      px      :     0.995789
      py      :     1.054671
      dz2     :     0.012826  d :     0.102072
      dxz     :     0.014139
      dyz     :     0.020839
      dx2y2   :     0.027202
      dxy     :     0.027065

 23 C s       :     2.864044  s :     2.864044
      pz      :     0.893646  p :     2.796756
      px      :     0.920300
      py      :     0.982810
      dz2     :     0.024020  d :     0.267552
      dxz     :     0.023735
      dyz     :     0.066991
      dx2y2   :     0.073910
      dxy     :     0.078896

 24 O s       :     3.584727  s :     3.584727
      pz      :     1.597715  p :     4.746459
      px      :     1.662906
      py      :     1.485837
      dz2     :     0.006087  d :     0.047550
      dxz     :     0.001128
      dyz     :     0.011781
      dx2y2   :     0.016106
      dxy     :     0.012448

 25 O s       :     3.676825  s :     3.676825
      pz      :     1.564899  p :     4.794765
      px      :     1.576335
      py      :     1.653531
      dz2     :     0.004172  d :     0.033681
      dxz     :     0.005778
      dyz     :     0.008163
      dx2y2   :     0.004733
      dxy     :     0.010835

 26 C s       :     2.921582  s :     2.921582
      pz      :     0.997949  p :     3.111418
      px      :     1.020530
      py      :     1.092939
      dz2     :     0.012097  d :     0.083515
      dxz     :     0.014839
      dyz     :     0.012836
      dx2y2   :     0.025161
      dxy     :     0.018581

 27 C s       :     2.917806  s :     2.917806
      pz      :     1.018848  p :     3.125194
      px      :     1.050665
      py      :     1.055681
      dz2     :     0.010577  d :     0.087355
      dxz     :     0.010675
      dyz     :     0.019836
      dx2y2   :     0.020316
      dxy     :     0.025951

 28 N s       :     3.238005  s :     3.238005
      pz      :     1.287478  p :     3.804032
      px      :     1.236706
      py      :     1.279848
      dz2     :     0.020609  d :     0.079340
      dxz     :     0.012571
      dyz     :     0.015925
      dx2y2   :     0.015591
      dxy     :     0.014644

 29 C s       :     2.911748  s :     2.911748
      pz      :     1.039116  p :     3.026229
      px      :     0.981972
      py      :     1.005142
      dz2     :     0.021487  d :     0.123435
      dxz     :     0.010076
      dyz     :     0.039746
      dx2y2   :     0.025191
      dxy     :     0.026935

 30 C s       :     2.858653  s :     2.858653
      pz      :     1.029203  p :     3.059426
      px      :     0.987200
      py      :     1.043023
      dz2     :     0.022423  d :     0.108733
      dxz     :     0.015212
      dyz     :     0.031124
      dx2y2   :     0.020117
      dxy     :     0.019856

 31 C s       :     2.915828  s :     2.915828
      pz      :     1.050115  p :     3.112791
      px      :     1.006921
      py      :     1.055755
      dz2     :     0.016072  d :     0.084748
      dxz     :     0.010273
      dyz     :     0.024067
      dx2y2   :     0.017009
      dxy     :     0.017328

 32 C s       :     2.916100  s :     2.916100
      pz      :     1.050797  p :     3.131858
      px      :     1.014683
      py      :     1.066378
      dz2     :     0.021569  d :     0.086061
      dxz     :     0.015408
      dyz     :     0.021563
      dx2y2   :     0.016859
      dxy     :     0.010662

 33 C s       :     2.917122  s :     2.917122
      pz      :     1.047057  p :     3.122123
      px      :     1.006029
      py      :     1.069038
      dz2     :     0.016781  d :     0.086167
      dxz     :     0.012529
      dyz     :     0.027185
      dx2y2   :     0.013038
      dxy     :     0.016634

 34 C s       :     2.916995  s :     2.916995
      pz      :     1.052010  p :     3.121392
      px      :     1.011686
      py      :     1.057697
      dz2     :     0.015671  d :     0.082674
      dxz     :     0.010466
      dyz     :     0.022894
      dx2y2   :     0.016721
      dxy     :     0.016923

 35 C s       :     2.855884  s :     2.855884
      pz      :     1.022308  p :     3.043465
      px      :     0.987179
      py      :     1.033978
      dz2     :     0.022226  d :     0.105746
      dxz     :     0.014803
      dyz     :     0.029897
      dx2y2   :     0.019749
      dxy     :     0.019071

 36 H s       :     0.873423  s :     0.873423

 37 H s       :     0.859866  s :     0.859866

 38 H s       :     0.849966  s :     0.849966

 39 H s       :     0.853205  s :     0.853205

 40 H s       :     0.849274  s :     0.849274

 41 H s       :     0.842457  s :     0.842457

 42 H s       :     0.848784  s :     0.848784

 43 H s       :     0.859692  s :     0.859692

 44 H s       :     0.849307  s :     0.849307

 45 H s       :     0.854581  s :     0.854581

 46 H s       :     0.864258  s :     0.864258

 47 H s       :     0.864668  s :     0.864668

 48 H s       :     0.866313  s :     0.866313

 49 H s       :     0.871393  s :     0.871393

 50 H s       :     0.870228  s :     0.870228

 51 H s       :     0.863037  s :     0.863037



                      *****************************
                      * MAYER POPULATION ANALYSIS *
                      *****************************

  NA   - Mulliken gross atomic population
  ZA   - Total nuclear charge
  QA   - Mulliken gross atomic charge
  VA   - Mayer's total valence
  BVA  - Mayer's bonded valence
  FA   - Mayer's free valence

  ATOM       NA         ZA         QA         VA         BVA        FA
  0 C      6.5446     6.0000    -0.5446     3.8312     3.8312    -0.0000
  1 C      5.8671     6.0000     0.1329     3.8794     3.8794    -0.0000
  2 C      5.6713     6.0000     0.3287     3.8781     3.8781     0.0000
  3 N      7.6244     7.0000    -0.6244     2.7813     2.7813     0.0000
  4 C      6.1979     6.0000    -0.1979     3.8038     3.8038     0.0000
  5 C      5.7444     6.0000     0.2556     3.8886     3.8886    -0.0000
  6 C      6.1390     6.0000    -0.1390     3.8964     3.8964     0.0000
  7 C      6.1757     6.0000    -0.1757     3.8673     3.8673     0.0000
  8 C      5.6148     6.0000     0.3852     3.8090     3.8090     0.0000
  9 F      9.3038     9.0000    -0.3038     1.0652     1.0652     0.0000
 10 C      5.9892     6.0000     0.0108     3.8349     3.8349     0.0000
 11 C      5.0627     6.0000     0.9373     3.8845     3.8845     0.0000
 12 F      9.3028     9.0000    -0.3028     1.0524     1.0524     0.0000
 13 F      9.3012     9.0000    -0.3012     1.0547     1.0547     0.0000
 14 F      9.2946     9.0000    -0.2946     1.0752     1.0752    -0.0000
 15 N      7.4136     7.0000    -0.4136     2.9665     2.9665    -0.0000
 16 S     14.7892    16.0000     1.2108     5.0574     5.0574     0.0000
 17 O      8.5814     8.0000    -0.5814     1.8538     1.8538     0.0000
 18 O      8.5647     8.0000    -0.5647     1.8683     1.8683    -0.0000
 19 C      6.1400     6.0000    -0.1400     3.7988     3.7988     0.0000
 20 C      6.1423     6.0000    -0.1423     3.8969     3.8969    -0.0000
 21 C      6.1516     6.0000    -0.1516     3.8768     3.8768    -0.0000
 22 C      5.8947     6.0000     0.1053     3.8393     3.8393     0.0000
 23 C      5.5889     6.0000     0.4111     4.2070     4.2070     0.0000
 24 O      8.5533     8.0000    -0.5533     1.9550     1.9550     0.0000
 25 O      8.6573     8.0000    -0.6573     1.8371     1.8371    -0.0000
 26 C      6.1574     6.0000    -0.1574     3.8752     3.8752     0.0000
 27 C      6.1603     6.0000    -0.1603     3.9045     3.9045    -0.0000
 28 N      7.3849     7.0000    -0.3849     2.9672     2.9672     0.0000
 29 C      6.0530     6.0000    -0.0530     3.8640     3.8640     0.0000
 30 C      5.8599     6.0000     0.1401     3.9612     3.9612     0.0000
 31 C      6.2026     6.0000    -0.2026     3.9029     3.9029     0.0000
 32 C      6.1280     6.0000    -0.1280     3.9283     3.9283    -0.0000
 33 C      6.1221     6.0000    -0.1221     3.9279     3.9279     0.0000
 34 C      6.1936     6.0000    -0.1936     3.8745     3.8745     0.0000
 35 C      5.8795     6.0000     0.1205     4.0003     4.0003    -0.0000
 36 H      0.8569     1.0000     0.1431     0.9343     0.9343     0.0000
 37 H      0.8341     1.0000     0.1659     0.9309     0.9309     0.0000
 38 H      0.8052     1.0000     0.1948     0.9369     0.9369    -0.0000
 39 H      0.8113     1.0000     0.1887     0.9276     0.9276    -0.0000
 40 H      0.8181     1.0000     0.1819     0.9382     0.9382    -0.0000
 41 H      0.8195     1.0000     0.1805     0.9361     0.9361     0.0000
 42 H      0.8397     1.0000     0.1603     0.9333     0.9333    -0.0000
 43 H      0.8547     1.0000     0.1453     0.9448     0.9448     0.0000
 44 H      0.8474     1.0000     0.1526     0.9642     0.9642    -0.0000
 45 H      0.8558     1.0000     0.1442     0.9596     0.9596     0.0000
 46 H      0.8635     1.0000     0.1365     0.9463     0.9463     0.0000
 47 H      0.8514     1.0000     0.1486     0.9349     0.9349     0.0000
 48 H      0.8685     1.0000     0.1315     0.9383     0.9383    -0.0000
 49 H      0.8787     1.0000     0.1213     0.9388     0.9388     0.0000
 50 H      0.8769     1.0000     0.1231     0.9386     0.9386     0.0000
 51 H      0.8663     1.0000     0.1337     0.9441     0.9441     0.0000

  Mayer bond orders larger than 0.100000
B(  0-C ,  1-C ) :   1.0055 B(  0-C , 36-H ) :   0.9256 B(  0-C , 37-H ) :   0.9267 
B(  0-C , 38-H ) :   0.9202 B(  1-C ,  2-C ) :   1.4320 B(  1-C , 29-C ) :   0.1031 
B(  1-C , 35-C ) :   1.2666 B(  2-C ,  3-N ) :   0.8941 B(  2-C , 28-N ) :   1.2850 
B(  3-N ,  4-C ) :   0.9419 B(  3-N , 16-S ) :   0.7725 B(  4-C ,  5-C ) :   0.9611 
B(  4-C , 39-H ) :   0.9101 B(  4-C , 40-H ) :   0.9158 B(  5-C ,  6-C ) :   1.4003 
B(  5-C , 15-N ) :   1.3860 B(  6-C ,  7-C ) :   1.4345 B(  6-C , 41-H ) :   0.9077 
B(  7-C ,  8-C ) :   1.3777 B(  7-C , 42-H ) :   0.9184 B(  8-C ,  9-F ) :   0.9484 
B(  8-C , 10-C ) :   1.3007 B( 10-C , 11-C ) :   0.9400 B( 10-C , 15-N ) :   1.3816 
B( 11-C , 12-F ) :   0.9675 B( 11-C , 13-F ) :   0.9727 B( 11-C , 14-F ) :   0.9678 
B( 16-S , 17-O ) :   1.5975 B( 16-S , 18-O ) :   1.6337 B( 16-S , 19-C ) :   0.8490 
B( 19-C , 20-C ) :   1.3594 B( 19-C , 27-C ) :   1.3698 B( 20-C , 21-C ) :   1.4138 
B( 20-C , 43-H ) :   0.9188 B( 21-C , 22-C ) :   1.3972 B( 21-C , 44-H ) :   0.9018 
B( 22-C , 23-C ) :   0.9274 B( 22-C , 26-C ) :   1.3925 B( 23-C , 24-O ) :   1.7070 
B( 23-C , 25-O ) :   1.5497 B( 24-O , 25-O ) :   0.1480 B( 26-C , 27-C ) :   1.4073 
B( 26-C , 45-H ) :   0.9075 B( 27-C , 46-H ) :   0.9215 B( 28-N , 29-C ) :   1.4968 
B( 29-C , 30-C ) :   1.2360 B( 29-C , 47-H ) :   0.9275 B( 30-C , 31-C ) :   1.2851 
B( 30-C , 35-C ) :   1.2909 B( 31-C , 32-C ) :   1.5127 B( 31-C , 34-C ) :   0.1065 
B( 31-C , 48-H ) :   0.9240 B( 32-C , 33-C ) :   1.3527 B( 32-C , 49-H ) :   0.9316 
B( 33-C , 34-C ) :   1.5096 B( 33-C , 50-H ) :   0.9314 B( 34-C , 35-C ) :   1.2948 
B( 34-C , 51-H ) :   0.9162 

-------
TIMINGS
-------

Total SCF time: 0 days 0 hours 10 min 2 sec 

Total time                  ....     602.940 sec
Sum of individual times     ....     602.687 sec  (100.0%)

SCF preparation             ....       0.342 sec  (  0.1%)
Fock matrix formation       ....     599.621 sec  ( 99.4%)
  Startup                   ....       0.084 sec  (  0.0% of F)
  Split-RI-J                ....      74.710 sec  ( 12.5% of F)
  Chain of spheres X        ....     479.535 sec  ( 80.0% of F)
  XC integration            ....      44.443 sec  (  7.4% of F)
    XC Preparation          ....       0.000 sec  (  0.0% of XC)
    Basis function eval.    ....      16.322 sec  ( 36.7% of XC)
    Density eval.           ....      11.633 sec  ( 26.2% of XC)
    XC-Functional eval.     ....       2.007 sec  (  4.5% of XC)
    XC-Potential eval.      ....      12.458 sec  ( 28.0% of XC)
Diagonalization             ....       0.000 sec  (  0.0%)
Density matrix formation    ....       0.506 sec  (  0.1%)
Total Energy calculation    ....       0.083 sec  (  0.0%)
Population analysis         ....       0.078 sec  (  0.0%)
Orbital Transformation      ....       0.253 sec  (  0.0%)
Orbital Orthonormalization  ....       0.000 sec  (  0.0%)
DIIS solution               ....       1.076 sec  (  0.2%)
SOSCF solution              ....       0.729 sec  (  0.1%)
Finished LeanSCF after 603.0 sec

Maximum memory used throughout the entire LEANSCF-calculation: 94.1 MB

-------------------------   --------------------
FINAL SINGLE POINT ENERGY     -2185.816749075114
-------------------------   --------------------


------------------------------------------------------------------------------
                              ORCA PROPERTY CALCULATIONS
------------------------------------------------------------------------------

GBWName                                 ... /home/nmrbox/aojoawo/Documents/ERDOS/inputs/CHEMBL3682544.gbw
Number of atoms                         ...     52
Number of basis functions               ...    540
Max core memory                         ...   1024 MB

Electric properties:
Dipole moment                           ... YES
Quadrupole moment                       ...  NO
Static polarizability (Dipole/Dipole)   ...  NO
Static polarizability (Dipole/Quad.)    ...  NO
Static polarizability (Quad./Quad.)     ...  NO
Static polarizability (Velocity)        ...  NO

Atomic electric properties:
Dipole moment                           ...  NO
Quadrupole moment                       ...  NO
Static polarizability                   ...  NO

Choice of electric origin               ... Center of mass
Position of electric origin             ...     0.241436    -0.451072    -0.398544

General magnetic properties:
Magnetizability                         ...  NO

EPR properties:
g-Tensor (aka g-matrix)                 ...  NO
Zero-Field splitting spin-orbit         ...  NO
Zero-field splitting spin-spin          ...  NO
Hyperfine couplings                     ...  NO (   0 nuclei)
Quadrupole couplings                    ...  NO (   0 nuclei)
Contact density                         ...  NO (   0 nuclei)

NMR properties:
Chemical shifts                         ...  NO (   0 nuclei)
Spin-rotation constants                 ...  NO (   0 nuclei)
Spin-spin couplings                     ...  NO (   0 nuclei,    0 pairs)

Choice of magnetic origin               ... GIAO
Position of magnetic origin             ...     0.000000     0.000000     0.000000

Properties with geometric perturbations:
SCF Hessian                             ...  NO
IR spectrum                             ...  NO
VCD spectrum                            ...  NO
X-ray spectroscopy properties:
SCF XES/XAS/RIXS spectra                ...  NO


-------------
DIPOLE MOMENT
-------------

Method             : SCF
Type of density    : Electron Density
Multiplicity       :   1
Irrep              :   0
Energy             : -2185.8167490751143305 Eh
Relativity type    : 
Basis              : AO
                                X                 Y                 Z
Electronic contribution:     33.367202637      -4.039517374      -5.433432465
Nuclear contribution   :    -22.661570749       7.918132071       8.459270036
                        -----------------------------------------
Total Dipole Moment    :     10.705631888       3.878614697       3.025837571
                        -----------------------------------------
Magnitude (a.u.)       :     11.781761290
Magnitude (Debye)      :     29.946857284



--------------------
Rotational spectrum 
--------------------
 
Rotational constants in cm-1:             0.005281             0.002010             0.001704 
Rotational constants in MHz :           158.312647            60.272992            51.095303 

Dipole components along the rotational axes: 
x,y,z [a.u.] :   -11.668152     0.084872    -1.630005 
x,y,z [Debye]:   -29.658086     0.215727    -4.143143 

 

Dipole moment calculation done in   0.0 sec 

Maximum memory used throughout the entire PROP-calculation: 46.7 MB

--------------------------------
SUGGESTED CITATIONS FOR THIS RUN
--------------------------------

Below you find a list of papers that are relevant to this ORCA run
We neither can nor want to force you to cite these papers, but we appreciate if you do
You receive ORCA, which is the product of decades of hard work by many enthusiastic individuals, for free
The only thing we kindly ask in return is that you cite our papers,
We deeply appreciate it, if you show your appreciation for ORCA by not just citing the generic ORCA reference.

Please note that relegating all ORCA citations to the supporting information does *not* help us.
SI sections are not indexed - citations you put there will not count into any citation statistics
But we need these citations in order to attract the funding resources that allow us to do what we are doing

Therefore, if you are a happy ORCA user, please consider citing a few of the papers listed below in the main body of your paper

In addition to the list printed below, the program has created the file /home/nmrbox/aojoawo/Documents/ERDOS/inputs/CHEMBL3682544.bibtex that contains the list in bibtex format
You can import this file easily into all common literature databanks and citation aid programs


List of essential papers. We consider these as the minimum necessary citations

  1. Neese,F.
     Software update: the ORCA program system, version 5.0
     WIRES Comput. Molec. Sci., 2022 12(1)e1606
     doi.org/10.1002/wcms.1606

List of papers to cite with high priority. The work reported in these papers was absolutely
necessary for this run to complete.
Our perspective: the developers of density functionals and basis sets usually get cited in chemistry papers
Good! But without the algorithms to do something with them, the functionals or basis sets would not do anything.
Hence, in our opinion, the algorithm design and method developments papers are equally worthy of getting cited

  1. Neese,F.
     An improvement of the resolution of the identity approximation for the formation of the Coulomb matrix
     J. Comp. Chem., 2003 24(14)1740-1747
     doi.org/10.1002/jcc.10318
  2. Neese,F.; Wennmohs,F.; Hansen,A.; Becker,U.
     Efficient, approximate and parallel Hartree-Fock and hybrid DFT calculations. A 'chain-of-spheres' algorithm for the Hartree-Fock exchange
     Chem. Phys., 2009 356(1-3)98-109
     doi.org/10.1016/j.chemphys.2008.10.036
  3. Helmich-Paris,B.; de Souza,B.; Neese,F.; Izsák,R.
     An improved chain of spheres for exchange algorithm
     J. Chem. Phys., 2021 155 104109
     doi.org/doi: 10.1063/5.0058766.
  4. Neese,F.
     The SHARK Integral Generation and Digestion System
     J. Comp. Chem., 2022  1-16
     doi.org/10.1002/jcc.26942

List of suggested additional citations. These are papers that are important in the 'surrounding' of 
of this run, or papers that preceded the highly important papers. If you like your results we are grateful for a citation.

  1. Izsak,R.; Neese,F.
     An overlap fitted chain of spheres exchange method
     J. Chem. Phys., 2011 135 144105
     doi.org/10.1063/1.3646921
  2. Izsak,R.; Hansen,A.; Neese,F.
     The resolution of identity and chain of spheres approximations for the LPNO-CCSD singles Fock term
     Molec. Phys., 2012 110 2413-2417
     doi.org/10.1080/00268976.2012.687466
  3. Neese,F.
     The ORCA program system
     WIRES Comput. Molec. Sci., 2012 2(1)73-78
     doi.org/10.1002/wcms.81
  4. Izsak,R.; Neese,F.; Klopper,W.
     Robust fitting techniques in the chain of spheres approximation to the Fock exchange: The role of the complementary space
     J. Chem. Phys., 2013 139 
     doi.org/10.1063/1.4819264
  5. Neese,F.
     Software update: the ORCA program system, version 4.0
     WIRES Comput. Molec. Sci., 2018 8(1)1-6
     doi.org/10.1002/wcms.1327
  6. Neese,F.; Wennmohs,F.; Becker,U.; Riplinger,C.
     The ORCA quantum chemistry program package
     J. Chem. Phys., 2020 152 Art. No. L224108
     doi.org/10.1063/5.0004608

List of optional additional citations

  1. Neese,F.
     Approximate second-order SCF convergence for spin unrestricted wavefunctions
     Chem. Phys. Lett., 2000 325(1-3)93-98
     doi.org/10.1016/s0009-2614(00)00662-x

Timings for individual modules:

Sum of individual times          ...      625.824 sec (=  10.430 min)
Startup calculation              ...       14.638 sec (=   0.244 min)   2.3 %
SCF iterations                   ...      610.972 sec (=  10.183 min)  97.6 %
Property calculations            ...        0.214 sec (=   0.004 min)   0.0 %
                             ****ORCA TERMINATED NORMALLY****
TOTAL RUN TIME: 0 days 0 hours 10 minutes 26 seconds 751 msec
