
                                 *****************
                                 * O   R   C   A *
                                 *****************

                                            #,                                       
                                            ###                                      
                                            ####                                     
                                            #####                                    
                                            ######                                   
                                           ########,                                 
                                     ,,################,,,,,                         
                               ,,#################################,,                 
                          ,,##########################################,,             
                       ,#########################################, ''#####,          
                    ,#############################################,,   '####,        
                  ,##################################################,,,,####,       
                ,###########''''           ''''###############################       
              ,#####''   ,,,,##########,,,,          '''####'''          '####       
            ,##' ,,,,###########################,,,                        '##       
           ' ,,###''''                  '''############,,,                           
         ,,##''                                '''############,,,,        ,,,,,,###''
      ,#''                                            '''#######################'''  
     '                                                          ''''####''''         
             ,#######,   #######,   ,#######,      ##                                
            ,#'     '#,  ##    ##  ,#'     '#,    #''#        ,####,   ,####,        
            ##       ##  ##   ,#'  ##            #'  '#       #'       #'  '#        
            ##       ##  #######   ##           ,######,      #####,   #    #        
            '#,     ,#'  ##    ##  '#,     ,#' ,#      #,     #,   #   #,  ,#        
             '#######'   ##     ##  '#######'  #'      '#     '####' # '####'        



                #########################################################
                #                        -***-                          #
                #          Department of theory and spectroscopy        #
                #                                                       #
                #                      Frank Neese                      #
                #                                                       #
                #     Directorship, Architecture, Infrastructure        #
                #                    SHARK, DRIVERS                     #
                #        Core code/Algorithms in most modules           #
                #                                                       #
                #        Max Planck Institute fuer Kohlenforschung      #
                #                Kaiser Wilhelm Platz 1                 #
                #                 D-45470 Muelheim/Ruhr                 #
                #                      Germany                          #
                #                                                       #
                #                  All rights reserved                  #
                #                        -***-                          #
                #########################################################


                         Program Version 6.0.0  -   RELEASE  -


 With contributions from (in alphabetic order):
   Daniel Aravena         : Magnetic Suceptibility
   Michael Atanasov       : Ab Initio Ligand Field Theory (pilot matlab implementation)
   Alexander A. Auer      : GIAO ZORA, VPT2 properties, NMR spectrum
   Ute Becker             : All parallelization in ORCA, NUMFREQ, NUMCALC
   Giovanni Bistoni       : ED, misc. LED, open-shell LED, HFLD
   Martin Brehm           : Molecular dynamics
   Dmytro Bykov           : pre 5.0 version of the SCF Hessian
   Marcos Casanova-Páez   : Triplet and SCS-CIS(D). UHF-(DLPNO)-IP/EA/STEOM-CCSD. UHF-CVS-IP/STEOM-CCSD
   Vijay G. Chilkuri      : MRCI spin determinant printing, contributions to CSF-ICE
   Pauline Colinet        : FMM embedding
   Dipayan Datta          : RHF DLPNO-CCSD density
   Achintya Kumar Dutta   : EOM-CC, STEOM-CC
   Nicolas Foglia         : Exact transition moments, OPA infrastructure, MCD improvements
   Dmitry Ganyushin       : Spin-Orbit,Spin-Spin,Magnetic field MRCI
   Miquel Garcia          : C-PCM and meta-GGA Hessian, CCSD/C-PCM, Gaussian charge scheme
   Tiago L. C. Gouveia    : GS-ROHF, GS-ROCIS
   Yang Guo               : DLPNO-NEVPT2, F12-NEVPT2, CIM, IAO-localization
   Andreas Hansen         : Spin unrestricted coupled pair/coupled cluster methods
   Ingolf Harden          : AUTO-CI MPn and infrastructure 
   Benjamin Helmich-Paris : MC-RPA, TRAH-(SCF,CASSCF), AVAS, COSX integrals, SCF dyn. polar.
   Lee Huntington         : MR-EOM, pCC
   Robert Izsak           : Overlap fitted RIJCOSX, COSX-SCS-MP3, EOM
   Riya Kayal             : Wick's Theorem for AUTO-CI, AUTO-CI UHF-CCSDT
   Emily Kempfer          : AUTO-CI, RHF CISDT and CCSDT
   Christian Kollmar      : KDIIS, OOCD, Brueckner-CCSD(T), CCSD density, CASPT2, CASPT2-K, improved NEVPT2
   Axel Koslowski         : Symmetry handling
   Simone Kossmann        : Meta GGA functionals, TD-DFT gradient, OOMP2, (MP2 Hessian; deprecated post 5.0)
   Lucas Lang             : DCDCAS
   Marvin Lechner         : AUTO-CI (C++ implementation), FIC-MRCC
   Spencer Leger          : CASSCF response
   Dagmar Lenk            : GEPOL surface, SMD, ORCA-2-JSON
   Dimitrios Liakos       : Extrapolation schemes; Compound Job, initial MDCI parallelization
   Dimitrios Manganas     : Further ROCIS development; embedding schemes. LFT, Crystal Embedding
   Dimitrios Pantazis     : SARC Basis sets
   Anastasios Papadopoulos: AUTO-CI, single reference methods and gradients
   Taras Petrenko         : pre 6.0 DFT Hessian and TD-DFT gradient, (ASA, deprecated), ECA, 1-Electron XAS/XES, NRVS
   Peter Pinski           : DLPNO-MP2, DLPNO-MP2 Gradient
   Christoph Reimann      : Effective Core Potentials
   Marius Retegan         : Local ZFS, SOC
   Christoph Riplinger    : Optimizer, TS searches, QM/MM, DLPNO-CCSD(T), (RO)-DLPNO pert. Triples
   Michael Roemelt        : Original ROCIS implementation
   Masaaki Saitow         : Open-shell DLPNO-CCSD energy and density
   Barbara Sandhoefer     : DKH picture change effects
   Kantharuban Sivalingam : CASSCF convergence/infrastructure, NEVPT2 and variants, FIC-MRCI
   Bernardo de Souza      : ESD, SOC TD-DFT
   Georgi Stoychev        : AutoAux, RI-MP2 NMR, DLPNO-MP2 response, X2C
   Van Anh Tran           : RI-MP2 g-tensors
   Willem Van den Heuvel  : Paramagnetic NMR
   Zikuan Wang            : NOTCH, Electric field optimization 
   Frank Wennmohs         : Technical directorship and infrastructure
   Hang Xu                : AUTO-CI-Response properties 


 We gratefully acknowledge several colleagues who have allowed us to
 interface, adapt or use parts of their codes:
   Stefan Grimme, W. Hujo, H. Kruse, P. Pracht,  : VdW corrections, initial TS optimization,
                  C. Bannwarth, S. Ehlert,         DFT functionals, gCP, sTDA/sTD-DF
                  L. Wittmann, M. Mueller
   Ed Valeev, F. Pavosevic, A. Kumar             : LibInt (2-el integral package), F12 methods
   Garnet Chan, S. Sharma, J. Yang, R. Olivares  : DMRG
   Ulf Ekstrom                                   : XCFun DFT Library
   Mihaly Kallay                                 : mrcc  (arbitrary order and MRCC methods)
   Frank Weinhold                                : gennbo (NPA and NBO analysis)
   Simon Mueller                                 : openCOSMO-RS
   Christopher J. Cramer and Donald G. Truhlar   : smd solvation model
   Lars Goerigk                                  : TD-DFT with DH, B97 family of functionals
   V. Asgeirsson, H. Jonsson                     : NEB implementation
   FAccTs GmbH                                   : IRC, NEB, NEB-TS, DLPNO-Multilevel, CI-OPT
                                                   MM, QMMM, 2- and 3-layer-ONIOM, Crystal-QMMM,
                                                   LR-CPCM, SF, NACMEs, symmetry and pop. for TD-DFT,
                                                   nearIR, NL-DFT gradient (VV10), updates on ESD,
                                                   ML-optimized integration grids, MBIS, APM,
                                                   GOAT, DOCKER, SOLVATOR, interface openCOSMO-RS
   S Lehtola, MJT Oliveira, MAL Marques          : LibXC Library
   Liviu Ungur et al                             : ANISO software


 Your calculation uses the libint2 library for the computation of 2-el integrals
 For citations please refer to: http://libint.valeyev.net

 Your ORCA version has been built with support for libXC version: 6.2.2
 For citations please refer to: https://libxc.gitlab.io

 This ORCA versions uses:
   CBLAS   interface :  Fast vector & matrix operations
   LAPACKE interface :  Fast linear algebra routines
   SCALAPACK package :  Parallel linear algebra routines
   Shared memory     :  Shared parallel matrices
   BLAS/LAPACK       :  OpenBLAS 0.3.27  USE64BITINT DYNAMIC_ARCH NO_AFFINITY SkylakeX SINGLE_THREADED
        Core in use  :  SkylakeX
   Copyright (c) 2011-2014, The OpenBLAS Project


Warning: RI is on but no J-basis has been assigned. Assigning Def2/J (nothing to worry about!)
================================================================================

----- Orbital basis set information -----
Your calculation utilizes the basis: 6-31G*
   H-He, Li-Ne : W. J. Hehre, R. Ditchfield and J.A. Pople, J. Chem. Phys. 56, 2257 (1972).
                 Note: He and Ne are unpublished basis sets taken from the Gaussian program.
                 Note: Li and B from J. D. Dill and J. A. Pople, J. Chem. Phys. 62, 2921 (1975).
   Na - Ar     : M. M. Francl, W. J. Pietro, W. J. Hehre, J. S. Binkley, M. S. Gordon, 
                 D. J. DeFrees and J. A. Pople, J. Chem. Phys. 77, 3654 (1982).
   K - Zn      : V. A. Rassolov, J. A. Pople, M. A. Ratner, and T. L. Windus, J. Chem. Phys. 109, 1223 (1998).

----- AuxJ basis set information -----
Your calculation utilizes the auxiliary basis: def2/J
   F. Weigend, Phys. Chem. Chem. Phys. 8, 1057 (2006).

================================================================================
                                        WARNINGS
                       Please study these warnings very carefully!
================================================================================


================================================================================
                                       INPUT FILE
================================================================================
NAME = /home/nmrbox/aojoawo/Documents/ERDOS/inputs/CHEMBL3913924.inp
|  1> ! B3LYP 6-31G* SP
|  2> 
|  3> * xyz 0 1
|  4> C -4.0230 1.9126 -2.2626
|  5> N -4.1232 0.8199 -1.2788
|  6> C -3.5292 0.9489 -0.0436
|  7> O -2.9171 2.0077 0.2614
|  8> C -3.6066 -0.1101 0.8692
|  9> C -3.0667 -0.2184 2.1867
| 10> C -2.2324 0.8269 2.8705
| 11> C -0.8010 0.7027 2.4445
| 12> O -0.3710 1.4207 1.5018
| 13> N 0.0587 -0.2495 3.0901
| 14> C 1.3990 -0.5251 2.6649
| 15> N 1.9494 -0.0395 1.5323
| 16> C 3.2316 -0.4654 1.3575
| 17> C 4.0315 -0.0638 0.1683
| 18> C 5.1711 -0.7966 -0.2167
| 19> C 5.9066 -0.4337 -1.3476
| 20> C 5.5102 0.6581 -2.1352
| 21> C 6.3142 1.0810 -3.3388
| 22> F 7.0866 0.0364 -3.8172
| 23> F 5.4700 1.4956 -4.3539
| 24> F 7.1444 2.1280 -2.9872
| 25> C 4.3914 1.4076 -1.7423
| 26> C 3.6532 1.0501 -0.6098
| 27> F 2.5828 1.8129 -0.2703
| 28> C 3.7006 -1.3044 2.3753
| 29> S 2.4680 -1.5089 3.5023
| 30> N -3.2962 -1.4104 2.8076
| 31> S -4.1787 -2.3309 1.7388
| 32> C -4.2805 -1.2457 0.4791
| 33> N -4.8657 -1.3911 -0.7396
| 34> C -5.5198 -2.6524 -1.1156
| 35> C -4.7538 -0.3555 -1.6348
| 36> O -5.2278 -0.4841 -2.7991
| 37> H -4.9566 1.9924 -2.8601
| 38> H -3.8840 2.8988 -1.7701
| 39> H -3.1684 1.7227 -2.9454
| 40> H -2.6199 1.8461 2.6691
| 41> H -2.2971 0.6851 3.9707
| 42> H -0.3061 -0.7675 3.9209
| 43> H 5.4936 -1.6642 0.3415
| 44> H 6.7828 -1.0143 -1.6077
| 45> H 4.0882 2.2757 -2.3150
| 46> H 4.6854 -1.7418 2.4542
| 47> H -6.3595 -2.4707 -1.8210
| 48> H -5.9563 -3.1583 -0.2286
| 49> H -4.7786 -3.3277 -1.5941
| 50> *
| 51> 
| 52>                          ****END OF INPUT****
================================================================================

                       ****************************
                       * Single Point Calculation *
                       ****************************

---------------------------------
CARTESIAN COORDINATES (ANGSTROEM)
---------------------------------
  C     -4.023000    1.912600   -2.262600
  N     -4.123200    0.819900   -1.278800
  C     -3.529200    0.948900   -0.043600
  O     -2.917100    2.007700    0.261400
  C     -3.606600   -0.110100    0.869200
  C     -3.066700   -0.218400    2.186700
  C     -2.232400    0.826900    2.870500
  C     -0.801000    0.702700    2.444500
  O     -0.371000    1.420700    1.501800
  N      0.058700   -0.249500    3.090100
  C      1.399000   -0.525100    2.664900
  N      1.949400   -0.039500    1.532300
  C      3.231600   -0.465400    1.357500
  C      4.031500   -0.063800    0.168300
  C      5.171100   -0.796600   -0.216700
  C      5.906600   -0.433700   -1.347600
  C      5.510200    0.658100   -2.135200
  C      6.314200    1.081000   -3.338800
  F      7.086600    0.036400   -3.817200
  F      5.470000    1.495600   -4.353900
  F      7.144400    2.128000   -2.987200
  C      4.391400    1.407600   -1.742300
  C      3.653200    1.050100   -0.609800
  F      2.582800    1.812900   -0.270300
  C      3.700600   -1.304400    2.375300
  S      2.468000   -1.508900    3.502300
  N     -3.296200   -1.410400    2.807600
  S     -4.178700   -2.330900    1.738800
  C     -4.280500   -1.245700    0.479100
  N     -4.865700   -1.391100   -0.739600
  C     -5.519800   -2.652400   -1.115600
  C     -4.753800   -0.355500   -1.634800
  O     -5.227800   -0.484100   -2.799100
  H     -4.956600    1.992400   -2.860100
  H     -3.884000    2.898800   -1.770100
  H     -3.168400    1.722700   -2.945400
  H     -2.619900    1.846100    2.669100
  H     -2.297100    0.685100    3.970700
  H     -0.306100   -0.767500    3.920900
  H      5.493600   -1.664200    0.341500
  H      6.782800   -1.014300   -1.607700
  H      4.088200    2.275700   -2.315000
  H      4.685400   -1.741800    2.454200
  H     -6.359500   -2.470700   -1.821000
  H     -5.956300   -3.158300   -0.228600
  H     -4.778600   -3.327700   -1.594100

----------------------------
CARTESIAN COORDINATES (A.U.)
----------------------------
  NO LB      ZA    FRAG     MASS         X           Y           Z
   0 C     6.0000    0    12.011   -7.602368    3.614290   -4.275694
   1 N     7.0000    0    14.007   -7.791719    1.549386   -2.416582
   2 C     6.0000    0    12.011   -6.669221    1.793161   -0.082392
   3 O     8.0000    0    15.999   -5.512520    3.794003    0.493974
   4 C     6.0000    0    12.011   -6.815486   -0.208059    1.642550
   5 C     6.0000    0    12.011   -5.795223   -0.412716    4.132264
   6 C     6.0000    0    12.011   -4.218625    1.562615    5.424459
   7 C     6.0000    0    12.011   -1.513671    1.327911    4.619436
   8 O     8.0000    0    15.999   -0.701088    2.684734    2.837991
   9 N     7.0000    0    14.007    0.110927   -0.471487    5.839443
  10 C     6.0000    0    12.011    2.643727   -0.992295    5.035931
  11 N     7.0000    0    14.007    3.683832   -0.074644    2.895627
  12 C     6.0000    0    12.011    6.106839   -0.879479    2.565303
  13 C     6.0000    0    12.011    7.618431   -0.120565    0.318041
  14 C     6.0000    0    12.011    9.771963   -1.505356   -0.409504
  15 C     6.0000    0    12.011   11.161856   -0.819574   -2.546595
  16 C     6.0000    0    12.011   10.412769    1.243629   -4.034943
  17 C     6.0000    0    12.011   11.932109    2.042794   -6.309418
  18 F     9.0000    0    18.998   13.391733    0.068786   -7.213463
  19 F     9.0000    0    18.998   10.336802    2.826274   -8.227679
  20 F     9.0000    0    18.998   13.500959    4.021337   -5.644990
  21 C     6.0000    0    12.011    8.298543    2.659979   -3.292470
  22 C     6.0000    0    12.011    6.903548    1.984401   -1.152355
  23 F     9.0000    0    18.998    4.880785    3.425885   -0.510793
  24 C     6.0000    0    12.011    6.993121   -2.464959    4.488666
  25 S    16.0000    0    32.060    4.663844   -2.851408    6.618388
  26 N     7.0000    0    14.007   -6.228915   -2.665270    5.305595
  27 S    16.0000    0    32.060   -7.896599   -4.404763    3.285856
  28 C     6.0000    0    12.011   -8.088973   -2.354032    0.905368
  29 N     7.0000    0    14.007   -9.194840   -2.628798   -1.397641
  30 C     6.0000    0    12.011  -10.430910   -5.012310   -2.108178
  31 C     6.0000    0    12.011   -8.983380   -0.671798   -3.089324
  32 O     8.0000    0    15.999   -9.879110   -0.914816   -5.289532
  33 H     1.0000    0     1.008   -9.366617    3.765090   -5.404806
  34 H     1.0000    0     1.008   -7.339696    5.477938   -3.345004
  35 H     1.0000    0     1.008   -5.987408    3.255431   -5.565999
  36 H     1.0000    0     1.008   -4.950893    3.488623    5.043868
  37 H     1.0000    0     1.008   -4.340890    1.294651    7.503536
  38 H     1.0000    0     1.008   -0.578445   -1.450365    7.409427
  39 H     1.0000    0     1.008   10.381399   -3.144882    0.645341
  40 H     1.0000    0     1.008   12.817634   -1.916749   -3.038113
  41 H     1.0000    0     1.008    7.725578    4.300450   -4.374716
  42 H     1.0000    0     1.008    8.854123   -3.291525    4.637766
  43 H     1.0000    0     1.008  -12.017713   -4.668946   -3.441191
  44 H     1.0000    0     1.008  -11.255776   -5.968322   -0.431991
  45 H     1.0000    0     1.008   -9.030245   -6.288442   -3.012412

--------------------------------
INTERNAL COORDINATES (ANGSTROEM)
--------------------------------
 C      0   0   0     0.000000000000     0.00000000     0.00000000
 N      1   0   0     1.473735312056     0.00000000     0.00000000
 C      2   1   0     1.376661192887   120.00963835     0.00000000
 O      3   2   1     1.260455810411   120.35515790     1.19856968
 C      3   2   1     1.400241264925   119.35257187   181.46898070
 C      5   3   2     1.427945079476   129.63745355   179.27849916
 C      6   5   3     1.502095542900   125.25702073   358.08447478
 C      7   6   5     1.498601881755   110.08642537   276.97270254
 O      8   7   6     1.260597989051   119.41856976    95.37969007
 N      8   7   6     1.436164436964   119.92910408   276.74650642
 C     10   8   7     1.432883278568   123.64590770   173.84347568
 N     11  10   8     1.349640796657   124.14452165   352.23197630
 C     12  11  10     1.362344556271   112.27263618   180.62925997
 C     13  12  11     1.488394843447   121.59909808   179.44527867
 C     14  13  12     1.408513045733   120.85273146   199.20986266
 C     15  14  13     1.396993725827   120.80341324   178.78606076
 C     16  15  14     1.403379478260   120.51097802   358.98533711
 C     17  16  15     1.507950055539   121.03269497   178.48198433
 F     18  17  16     1.384433992648   111.20301206    22.67479912
 F     18  17  16     1.383833375085   110.13624362   142.65832433
 F     18  17  16     1.381688676946   109.25451799   262.39966784
 C     17  16  15     1.402795102643   118.93100979     2.22651417
 C     22  17  16     1.398321043252   120.74932575   357.88991476
 F     23  22  17     1.357527255712   118.36892144   179.71628472
 C     13  12  11     1.399928155299   114.16613267     0.00000000
 S     11  10   8     1.676860817122   124.12247923   173.17945560
 N      6   5   3     1.363470227031   115.01302771   181.54422437
 S     27   6   5     1.663868967197   106.28477276   359.48589143
 C      5   3   2     1.376919235104   117.78235115     0.13785892
 N     29   5   3     1.359716841846   123.55689458     0.23984309
 C     30  29   5     1.469728036067   120.83772252   177.29756198
 C     30  29   5     1.373452587460   117.93673859     1.25922791
 O     32  30  29     1.263648863411   119.55429576   176.47072010
 H      1   2   3     1.111298002338   110.79594254   215.31093121
 H      1   2   3     1.111066015140   111.76016885   333.58775032
 H      1   2   3     1.110233763673   109.63729081    94.75633570
 H      7   6   5     1.108822280620   111.27583836    40.46703144
 H      7   6   5     1.111185569561   109.24364008   157.24573007
 H     10   8   7     1.044811791664   118.49993582   353.36018292
 H     15  14  13     1.080890026783   121.18778041   359.82868061
 H     16  15  14     1.082808759662   118.76347069   179.39505618
 H     22  17  16     1.083288114954   120.21930336   177.80780476
 H     25  13  12     1.080451299226   126.94672426   181.28757699
 H     31  30  29     1.111620501790   110.99269903   149.78742141
 H     31  30  29     1.110511620831   111.19505836    31.39445785
 H     31  30  29     1.111021952978   109.56626057   270.55096105

---------------------------
INTERNAL COORDINATES (A.U.)
---------------------------
 C      0   0   0     0.000000000000     0.00000000     0.00000000
 N      1   0   0     2.784956133674     0.00000000     0.00000000
 C      2   1   0     2.601512633753   120.00963835     0.00000000
 O      3   2   1     2.381916285587   120.35515790     1.19856968
 C      3   2   1     2.646072512125   119.35257187   181.46898070
 C      5   3   2     2.698425134490   129.63745355   179.27849916
 C      6   5   3     2.838549203065   125.25702073   358.08447478
 C      7   6   5     2.831947140296   110.08642537   276.97270254
 O      8   7   6     2.382184964279   119.41856976    95.37969007
 N      8   7   6     2.713957469139   119.92910408   276.74650642
 C     10   8   7     2.707756978369   123.64590770   173.84347568
 N     11  10   8     2.550451484848   124.14452165   352.23197630
 C     12  11  10     2.574458111390   112.27263618   180.62925997
 C     13  12  11     2.812658633256   121.59909808   179.44527867
 C     14  13  12     2.661703912491   120.85273146   199.20986266
 C     15  14  13     2.639935552619   120.80341324   178.78606076
 C     16  15  14     2.652002875876   120.51097802   358.98533711
 C     17  16  15     2.849612628600   121.03269497   178.48198433
 F     18  17  16     2.616201096596   111.20301206    22.67479912
 F     18  17  16     2.615066093891   110.13624362   142.65832433
 F     18  17  16     2.611013201767   109.25451799   262.39966784
 C     17  16  15     2.650898566002   118.93100979     2.22651417
 C     22  17  16     2.642443819044   120.74932575   357.88991476
 F     23  22  17     2.565354732629   118.36892144   179.71628472
 C     13  12  11     2.645480820681   114.16613267     0.00000000
 S     11  10   8     3.168807709065   124.12247923   173.17945560
 N      6   5   3     2.576585320844   115.01302771   181.54422437
 S     27   6   5     3.144256670732   106.28477276   359.48589143
 C      5   3   2     2.602000262875   117.78235115     0.13785892
 N     29   5   3     2.569492450769   123.55689458     0.23984309
 C     30  29   5     2.777383479512   120.83772252   177.29756198
 C     30  29   5     2.595449248225   117.93673859     1.25922791
 O     32  30  29     2.387950281288   119.55429576   176.47072010
 H      1   2   3     2.100048877592   110.79594254   215.31093121
 H      1   2   3     2.099610485323   111.76016885   333.58775032
 H      1   2   3     2.098037757975   109.63729081    94.75633570
 H      7   6   5     2.095370441562   111.27583836    40.46703144
 H      7   6   5     2.099836410435   109.24364008   157.24573007
 H     10   8   7     1.974408147736   118.49993582   353.36018292
 H     15  14  13     2.042586131508   121.18778041   359.82868061
 H     16  15  14     2.046212011171   118.76347069   179.39505618
 H     22  17  16     2.047117861394   120.21930336   177.80780476
 H     25  13  12     2.041757056577   126.94672426   181.28757699
 H     31  30  29     2.100658313235   110.99269903   149.78742141
 H     31  30  29     2.098562831907   111.19505836    31.39445785
 H     31  30  29     2.099527219904   109.56626057   270.55096105

---------------------
BASIS SET INFORMATION
---------------------
There are 6 groups of distinct atoms

 Group   1 Type C   : 10s4p1d contracted to 3s2p1d pattern {631/31/1}
 Group   2 Type N   : 10s4p1d contracted to 3s2p1d pattern {631/31/1}
 Group   3 Type O   : 10s4p1d contracted to 3s2p1d pattern {631/31/1}
 Group   4 Type F   : 10s4p1d contracted to 3s2p1d pattern {631/31/1}
 Group   5 Type S   : 16s10p1d contracted to 4s3p1d pattern {6631/631/1}
 Group   6 Type H   : 4s contracted to 2s pattern {31}

Atom   0C    basis set group =>   1
Atom   1N    basis set group =>   2
Atom   2C    basis set group =>   1
Atom   3O    basis set group =>   3
Atom   4C    basis set group =>   1
Atom   5C    basis set group =>   1
Atom   6C    basis set group =>   1
Atom   7C    basis set group =>   1
Atom   8O    basis set group =>   3
Atom   9N    basis set group =>   2
Atom  10C    basis set group =>   1
Atom  11N    basis set group =>   2
Atom  12C    basis set group =>   1
Atom  13C    basis set group =>   1
Atom  14C    basis set group =>   1
Atom  15C    basis set group =>   1
Atom  16C    basis set group =>   1
Atom  17C    basis set group =>   1
Atom  18F    basis set group =>   4
Atom  19F    basis set group =>   4
Atom  20F    basis set group =>   4
Atom  21C    basis set group =>   1
Atom  22C    basis set group =>   1
Atom  23F    basis set group =>   4
Atom  24C    basis set group =>   1
Atom  25S    basis set group =>   5
Atom  26N    basis set group =>   2
Atom  27S    basis set group =>   5
Atom  28C    basis set group =>   1
Atom  29N    basis set group =>   2
Atom  30C    basis set group =>   1
Atom  31C    basis set group =>   1
Atom  32O    basis set group =>   3
Atom  33H    basis set group =>   6
Atom  34H    basis set group =>   6
Atom  35H    basis set group =>   6
Atom  36H    basis set group =>   6
Atom  37H    basis set group =>   6
Atom  38H    basis set group =>   6
Atom  39H    basis set group =>   6
Atom  40H    basis set group =>   6
Atom  41H    basis set group =>   6
Atom  42H    basis set group =>   6
Atom  43H    basis set group =>   6
Atom  44H    basis set group =>   6
Atom  45H    basis set group =>   6
---------------------------------
AUXILIARY/J BASIS SET INFORMATION
---------------------------------
There are 6 groups of distinct atoms

 Group   1 Type C   : 12s5p4d2f1g contracted to 6s4p3d1f1g pattern {711111/2111/211/2/1}
 Group   2 Type N   : 12s5p4d2f1g contracted to 6s4p3d1f1g pattern {711111/2111/211/2/1}
 Group   3 Type O   : 12s5p4d2f1g contracted to 6s4p3d1f1g pattern {711111/2111/211/2/1}
 Group   4 Type F   : 12s5p4d2f1g contracted to 6s4p3d1f1g pattern {711111/2111/211/2/1}
 Group   5 Type S   : 14s5p5d2f1g contracted to 8s4p3d1f1g pattern {71111111/2111/311/2/1}
 Group   6 Type H   : 5s2p1d contracted to 3s1p1d pattern {311/2/1}

Atom   0C    basis set group =>   1
Atom   1N    basis set group =>   2
Atom   2C    basis set group =>   1
Atom   3O    basis set group =>   3
Atom   4C    basis set group =>   1
Atom   5C    basis set group =>   1
Atom   6C    basis set group =>   1
Atom   7C    basis set group =>   1
Atom   8O    basis set group =>   3
Atom   9N    basis set group =>   2
Atom  10C    basis set group =>   1
Atom  11N    basis set group =>   2
Atom  12C    basis set group =>   1
Atom  13C    basis set group =>   1
Atom  14C    basis set group =>   1
Atom  15C    basis set group =>   1
Atom  16C    basis set group =>   1
Atom  17C    basis set group =>   1
Atom  18F    basis set group =>   4
Atom  19F    basis set group =>   4
Atom  20F    basis set group =>   4
Atom  21C    basis set group =>   1
Atom  22C    basis set group =>   1
Atom  23F    basis set group =>   4
Atom  24C    basis set group =>   1
Atom  25S    basis set group =>   5
Atom  26N    basis set group =>   2
Atom  27S    basis set group =>   5
Atom  28C    basis set group =>   1
Atom  29N    basis set group =>   2
Atom  30C    basis set group =>   1
Atom  31C    basis set group =>   1
Atom  32O    basis set group =>   3
Atom  33H    basis set group =>   6
Atom  34H    basis set group =>   6
Atom  35H    basis set group =>   6
Atom  36H    basis set group =>   6
Atom  37H    basis set group =>   6
Atom  38H    basis set group =>   6
Atom  39H    basis set group =>   6
Atom  40H    basis set group =>   6
Atom  41H    basis set group =>   6
Atom  42H    basis set group =>   6
Atom  43H    basis set group =>   6
Atom  44H    basis set group =>   6
Atom  45H    basis set group =>   6
------------------------------------------------------------------------------
                             ORCA STARTUP CALCULATIONS
                           -- RI-GTO INTEGRALS CHOSEN --
------------------------------------------------------------------------------
------------------------------------------------------------------------------
                   ___                                                        
                  /   \      - P O W E R E D   B Y -                         
                 /     \                                                     
                 |  |  |   _    _      __       _____    __    __             
                 |  |  |  | |  | |    /  \     |  _  \  |  |  /  |          
                  \  \/   | |  | |   /    \    | | | |  |  | /  /          
                 / \  \   | |__| |  /  /\  \   | |_| |  |  |/  /          
                |  |  |   |  __  | /  /__\  \  |    /   |      \           
                |  |  |   | |  | | |   __   |  |    \   |  |\   \          
                \     /   | |  | | |  |  |  |  | |\  \  |  | \   \       
                 \___/    |_|  |_| |__|  |__|  |_| \__\ |__|  \__/        
                                                                              
                      - O R C A' S   B I G   F R I E N D -                    
                                      &                                       
                       - I N T E G R A L  F E E D E R -                       
                                                                              
 v1 FN, 2020, v2 2021, v3 2022-2024                                           
------------------------------------------------------------------------------


----------------------
SHARK INTEGRAL PACKAGE
----------------------

Number of atoms                             ...     46
Number of basis functions                   ...    496
Number of shells                            ...    228
Maximum angular momentum                    ...      2
Integral batch strategy                     ... SHARK/LIBINT Hybrid
RI-J (if used) integral strategy            ... SPLIT-RIJ (Revised 2003 algorithm where possible)
Printlevel                                  ...      1
Contraction scheme used                     ... SEGMENTED contraction
Prescreening option                         ... SCHWARTZ
   Thresh                                   ... 1.000e-10
   Tcut                                     ... 1.000e-11
   Tpresel                                  ... 1.000e-11 
Coulomb Range Separation                    ... NOT USED
Exchange Range Separation                   ... NOT USED
Multipole approximations                    ... NOT USED
Finite Nucleus Model                        ... NOT USED
CABS basis                                  ... NOT available
Auxiliary Coulomb fitting basis             ... AVAILABLE
   # of basis functions in Aux-J            ...   1764
   # of shells in Aux-J                     ...    564
   Maximum angular momentum in Aux-J        ...      4
Auxiliary J/K fitting basis                 ... NOT available
Auxiliary Correlation fitting basis         ... NOT available
Auxiliary 'external' fitting basis          ... NOT available

Checking pre-screening integrals            ... done (  0.0 sec) Dimension = 228
Check shell pair data                       ... done (  0.0 sec)
Shell pair information
Shell pair cut-off parameter TPreSel        ...   1.0e-11
Total number of shell pairs                 ...     26106
Shell pairs after pre-screening             ...     12818
Total number of primitive shell pairs       ...    164098
Primitive shell pairs kept                  ...     41774
          la=0 lb=0:   3668 shell pairs
          la=1 lb=0:   4576 shell pairs
          la=1 lb=1:   1446 shell pairs
          la=2 lb=0:   1752 shell pairs
          la=2 lb=1:   1146 shell pairs
          la=2 lb=2:    230 shell pairs

Calculating one electron integrals          ... done (  0.1 sec)
Calculating RI/J V-Matrix + Cholesky decomp.... done (  0.3 sec)
Calculating Nuclear repulsion               ... done (  0.0 sec) ENN=   3611.039738430210 Eh

Diagonalization of the overlap matrix:
Smallest eigenvalue                        ... 4.594e-04
Time for diagonalization                   ...    0.033 sec
Threshold for overlap eigenvalues          ... 1.000e-07
Number of eigenvalues below threshold      ... 0
Time for construction of square roots      ...    0.043 sec
Total time needed                          ...    0.090 sec

-------------------
DFT GRID GENERATION
-------------------

General Integration Accuracy     IntAcc      ... 4.388
Radial Grid Type                 RadialGrid  ... OptM3 with GC (2021)
Angular Grid (max. ang.)         AngularGrid ... 4 (Lebedev-302)
Angular grid pruning method      GridPruning ... 4 (adaptive)
Weight generation scheme         WeightScheme... mBecke (2022)
Basis function cutoff            BFCut       ... 1.0000e-10
Integration weight cutoff        WCut        ... 1.0000e-14
Partially contracted basis set               ... off
Rotationally invariant grid construction     ... off
Angular grids for H and He will be reduced by one unit

Total number of grid points                  ...   242307
Total number of batches                      ...     3805
Average number of points per batch           ...       63
Average number of grid points per atom       ...     5268

--------------------
COSX GRID GENERATION
--------------------

GRIDX 1
-------
General Integration Accuracy     IntAcc      ... 3.816
Radial Grid Type                 RadialGrid  ... OptM3 with GC (2021)
Angular Grid (max. ang.)         AngularGrid ... 1 (Lebedev-50)
Angular grid pruning method      GridPruning ... 4 (adaptive)
Weight generation scheme         WeightScheme... mBecke (2022)
Basis function cutoff            BFCut       ... 1.0000e-10
Integration weight cutoff        WCut        ... 1.0000e-14
Partially contracted basis set               ... on
Rotationally invariant grid construction     ... off
Angular grids for H and He will be reduced by one unit

Total number of grid points                  ...    32664
Total number of batches                      ...      279
Average number of points per batch           ...      117
Average number of grid points per atom       ...      710
UseSFitting                                  ... on

GRIDX 2
-------
General Integration Accuracy     IntAcc      ... 4.020
Radial Grid Type                 RadialGrid  ... OptM3 with GC (2021)
Angular Grid (max. ang.)         AngularGrid ... 2 (Lebedev-110)
Angular grid pruning method      GridPruning ... 4 (adaptive)
Weight generation scheme         WeightScheme... mBecke (2022)
Basis function cutoff            BFCut       ... 1.0000e-10
Integration weight cutoff        WCut        ... 1.0000e-14
Partially contracted basis set               ... on
Rotationally invariant grid construction     ... off
Angular grids for H and He will be reduced by one unit

Total number of grid points                  ...    68467
Total number of batches                      ...      558
Average number of points per batch           ...      122
Average number of grid points per atom       ...     1488
UseSFitting                                  ... on

GRIDX 3
-------
General Integration Accuracy     IntAcc      ... 4.338
Radial Grid Type                 RadialGrid  ... OptM3 with GC (2021)
Angular Grid (max. ang.)         AngularGrid ... 3 (Lebedev-194)
Angular grid pruning method      GridPruning ... 4 (adaptive)
Weight generation scheme         WeightScheme... mBecke (2022)
Basis function cutoff            BFCut       ... 1.0000e-10
Integration weight cutoff        WCut        ... 1.0000e-14
Partially contracted basis set               ... on
Rotationally invariant grid construction     ... off
Angular grids for H and He will be reduced by one unit

Total number of grid points                  ...   151325
Total number of batches                      ...     1208
Average number of points per batch           ...      125
Average number of grid points per atom       ...     3290
UseSFitting                                  ... on
Initializing property integral containers    ... done (  0.0 sec)

SHARK setup successfully completed in   8.4 seconds

Maximum memory used throughout the entire STARTUP-calculation: 102.3 MB
-------------------------------------------------------------------------------
                                 ORCA GUESS
                   Start orbitals & Density for SCF / CASSCF
-------------------------------------------------------------------------------

------------
SCF SETTINGS
------------
Hamiltonian:
 Density Functional     Method          .... DFT(GTOs)
 Exchange Functional    Exchange        .... B88
   X-Alpha parameter    XAlpha          ....  0.666667
   Becke's b parameter  XBeta           ....  0.004200
 Correlation Functional Correlation     .... LYP
 LDA part of GGA corr.  LDAOpt          .... VWN-5
 Gradients option       PostSCFGGA      .... off
 Hybrid DFT is turned on
   Fraction HF Exchange ScalHFX         ....  0.200000
   Scaling of DF-GGA-X  ScalDFX         ....  0.720000
   Scaling of DF-GGA-C  ScalDFC         ....  0.810000
   Scaling of DF-LDA-C  ScalLDAC        ....  1.000000
   Perturbative correction              ....  0.000000
   NL short-range parameter             ....  4.800000
 RI-approximation to the Coulomb term is turned on
   Number of AuxJ basis functions       .... 1764
   RIJ-COSX (HFX calculated with COS-X)).... on


General Settings:
 Integral files         IntName         .... /home/nmrbox/aojoawo/Documents/ERDOS/inputs/CHEMBL3913924
 Hartree-Fock type      HFTyp           .... RHF
 Total Charge           Charge          ....    0
 Multiplicity           Mult            ....    1
 Number of Electrons    NEL             ....  254
 Basis Dimension        Dim             ....  496
 Nuclear Repulsion      ENuc            ....   3611.0397384302 Eh

Convergence Acceleration:
 AO-DIIS                CNVDIIS         .... on
   Start iteration      DIISMaxIt       ....    12
   Startup error        DIISStart       ....  0.200000
   # of expansion vecs  DIISMaxEq       ....     5
   Bias factor          DIISBfac        ....   1.050
   Max. coefficient     DIISMaxC        ....  10.000
 MO-DIIS                CNVKDIIS        .... off
 Trust-Rad. Augm. Hess. CNVTRAH         .... auto
   Auto Start mean grad. ratio tolernc. ....  1.125000
   Auto Start start iteration           ....    50
   Auto Start num. interpolation iter.  ....    10
   Max. Number of Micro iterations      ....    24
   Max. Number of Macro iterations      .... Maxiter - #DIIS iter
   Number of Davidson start vectors     ....     2
   Converg. threshold    (grad. norm)   ....   5.000e-05
   Grad. Scal. Fac. for Micro threshold ....   0.100
   Minimum threshold for Micro iter.    ....   1.000e-02
   NR start threshold (gradient norm)   ....   1.000e-04
   Initial trust radius                 ....   0.400
   Minimum AH scaling param. (alpha)    ....   1.000
   Maximum AH scaling param. (alpha)    .... 1000.000
   Quad. conv. algorithm                .... NR
   White noise on init. David. guess    .... on
   Maximum white noise                  ....   0.010
   Pseudo random numbers                .... off
   Inactive MOs                         .... canonical
   Orbital update algorithm             .... Taylor
   Preconditioner                       .... Diag
   Full preconditioner red. dimension   ....   250
 SOSCF                  CNVSOSCF        .... on
   Start iteration      SOSCFMaxIt      ....   150
   Startup grad/error   SOSCFStart      ....  0.003300
   Hessian update       SOSCFHessUp     .... L-BFGS
 Level Shifting         CNVShift        .... on
   Level shift para.    LevelShift      ....    0.2500
   Turn off err/grad.   ShiftErr        ....    0.0010
 Zerner damping         CNVZerner       .... off
 Static damping         CNVDamp         .... on
   Fraction old density DampFac         ....    0.7000
   Max. Damping (<1)    DampMax         ....    0.9800
   Min. Damping (>=0)   DampMin         ....    0.0000
   Turn off err/grad.   DampErr         ....    0.1000

SCF Procedure:
 Maximum # iterations   MaxIter         ....   125
 SCF integral mode      SCFMode         .... Direct
   Integral package                     .... SHARK and LIBINT hybrid scheme
 Reset frequency        DirectResetFreq ....    20
 Integral Threshold     Thresh          ....  1.000e-10 Eh
 Primitive CutOff       TCut            ....  1.000e-11 Eh

Convergence Tolerance:
 Convergence Check Mode ConvCheckMode   .... Total+1el-Energy
 Convergence forced     ConvForced      .... 0
 Energy Change          TolE            ....  1.000e-06 Eh
 1-El. energy change                    ....  1.000e-03 Eh
 Orbital Gradient       TolG            ....  5.000e-05
 Orbital Rotation angle TolX            ....  5.000e-05
 DIIS Error             TolErr          ....  1.000e-06

------------------------------
INITIAL GUESS: MODEL POTENTIAL
------------------------------
Loading Hartree-Fock densities                     ... done
Calculating cut-offs                               ... done
Initializing the effective Hamiltonian             ... done
Setting up the integral package (SHARK)            ... done
Starting the Coulomb interaction                   ... done (   1.7 sec)
Making the grid                                    ... done (   1.0 sec)
Mapping shells                                     ... done
Starting the XC term evaluation                    ... done (   0.8 sec)
  promolecular density results
     # of electrons  =    253.976811548
     EX              =   -249.324147158
     EC              =     -9.182542771
     EX+EC           =   -258.506689929
Transforming the Hamiltonian                       ... done (   0.0 sec)
Diagonalizing the Hamiltonian                      ... done (   0.0 sec)
Back transforming the eigenvectors                 ... done (   0.0 sec)
Now organizing SCF variables                       ... done
                      ------------------
                      INITIAL GUESS DONE (   3.7 sec)
                      ------------------
             **** ENERGY FILE WAS UPDATED (/home/nmrbox/aojoawo/Documents/ERDOS/inputs/CHEMBL3913924.en.tmp) ****
Finished Guess after   3.9 sec
Maximum memory used throughout the entire GUESS-calculation: 55.9 MB

-------------------------------------------------------------------------------------------
                                      ORCA LEAN-SCF
                              memory conserving SCF solver
-------------------------------------------------------------------------------------------

----------------------------------------D-I-I-S--------------------------------------------
Iteration    Energy (Eh)           Delta-E    RMSDP     MaxDP     DIISErr   Damp  Time(sec)
-------------------------------------------------------------------------------------------
               ***  Starting incremental Fock matrix formation  ***
    1    -2425.1107100317040022     0.00e+00  2.80e-03  1.28e-01  2.88e-01  0.700  37.1
    2    -2425.5685138501939946    -4.58e-01  1.61e-03  6.09e-02  9.90e-02  0.700  17.1
                               ***Turning on AO-DIIS***
    3    -2425.7054196863482503    -1.37e-01  5.66e-04  2.34e-02  3.94e-02  0.700  16.4
    4    -2425.8010877814749620    -9.57e-02  1.10e-03  6.39e-02  1.79e-02  0.000  15.2
    5    -2426.0249475608698049    -2.24e-01  2.76e-04  1.19e-02  9.37e-03  0.000  16.6
    6    -2426.0271147028115593    -2.17e-03  1.11e-04  4.74e-03  3.34e-03  0.000  13.6
                              *** Initializing SOSCF ***
---------------------------------------S-O-S-C-F--------------------------------------
Iteration    Energy (Eh)           Delta-E    RMSDP     MaxDP     MaxGrad    Time(sec)
--------------------------------------------------------------------------------------
    7    -2426.0272871499664689    -1.72e-04  4.17e-05  1.56e-03  2.57e-03    12.5
               *** Restarting incremental Fock matrix formation ***
    8    -2426.0273819749700124    -9.48e-05  3.82e-05  1.35e-03  2.71e-04    36.7
    9    -2426.0273850203138863    -3.05e-06  2.35e-05  1.04e-03  3.52e-04    20.7
   10    -2426.0273914809131384    -6.46e-06  1.40e-05  6.69e-04  1.19e-04    18.0
   11    -2426.0273923417407786    -8.61e-07  5.17e-06  2.35e-04  7.41e-05    16.9
                 **** Energy Check signals convergence ****

               *****************************************************
               *                     SUCCESS                       *
               *           SCF CONVERGED AFTER  11 CYCLES          *
               *****************************************************

Recomputing exchange energy using gridx3       ... done (   62.207 sec)
Old exchange energy                            :    -50.231919552 Eh
New exchange energy                            :    -50.232002893 Eh
Exchange energy change after final integration :     -0.000083341 Eh
Total energy after final integration           :  -2426.027475683 Eh
             **** ENERGY FILE WAS UPDATED (/home/nmrbox/aojoawo/Documents/ERDOS/inputs/CHEMBL3913924.en.tmp) ****

----------------
TOTAL SCF ENERGY
----------------

Total Energy       :      -2426.02747568278573 Eh          -66015.56378 eV

Components:
Nuclear Repulsion  :       3611.03973843021049 Eh           98261.38680 eV
Electronic Energy  :      -6037.06713077195127 Eh         -164276.94831 eV
One Electron Energy:     -10521.53992299734091 Eh         -286305.65680 eV
Two Electron Energy:       4484.47279222538964 Eh          122028.70850 eV

Virial components:
Potential Energy   :      -4840.77702871604743 Eh         -131724.23968 eV
Kinetic Energy     :       2414.74955303326169 Eh           65708.67590 eV
Virial Ratio       :          2.00467043161282

DFT components:
N(Alpha)           :      127.000095872588 electrons
N(Beta)            :      127.000095872588 electrons
N(Total)           :      254.000191745177 electrons
E(X)               :     -199.763865013841 Eh       
E(C)               :      -10.763934272394 Eh       
E(XC)              :     -210.527799286236 Eh       

---------------
SCF CONVERGENCE
---------------

  Last Energy change         ...    8.6083e-07  Tolerance :   1.0000e-06
  Last MAX-Density change    ...    2.3497e-04  Tolerance :   1.0000e-05
  Last RMS-Density change    ...    5.1710e-06  Tolerance :   1.0000e-06
  Last DIIS Error            ...    2.5702e-03  Tolerance :   1.0000e-06
  Last Orbital Gradient      ...    7.4062e-05  Tolerance :   5.0000e-05
  Last Orbital Rotation      ...    1.4519e-04  Tolerance :   5.0000e-05


----------------
ORBITAL ENERGIES
----------------

  NO   OCC          E(Eh)            E(eV) 
   0   2.0000     -88.936580     -2420.0874 
   1   2.0000     -88.908698     -2419.3287 
   2   2.0000     -24.717264      -672.5909 
   3   2.0000     -24.714429      -672.5138 
   4   2.0000     -24.712085      -672.4500 
   5   2.0000     -24.690009      -671.8493 
   6   2.0000     -19.125627      -520.4348 
   7   2.0000     -19.113351      -520.1007 
   8   2.0000     -19.112802      -520.0858 
   9   2.0000     -14.427044      -392.5798 
  10   2.0000     -14.402529      -391.9127 
  11   2.0000     -14.392129      -391.6298 
  12   2.0000     -14.371682      -391.0734 
  13   2.0000     -14.323215      -389.7545 
  14   2.0000     -10.431688      -283.8607 
  15   2.0000     -10.340399      -281.3766 
  16   2.0000     -10.300505      -280.2910 
  17   2.0000     -10.297000      -280.1956 
  18   2.0000     -10.289419      -279.9893 
  19   2.0000     -10.286764      -279.9171 
  20   2.0000     -10.276123      -279.6275 
  21   2.0000     -10.262379      -279.2535 
  22   2.0000     -10.252275      -278.9786 
  23   2.0000     -10.230412      -278.3837 
  24   2.0000     -10.221224      -278.1336 
  25   2.0000     -10.214215      -277.9429 
  26   2.0000     -10.213749      -277.9303 
  27   2.0000     -10.213213      -277.9157 
  28   2.0000     -10.212157      -277.8869 
  29   2.0000     -10.209285      -277.8088 
  30   2.0000     -10.201900      -277.6078 
  31   2.0000     -10.200048      -277.5574 
  32   2.0000     -10.198635      -277.5190 
  33   2.0000      -8.010768      -217.9841 
  34   2.0000      -7.986391      -217.3207 
  35   2.0000      -5.975074      -162.5900 
  36   2.0000      -5.969782      -162.4460 
  37   2.0000      -5.966792      -162.3647 
  38   2.0000      -5.949428      -161.8922 
  39   2.0000      -5.945369      -161.7817 
  40   2.0000      -5.943241      -161.7238 
  41   2.0000      -1.275733       -34.7145 
  42   2.0000      -1.202092       -32.7106 
  43   2.0000      -1.201438       -32.6928 
  44   2.0000      -1.199554       -32.6415 
  45   2.0000      -1.081402       -29.4264 
  46   2.0000      -1.026220       -27.9249 
  47   2.0000      -1.017233       -27.6803 
  48   2.0000      -1.003656       -27.3109 
  49   2.0000      -0.974095       -26.5065 
  50   2.0000      -0.971669       -26.4404 
  51   2.0000      -0.945072       -25.7167 
  52   2.0000      -0.913877       -24.8679 
  53   2.0000      -0.872599       -23.7446 
  54   2.0000      -0.827052       -22.5052 
  55   2.0000      -0.816692       -22.2233 
  56   2.0000      -0.813973       -22.1493 
  57   2.0000      -0.796395       -21.6710 
  58   2.0000      -0.765253       -20.8236 
  59   2.0000      -0.755785       -20.5660 
  60   2.0000      -0.748225       -20.3602 
  61   2.0000      -0.734642       -19.9906 
  62   2.0000      -0.714861       -19.4524 
  63   2.0000      -0.690815       -18.7980 
  64   2.0000      -0.666684       -18.1414 
  65   2.0000      -0.651258       -17.7216 
  66   2.0000      -0.635413       -17.2905 
  67   2.0000      -0.631054       -17.1719 
  68   2.0000      -0.610930       -16.6243 
  69   2.0000      -0.600773       -16.3479 
  70   2.0000      -0.596764       -16.2388 
  71   2.0000      -0.578101       -15.7309 
  72   2.0000      -0.566544       -15.4164 
  73   2.0000      -0.564505       -15.3610 
  74   2.0000      -0.562861       -15.3162 
  75   2.0000      -0.551260       -15.0005 
  76   2.0000      -0.534198       -14.5363 
  77   2.0000      -0.523619       -14.2484 
  78   2.0000      -0.519721       -14.1423 
  79   2.0000      -0.508442       -13.8354 
  80   2.0000      -0.497889       -13.5482 
  81   2.0000      -0.494646       -13.4600 
  82   2.0000      -0.486268       -13.2320 
  83   2.0000      -0.478901       -13.0316 
  84   2.0000      -0.475249       -12.9322 
  85   2.0000      -0.469783       -12.7834 
  86   2.0000      -0.459437       -12.5019 
  87   2.0000      -0.453549       -12.3417 
  88   2.0000      -0.450228       -12.2513 
  89   2.0000      -0.444017       -12.0823 
  90   2.0000      -0.443355       -12.0643 
  91   2.0000      -0.441211       -12.0060 
  92   2.0000      -0.438566       -11.9340 
  93   2.0000      -0.437486       -11.9046 
  94   2.0000      -0.429421       -11.6851 
  95   2.0000      -0.422552       -11.4982 
  96   2.0000      -0.417317       -11.3558 
  97   2.0000      -0.416035       -11.3209 
  98   2.0000      -0.413040       -11.2394 
  99   2.0000      -0.407746       -11.0953 
 100   2.0000      -0.406340       -11.0571 
 101   2.0000      -0.401539       -10.9264 
 102   2.0000      -0.394639       -10.7387 
 103   2.0000      -0.393731       -10.7140 
 104   2.0000      -0.389826       -10.6077 
 105   2.0000      -0.386137       -10.5073 
 106   2.0000      -0.384620       -10.4660 
 107   2.0000      -0.377444       -10.2708 
 108   2.0000      -0.376022       -10.2321 
 109   2.0000      -0.371460       -10.1079 
 110   2.0000      -0.365120        -9.9354 
 111   2.0000      -0.358603        -9.7581 
 112   2.0000      -0.344637        -9.3781 
 113   2.0000      -0.341338        -9.2883 
 114   2.0000      -0.327327        -8.9070 
 115   2.0000      -0.308552        -8.3961 
 116   2.0000      -0.294869        -8.0238 
 117   2.0000      -0.283451        -7.7131 
 118   2.0000      -0.281892        -7.6707 
 119   2.0000      -0.273839        -7.4515 
 120   2.0000      -0.268334        -7.3017 
 121   2.0000      -0.261897        -7.1266 
 122   2.0000      -0.252882        -6.8813 
 123   2.0000      -0.249732        -6.7955 
 124   2.0000      -0.249441        -6.7876 
 125   2.0000      -0.226781        -6.1710 
 126   2.0000      -0.214469        -5.8360 
 127   0.0000      -0.051372        -1.3979 
 128   0.0000      -0.046809        -1.2737 
 129   0.0000      -0.036864        -1.0031 
 130   0.0000      -0.021375        -0.5816 
 131   0.0000      -0.007510        -0.2044 
 132   0.0000      -0.003654        -0.0994 
 133   0.0000       0.011648         0.3170 
 134   0.0000       0.018222         0.4959 
 135   0.0000       0.032323         0.8796 
 136   0.0000       0.060364         1.6426 
 137   0.0000       0.064598         1.7578 
*Only the first 10 virtual orbitals were printed.

                    ********************************
                    * MULLIKEN POPULATION ANALYSIS *
                    ********************************

-----------------------
MULLIKEN ATOMIC CHARGES
-----------------------
   0 C :   -0.315456
   1 N :   -0.480147
   2 C :    0.516840
   3 O :   -0.467059
   4 C :    0.058654
   5 C :    0.177153
   6 C :   -0.404740
   7 C :    0.553153
   8 O :   -0.391140
   9 N :   -0.658284
  10 C :    0.252780
  11 N :   -0.358727
  12 C :    0.227303
  13 C :    0.041319
  14 C :   -0.171401
  15 C :   -0.174136
  16 C :    0.002079
  17 C :    0.898455
  18 F :   -0.306143
  19 F :   -0.303764
  20 F :   -0.296199
  21 C :   -0.245777
  22 C :    0.378354
  23 F :   -0.282565
  24 C :   -0.392084
  25 S :    0.251174
  26 N :   -0.497842
  27 S :    0.394525
  28 C :    0.042887
  29 N :   -0.448639
  30 C :   -0.337417
  31 C :    0.687660
  32 O :   -0.496687
  33 H :    0.189153
  34 H :    0.203344
  35 H :    0.185392
  36 H :    0.226025
  37 H :    0.162461
  38 H :    0.348564
  39 H :    0.140303
  40 H :    0.151169
  41 H :    0.167088
  42 H :    0.181603
  43 H :    0.216442
  44 H :    0.181049
  45 H :    0.193277
Sum of atomic charges:    0.0000000

--------------------------------
MULLIKEN REDUCED ORBITAL CHARGES
--------------------------------
  0 C s       :     3.270754  s :     3.270754
      pz      :     0.950982  p :     2.999614
      px      :     1.110491
      py      :     0.938142
      dz2     :     0.003191  d :     0.045087
      dxz     :     0.012762
      dyz     :     0.013898
      dx2y2   :     0.011996
      dxy     :     0.003241

  1 N s       :     3.606453  s :     3.606453
      pz      :     1.196662  p :     3.836228
      px      :     1.459883
      py      :     1.179683
      dz2     :     0.009690  d :     0.037466
      dxz     :     0.006695
      dyz     :     0.008235
      dx2y2   :     0.006262
      dxy     :     0.006583

  2 C s       :     2.953129  s :     2.953129
      pz      :     0.802230  p :     2.422081
      px      :     0.787251
      py      :     0.832600
      dz2     :     0.022050  d :     0.107950
      dxz     :     0.019217
      dyz     :     0.028697
      dx2y2   :     0.021957
      dxy     :     0.016029

  3 O s       :     3.895999  s :     3.895999
      pz      :     1.715897  p :     4.544858
      px      :     1.408845
      py      :     1.420116
      dz2     :     0.002918  d :     0.026201
      dxz     :     0.001974
      dyz     :     0.005473
      dx2y2   :     0.008052
      dxy     :     0.007784

  4 C s       :     3.121433  s :     3.121433
      pz      :     0.920754  p :     2.780838
      px      :     1.034629
      py      :     0.825455
      dz2     :     0.008994  d :     0.039075
      dxz     :     0.005585
      dyz     :     0.011082
      dx2y2   :     0.006590
      dxy     :     0.006825

  5 C s       :     3.126623  s :     3.126623
      pz      :     0.915069  p :     2.636921
      px      :     0.923348
      py      :     0.798504
      dz2     :     0.014107  d :     0.059303
      dxz     :     0.008801
      dyz     :     0.014931
      dx2y2   :     0.010479
      dxy     :     0.010986

  6 C s       :     3.283438  s :     3.283438
      pz      :     1.028669  p :     3.082997
      px      :     0.969221
      py      :     1.085107
      dz2     :     0.011563  d :     0.038306
      dxz     :     0.004633
      dyz     :     0.004510
      dx2y2   :     0.009726
      dxy     :     0.007874

  7 C s       :     3.004529  s :     3.004529
      pz      :     0.772087  p :     2.343089
      px      :     0.814115
      py      :     0.756887
      dz2     :     0.018759  d :     0.099228
      dxz     :     0.024537
      dyz     :     0.016640
      dx2y2   :     0.021169
      dxy     :     0.018124

  8 O s       :     3.898242  s :     3.898242
      pz      :     1.335042  p :     4.466088
      px      :     1.711504
      py      :     1.419542
      dz2     :     0.008582  d :     0.026810
      dxz     :     0.004576
      dyz     :     0.006656
      dx2y2   :     0.003389
      dxy     :     0.003607

  9 N s       :     3.621234  s :     3.621234
      pz      :     1.379440  p :     4.008704
      px      :     1.191329
      py      :     1.437935
      dz2     :     0.004561  d :     0.028347
      dxz     :     0.005680
      dyz     :     0.005749
      dx2y2   :     0.005855
      dxy     :     0.006502

 10 C s       :     3.044867  s :     3.044867
      pz      :     0.890854  p :     2.628318
      px      :     0.774449
      py      :     0.963015
      dz2     :     0.014918  d :     0.074035
      dxz     :     0.020708
      dyz     :     0.011218
      dx2y2   :     0.014701
      dxy     :     0.012490

 11 N s       :     3.743432  s :     3.743432
      pz      :     1.185684  p :     3.575123
      px      :     1.125206
      py      :     1.264233
      dz2     :     0.010845  d :     0.040172
      dxz     :     0.006093
      dyz     :     0.007538
      dx2y2   :     0.007151
      dxy     :     0.008545

 12 C s       :     3.058214  s :     3.058214
      pz      :     0.912205  p :     2.655084
      px      :     0.802167
      py      :     0.940712
      dz2     :     0.011612  d :     0.059399
      dxz     :     0.016524
      dyz     :     0.007155
      dx2y2   :     0.012355
      dxy     :     0.011753

 13 C s       :     3.154335  s :     3.154335
      pz      :     0.924218  p :     2.765492
      px      :     0.947451
      py      :     0.893824
      dz2     :     0.007414  d :     0.038854
      dxz     :     0.008404
      dyz     :     0.007666
      dx2y2   :     0.008003
      dxy     :     0.007368

 14 C s       :     3.195744  s :     3.195744
      pz      :     0.982293  p :     2.939906
      px      :     0.979126
      py      :     0.978488
      dz2     :     0.006225  d :     0.035751
      dxz     :     0.007017
      dyz     :     0.008503
      dx2y2   :     0.007084
      dxy     :     0.006922

 15 C s       :     3.204731  s :     3.204731
      pz      :     0.958505  p :     2.933385
      px      :     0.994400
      py      :     0.980480
      dz2     :     0.008257  d :     0.036020
      dxz     :     0.006856
      dyz     :     0.007149
      dx2y2   :     0.005516
      dxy     :     0.008242

 16 C s       :     3.155893  s :     3.155893
      pz      :     0.941735  p :     2.803478
      px      :     0.932546
      py      :     0.929197
      dz2     :     0.006979  d :     0.038550
      dxz     :     0.009031
      dyz     :     0.007006
      dx2y2   :     0.007807
      dxy     :     0.007728

 17 C s       :     2.801547  s :     2.801547
      pz      :     0.815037  p :     2.161716
      px      :     0.706085
      py      :     0.640593
      dz2     :     0.023721  d :     0.138282
      dxz     :     0.031209
      dyz     :     0.025346
      dx2y2   :     0.022108
      dxy     :     0.035898

 18 F s       :     3.980768  s :     3.980768
      pz      :     1.859553  p :     5.309090
      px      :     1.780055
      py      :     1.669482
      dz2     :     0.002207  d :     0.016285
      dxz     :     0.002339
      dyz     :     0.003241
      dx2y2   :     0.003342
      dxy     :     0.005157

 19 F s       :     3.980173  s :     3.980173
      pz      :     1.687407  p :     5.307215
      px      :     1.753684
      py      :     1.866124
      dz2     :     0.003673  d :     0.016376
      dxz     :     0.005710
      dyz     :     0.002936
      dx2y2   :     0.001901
      dxy     :     0.002157

 20 F s       :     3.976696  s :     3.976696
      pz      :     1.889147  p :     5.303113
      px      :     1.753738
      py      :     1.660229
      dz2     :     0.001969  d :     0.016390
      dxz     :     0.002204
      dyz     :     0.003039
      dx2y2   :     0.003455
      dxy     :     0.005723

 21 C s       :     3.226585  s :     3.226585
      pz      :     0.990197  p :     2.984929
      px      :     0.993876
      py      :     1.000856
      dz2     :     0.006490  d :     0.034263
      dxz     :     0.006988
      dyz     :     0.007517
      dx2y2   :     0.006653
      dxy     :     0.006615

 22 C s       :     3.115793  s :     3.115793
      pz      :     0.906031  p :     2.433476
      px      :     0.700519
      py      :     0.826926
      dz2     :     0.012981  d :     0.072377
      dxz     :     0.014176
      dyz     :     0.012149
      dx2y2   :     0.016433
      dxy     :     0.016638

 23 F s       :     3.979552  s :     3.979552
      pz      :     1.882116  p :     5.285114
      px      :     1.633701
      py      :     1.769297
      dz2     :     0.002293  d :     0.017898
      dxz     :     0.003429
      dyz     :     0.001974
      dx2y2   :     0.004533
      dxy     :     0.005670

 24 C s       :     3.267772  s :     3.267772
      pz      :     0.991441  p :     3.090424
      px      :     0.973312
      py      :     1.125670
      dz2     :     0.007343  d :     0.033888
      dxz     :     0.008897
      dyz     :     0.004786
      dx2y2   :     0.005717
      dxy     :     0.007145

 25 S s       :     5.795234  s :     5.795234
      pz      :     3.369988  p :     9.846640
      px      :     3.014773
      py      :     3.461879
      dz2     :     0.012750  d :     0.106953
      dxz     :     0.037379
      dyz     :     0.014422
      dx2y2   :     0.016215
      dxy     :     0.026187

 26 N s       :     3.776497  s :     3.776497
      pz      :     1.365319  p :     3.682468
      px      :     1.223091
      py      :     1.094058
      dz2     :     0.006975  d :     0.038877
      dxz     :     0.008223
      dyz     :     0.012366
      dx2y2   :     0.005605
      dxy     :     0.005708

 27 S s       :     5.804062  s :     5.804062
      pz      :     2.968788  p :     9.671833
      px      :     3.446462
      py      :     3.256582
      dz2     :     0.028433  d :     0.129580
      dxz     :     0.023964
      dyz     :     0.044174
      dx2y2   :     0.014839
      dxy     :     0.018169

 28 C s       :     3.100447  s :     3.100447
      pz      :     0.784777  p :     2.793783
      px      :     1.002594
      py      :     1.006411
      dz2     :     0.015833  d :     0.062884
      dxz     :     0.013354
      dyz     :     0.016255
      dx2y2   :     0.009346
      dxy     :     0.008095

 29 N s       :     3.586939  s :     3.586939
      pz      :     1.153294  p :     3.821276
      px      :     1.473976
      py      :     1.194006
      dz2     :     0.008867  d :     0.040424
      dxz     :     0.007648
      dyz     :     0.011068
      dx2y2   :     0.006742
      dxy     :     0.006099

 30 C s       :     3.284309  s :     3.284309
      pz      :     1.093360  p :     3.007092
      px      :     1.067231
      py      :     0.846501
      dz2     :     0.005150  d :     0.046016
      dxz     :     0.009805
      dyz     :     0.009428
      dx2y2   :     0.008114
      dxy     :     0.013519

 31 C s       :     2.845794  s :     2.845794
      pz      :     0.737866  p :     2.343912
      px      :     0.832410
      py      :     0.773636
      dz2     :     0.027620  d :     0.122634
      dxz     :     0.021354
      dyz     :     0.041332
      dx2y2   :     0.015124
      dxy     :     0.017204

 32 O s       :     3.889531  s :     3.889531
      pz      :     1.351895  p :     4.581431
      px      :     1.489169
      py      :     1.740366
      dz2     :     0.009560  d :     0.025725
      dxz     :     0.008355
      dyz     :     0.005490
      dx2y2   :     0.001422
      dxy     :     0.000899

 33 H s       :     0.810847  s :     0.810847

 34 H s       :     0.796656  s :     0.796656

 35 H s       :     0.814608  s :     0.814608

 36 H s       :     0.773975  s :     0.773975

 37 H s       :     0.837539  s :     0.837539

 38 H s       :     0.651436  s :     0.651436

 39 H s       :     0.859697  s :     0.859697

 40 H s       :     0.848831  s :     0.848831

 41 H s       :     0.832912  s :     0.832912

 42 H s       :     0.818397  s :     0.818397

 43 H s       :     0.783558  s :     0.783558

 44 H s       :     0.818951  s :     0.818951

 45 H s       :     0.806723  s :     0.806723



                     *******************************
                     * LOEWDIN POPULATION ANALYSIS *
                     *******************************

----------------------
LOEWDIN ATOMIC CHARGES
----------------------
   0 C :   -0.259017
   1 N :   -0.027191
   2 C :    0.114685
   3 O :   -0.267255
   4 C :   -0.123513
   5 C :    0.044164
   6 C :   -0.242603
   7 C :    0.152260
   8 O :   -0.217135
   9 N :   -0.209109
  10 C :   -0.081770
  11 N :   -0.143744
  12 C :   -0.003028
  13 C :   -0.032483
  14 C :   -0.117089
  15 C :   -0.126142
  16 C :   -0.065582
  17 C :    0.310953
  18 F :   -0.112839
  19 F :   -0.113077
  20 F :   -0.112665
  21 C :   -0.136666
  22 C :    0.137155
  23 F :   -0.074494
  24 C :   -0.346007
  25 S :    0.389527
  26 N :   -0.338675
  27 S :    0.469090
  28 C :   -0.118851
  29 N :   -0.022733
  30 C :   -0.261063
  31 C :    0.145403
  32 O :   -0.303906
  33 H :    0.149170
  34 H :    0.157474
  35 H :    0.144551
  36 H :    0.179980
  37 H :    0.141811
  38 H :    0.268290
  39 H :    0.138659
  40 H :    0.143562
  41 H :    0.155317
  42 H :    0.159939
  43 H :    0.164534
  44 H :    0.144085
  45 H :    0.146030

-------------------------------
LOEWDIN REDUCED ORBITAL CHARGES
-------------------------------
  0 C s       :     2.971601  s :     2.971601
      pz      :     1.029236  p :     3.198191
      px      :     1.153871
      py      :     1.015084
      dz2     :     0.006601  d :     0.089225
      dxz     :     0.024569
      dyz     :     0.028601
      dx2y2   :     0.023023
      dxy     :     0.006431

  1 N s       :     3.084085  s :     3.084085
      pz      :     1.217496  p :     3.845286
      px      :     1.421377
      py      :     1.206413
      dz2     :     0.025527  d :     0.097820
      dxz     :     0.016559
      dyz     :     0.024695
      dx2y2   :     0.014779
      dxy     :     0.016259

  2 C s       :     2.820957  s :     2.820957
      pz      :     0.941849  p :     2.807115
      px      :     0.874271
      py      :     0.990994
      dz2     :     0.054330  d :     0.257243
      dxz     :     0.046364
      dyz     :     0.069248
      dx2y2   :     0.048737
      dxy     :     0.038564

  3 O s       :     3.585179  s :     3.585179
      pz      :     1.718767  p :     4.630558
      px      :     1.432851
      py      :     1.478940
      dz2     :     0.006687  d :     0.051517
      dxz     :     0.003859
      dyz     :     0.010354
      dx2y2   :     0.013629
      dxy     :     0.016988

  4 C s       :     2.855885  s :     2.855885
      pz      :     1.046108  p :     3.158729
      px      :     1.076146
      py      :     1.036475
      dz2     :     0.026650  d :     0.108898
      dxz     :     0.014293
      dyz     :     0.031858
      dx2y2   :     0.017381
      dxy     :     0.018717

  5 C s       :     2.877286  s :     2.877286
      pz      :     1.006791  p :     2.939848
      px      :     0.944169
      py      :     0.988889
      dz2     :     0.033746  d :     0.138702
      dxz     :     0.019730
      dyz     :     0.037058
      dx2y2   :     0.024141
      dxy     :     0.024027

  6 C s       :     2.933211  s :     2.933211
      pz      :     1.084918  p :     3.227092
      px      :     1.035310
      py      :     1.106863
      dz2     :     0.023510  d :     0.082300
      dxz     :     0.010926
      dyz     :     0.008683
      dx2y2   :     0.021882
      dxy     :     0.017299

  7 C s       :     2.865216  s :     2.865216
      pz      :     0.911616  p :     2.753505
      px      :     0.964067
      py      :     0.877823
      dz2     :     0.039048  d :     0.229019
      dxz     :     0.058100
      dyz     :     0.042402
      dx2y2   :     0.047747
      dxy     :     0.041723

  8 O s       :     3.597249  s :     3.597249
      pz      :     1.394825  p :     4.567903
      px      :     1.722778
      py      :     1.450299
      dz2     :     0.013394  d :     0.051984
      dxz     :     0.009894
      dyz     :     0.016152
      dx2y2   :     0.005639
      dxy     :     0.006905

  9 N s       :     3.151683  s :     3.151683
      pz      :     1.356056  p :     3.987752
      px      :     1.210211
      py      :     1.421485
      dz2     :     0.011158  d :     0.069674
      dxz     :     0.014552
      dyz     :     0.011558
      dx2y2   :     0.014915
      dxy     :     0.017491

 10 C s       :     2.896564  s :     2.896564
      pz      :     1.025623  p :     3.014370
      px      :     0.960641
      py      :     1.028106
      dz2     :     0.033691  d :     0.170836
      dxz     :     0.049825
      dyz     :     0.026597
      dx2y2   :     0.032776
      dxy     :     0.027946

 11 N s       :     3.256431  s :     3.256431
      pz      :     1.285699  p :     3.801251
      px      :     1.209487
      py      :     1.306066
      dz2     :     0.023603  d :     0.086062
      dxz     :     0.014979
      dyz     :     0.014941
      dx2y2   :     0.014313
      dxy     :     0.018225

 12 C s       :     2.860890  s :     2.860890
      pz      :     1.017106  p :     2.998606
      px      :     0.986131
      py      :     0.995369
      dz2     :     0.027621  d :     0.143533
      dxz     :     0.040519
      dyz     :     0.018128
      dx2y2   :     0.029472
      dxy     :     0.027793

 13 C s       :     2.874758  s :     2.874758
      pz      :     1.007283  p :     3.060434
      px      :     1.026167
      py      :     1.026985
      dz2     :     0.017513  d :     0.097290
      dxz     :     0.020767
      dyz     :     0.019915
      dx2y2   :     0.019400
      dxy     :     0.019695

 14 C s       :     2.913573  s :     2.913573
      pz      :     1.044535  p :     3.119561
      px      :     1.030900
      py      :     1.044125
      dz2     :     0.015086  d :     0.083955
      dxz     :     0.018826
      dyz     :     0.017909
      dx2y2   :     0.016269
      dxy     :     0.015865

 15 C s       :     2.914509  s :     2.914509
      pz      :     1.038229  p :     3.126944
      px      :     1.053161
      py      :     1.035554
      dz2     :     0.019558  d :     0.084688
      dxz     :     0.016581
      dyz     :     0.019024
      dx2y2   :     0.012482
      dxy     :     0.017044

 16 C s       :     2.886364  s :     2.886364
      pz      :     1.009091  p :     3.081280
      px      :     1.028124
      py      :     1.044065
      dz2     :     0.017117  d :     0.097938
      dxz     :     0.022647
      dyz     :     0.018223
      dx2y2   :     0.019143
      dxy     :     0.020807

 17 C s       :     2.849551  s :     2.849551
      pz      :     0.900408  p :     2.509842
      px      :     0.826088
      py      :     0.783347
      dz2     :     0.053284  d :     0.329654
      dxz     :     0.079404
      dyz     :     0.057731
      dx2y2   :     0.048766
      dxy     :     0.090469

 18 F s       :     3.758637  s :     3.758637
      pz      :     1.857806  p :     5.323286
      px      :     1.784790
      py      :     1.680690
      dz2     :     0.003846  d :     0.030916
      dxz     :     0.004429
      dyz     :     0.006372
      dx2y2   :     0.005682
      dxy     :     0.010586

 19 F s       :     3.759922  s :     3.759922
      pz      :     1.697193  p :     5.322071
      px      :     1.758401
      py      :     1.866477
      dz2     :     0.006557  d :     0.031084
      dxz     :     0.011743
      dyz     :     0.005512
      dx2y2   :     0.003361
      dxy     :     0.003912

 20 F s       :     3.761329  s :     3.761329
      pz      :     1.882476  p :     5.320001
      px      :     1.761810
      py      :     1.675715
      dz2     :     0.004297  d :     0.031335
      dxz     :     0.003909
      dyz     :     0.005393
      dx2y2   :     0.005370
      dxy     :     0.012366

 21 C s       :     2.920208  s :     2.920208
      pz      :     1.042387  p :     3.135433
      px      :     1.035726
      py      :     1.057321
      dz2     :     0.015425  d :     0.081024
      dxz     :     0.018911
      dyz     :     0.016151
      dx2y2   :     0.015042
      dxy     :     0.015496

 22 C s       :     2.863790  s :     2.863790
      pz      :     1.020549  p :     2.822602
      px      :     0.853345
      py      :     0.948708
      dz2     :     0.030800  d :     0.176453
      dxz     :     0.036249
      dyz     :     0.029203
      dx2y2   :     0.038107
      dxy     :     0.042094

 23 F s       :     3.738629  s :     3.738629
      pz      :     1.879775  p :     5.300426
      px      :     1.647323
      py      :     1.773328
      dz2     :     0.004550  d :     0.035440
      dxz     :     0.006615
      dyz     :     0.003879
      dx2y2   :     0.008877
      dxy     :     0.011518

 24 C s       :     2.982698  s :     2.982698
      pz      :     1.066948  p :     3.283346
      px      :     1.080896
      py      :     1.135502
      dz2     :     0.017119  d :     0.079964
      dxz     :     0.024304
      dyz     :     0.012323
      dx2y2   :     0.011676
      dxy     :     0.014541

 25 S s       :     5.520171  s :     5.520171
      pz      :     3.433337  p :     9.963667
      px      :     3.054615
      py      :     3.475716
      dz2     :     0.013362  d :     0.126635
      dxz     :     0.045230
      dyz     :     0.016642
      dx2y2   :     0.019331
      dxy     :     0.032069

 26 N s       :     3.386620  s :     3.386620
      pz      :     1.430978  p :     3.871506
      px      :     1.255658
      py      :     1.184869
      dz2     :     0.010431  d :     0.080550
      dxz     :     0.014154
      dyz     :     0.027766
      dx2y2   :     0.014165
      dxy     :     0.014034

 27 S s       :     5.545890  s :     5.545890
      pz      :     3.012997  p :     9.828496
      px      :     3.458092
      py      :     3.357407
      dz2     :     0.035971  d :     0.156524
      dxz     :     0.031078
      dyz     :     0.053519
      dx2y2   :     0.016068
      dxy     :     0.019888

 28 C s       :     2.883702  s :     2.883702
      pz      :     0.993488  p :     3.082399
      px      :     1.007974
      py      :     1.080937
      dz2     :     0.039300  d :     0.152750
      dxz     :     0.030614
      dyz     :     0.042607
      dx2y2   :     0.021258
      dxy     :     0.018972

 29 N s       :     3.059762  s :     3.059762
      pz      :     1.197250  p :     3.857215
      px      :     1.442036
      py      :     1.217929
      dz2     :     0.025777  d :     0.105756
      dxz     :     0.018459
      dyz     :     0.031896
      dx2y2   :     0.015577
      dxy     :     0.014046

 30 C s       :     2.973012  s :     2.973012
      pz      :     1.137112  p :     3.197274
      px      :     1.112334
      py      :     0.947828
      dz2     :     0.009716  d :     0.090778
      dxz     :     0.018160
      dyz     :     0.019070
      dx2y2   :     0.016589
      dxy     :     0.027242

 31 C s       :     2.803606  s :     2.803606
      pz      :     0.959035  p :     2.766361
      px      :     0.886470
      py      :     0.920856
      dz2     :     0.066471  d :     0.284629
      dxz     :     0.047544
      dyz     :     0.097916
      dx2y2   :     0.033389
      dxy     :     0.039310

 32 O s       :     3.587328  s :     3.587328
      pz      :     1.429192  p :     4.666127
      px      :     1.498688
      py      :     1.738247
      dz2     :     0.021008  d :     0.050451
      dxz     :     0.016232
      dyz     :     0.009339
      dx2y2   :     0.002237
      dxy     :     0.001635

 33 H s       :     0.850830  s :     0.850830

 34 H s       :     0.842526  s :     0.842526

 35 H s       :     0.855449  s :     0.855449

 36 H s       :     0.820020  s :     0.820020

 37 H s       :     0.858189  s :     0.858189

 38 H s       :     0.731710  s :     0.731710

 39 H s       :     0.861341  s :     0.861341

 40 H s       :     0.856438  s :     0.856438

 41 H s       :     0.844683  s :     0.844683

 42 H s       :     0.840061  s :     0.840061

 43 H s       :     0.835466  s :     0.835466

 44 H s       :     0.855915  s :     0.855915

 45 H s       :     0.853970  s :     0.853970



                      *****************************
                      * MAYER POPULATION ANALYSIS *
                      *****************************

  NA   - Mulliken gross atomic population
  ZA   - Total nuclear charge
  QA   - Mulliken gross atomic charge
  VA   - Mayer's total valence
  BVA  - Mayer's bonded valence
  FA   - Mayer's free valence

  ATOM       NA         ZA         QA         VA         BVA        FA
  0 C      6.3155     6.0000    -0.3155     3.7632     3.7632     0.0000
  1 N      7.4801     7.0000    -0.4801     3.0559     3.0559    -0.0000
  2 C      5.4832     6.0000     0.5168     3.9099     3.9099     0.0000
  3 O      8.4671     8.0000    -0.4671     2.0638     2.0638     0.0000
  4 C      5.9413     6.0000     0.0587     3.8717     3.8717     0.0000
  5 C      5.8228     6.0000     0.1772     3.9225     3.9225     0.0000
  6 C      6.4047     6.0000    -0.4047     3.7665     3.7665    -0.0000
  7 C      5.4468     6.0000     0.5532     3.9057     3.9057    -0.0000
  8 O      8.3911     8.0000    -0.3911     2.1141     2.1141     0.0000
  9 N      7.6583     7.0000    -0.6583     2.9027     2.9027    -0.0000
 10 C      5.7472     6.0000     0.2528     3.8137     3.8137    -0.0000
 11 N      7.3587     7.0000    -0.3587     2.9786     2.9786     0.0000
 12 C      5.7727     6.0000     0.2273     3.9740     3.9740    -0.0000
 13 C      5.9587     6.0000     0.0413     3.8646     3.8646     0.0000
 14 C      6.1714     6.0000    -0.1714     3.9102     3.9102     0.0000
 15 C      6.1741     6.0000    -0.1741     3.9373     3.9373    -0.0000
 16 C      5.9979     6.0000     0.0021     3.9343     3.9343     0.0000
 17 C      5.1015     6.0000     0.8985     3.9183     3.9183     0.0000
 18 F      9.3061     9.0000    -0.3061     1.0568     1.0568    -0.0000
 19 F      9.3038     9.0000    -0.3038     1.0539     1.0539    -0.0000
 20 F      9.2962     9.0000    -0.2962     1.0568     1.0568     0.0000
 21 C      6.2458     6.0000    -0.2458     3.8757     3.8757     0.0000
 22 C      5.6216     6.0000     0.3784     3.7901     3.7901     0.0000
 23 F      9.2826     9.0000    -0.2826     1.0894     1.0894    -0.0000
 24 C      6.3921     6.0000    -0.3921     3.7626     3.7626    -0.0000
 25 S     15.7488    16.0000     0.2512     2.4669     2.4669    -0.0000
 26 N      7.4978     7.0000    -0.4978     2.8486     2.8486    -0.0000
 27 S     15.6055    16.0000     0.3945     2.4997     2.4997     0.0000
 28 C      5.9571     6.0000     0.0429     3.7189     3.7189     0.0000
 29 N      7.4486     7.0000    -0.4486     3.1005     3.1005     0.0000
 30 C      6.3374     6.0000    -0.3374     3.7592     3.7592    -0.0000
 31 C      5.3123     6.0000     0.6877     3.9407     3.9407    -0.0000
 32 O      8.4967     8.0000    -0.4967     2.0404     2.0404    -0.0000
 33 H      0.8108     1.0000     0.1892     0.9331     0.9331    -0.0000
 34 H      0.7967     1.0000     0.2033     0.9347     0.9347    -0.0000
 35 H      0.8146     1.0000     0.1854     0.9262     0.9262    -0.0000
 36 H      0.7740     1.0000     0.2260     0.9343     0.9343    -0.0000
 37 H      0.8375     1.0000     0.1625     0.9285     0.9285    -0.0000
 38 H      0.6514     1.0000     0.3486     0.8548     0.8548    -0.0000
 39 H      0.8597     1.0000     0.1403     0.9401     0.9401    -0.0000
 40 H      0.8488     1.0000     0.1512     0.9429     0.9429    -0.0000
 41 H      0.8329     1.0000     0.1671     0.9395     0.9395    -0.0000
 42 H      0.8184     1.0000     0.1816     0.9378     0.9378     0.0000
 43 H      0.7836     1.0000     0.2164     0.9309     0.9309    -0.0000
 44 H      0.8190     1.0000     0.1810     0.9284     0.9284     0.0000
 45 H      0.8067     1.0000     0.1933     0.9202     0.9202     0.0000

  Mayer bond orders larger than 0.100000
B(  0-C ,  1-N ) :   0.9142 B(  0-C , 33-H ) :   0.9290 B(  0-C , 34-H ) :   0.9200 
B(  0-C , 35-H ) :   0.9386 B(  1-N ,  2-C ) :   0.9706 B(  1-N , 31-C ) :   1.0518 
B(  2-C ,  3-O ) :   1.7939 B(  2-C ,  4-C ) :   1.0778 B(  4-C ,  5-C ) :   1.2566 
B(  4-C , 28-C ) :   1.3511 B(  5-C ,  6-C ) :   0.9911 B(  5-C , 26-N ) :   1.5152 
B(  6-C ,  7-C ) :   0.9486 B(  6-C , 36-H ) :   0.8925 B(  6-C , 37-H ) :   0.9141 
B(  7-C ,  8-O ) :   1.9212 B(  7-C ,  9-N ) :   0.9758 B(  9-N , 10-C ) :   0.9528 
B(  9-N , 38-H ) :   0.8163 B( 10-C , 11-N ) :   1.5123 B( 10-C , 24-C ) :   0.1083 
B( 10-C , 25-S ) :   1.1339 B( 11-N , 12-C ) :   1.2695 B( 12-C , 13-C ) :   1.0315 
B( 12-C , 24-C ) :   1.5111 B( 13-C , 14-C ) :   1.3973 B( 13-C , 22-C ) :   1.2983 
B( 14-C , 15-C ) :   1.4321 B( 14-C , 39-H ) :   0.9210 B( 15-C , 16-C ) :   1.4085 
B( 15-C , 40-H ) :   0.9194 B( 16-C , 17-C ) :   0.9806 B( 16-C , 21-C ) :   1.3801 
B( 17-C , 18-F ) :   0.9457 B( 17-C , 19-F ) :   0.9527 B( 17-C , 20-F ) :   0.9856 
B( 21-C , 22-C ) :   1.3750 B( 21-C , 41-H ) :   0.9096 B( 22-C , 23-F ) :   0.9555 
B( 24-C , 25-S ) :   1.1223 B( 24-C , 42-H ) :   0.9028 B( 26-N , 27-S ) :   1.0954 
B( 26-N , 28-C ) :   0.1312 B( 27-S , 28-C ) :   1.1548 B( 28-C , 29-N ) :   0.9995 
B( 29-N , 30-C ) :   0.9237 B( 29-N , 31-C ) :   1.0234 B( 30-C , 43-H ) :   0.9205 
B( 30-C , 44-H ) :   0.9240 B( 30-C , 45-H ) :   0.9315 B( 31-C , 32-O ) :   1.7969 


-------
TIMINGS
-------

Total SCF time: 0 days 0 hours 4 min 43 sec 

Total time                  ....     283.701 sec
Sum of individual times     ....     283.092 sec  ( 99.8%)

SCF preparation             ....       0.319 sec  (  0.1%)
Fock matrix formation       ....     280.559 sec  ( 98.9%)
  Startup                   ....       0.100 sec  (  0.0% of F)
  Split-RI-J                ....      38.241 sec  ( 13.6% of F)
  Chain of spheres X        ....     216.913 sec  ( 77.3% of F)
  XC integration            ....      24.331 sec  (  8.7% of F)
    XC Preparation          ....       0.000 sec  (  0.0% of XC)
    Basis function eval.    ....       9.181 sec  ( 37.7% of XC)
    Density eval.           ....       5.480 sec  ( 22.5% of XC)
    XC-Functional eval.     ....       1.140 sec  (  4.7% of XC)
    XC-Potential eval.      ....       7.102 sec  ( 29.2% of XC)
Diagonalization             ....       0.000 sec  (  0.0%)
Density matrix formation    ....       0.477 sec  (  0.2%)
Total Energy calculation    ....       0.088 sec  (  0.0%)
Population analysis         ....       0.069 sec  (  0.0%)
Orbital Transformation      ....       0.190 sec  (  0.1%)
Orbital Orthonormalization  ....       0.000 sec  (  0.0%)
DIIS solution               ....       0.920 sec  (  0.3%)
SOSCF solution              ....       0.470 sec  (  0.2%)
Finished LeanSCF after 283.8 sec

Maximum memory used throughout the entire LEANSCF-calculation: 76.5 MB

-------------------------   --------------------
FINAL SINGLE POINT ENERGY     -2426.027475682786
-------------------------   --------------------


------------------------------------------------------------------------------
                              ORCA PROPERTY CALCULATIONS
------------------------------------------------------------------------------

GBWName                                 ... /home/nmrbox/aojoawo/Documents/ERDOS/inputs/CHEMBL3913924.gbw
Number of atoms                         ...     46
Number of basis functions               ...    496
Max core memory                         ...   1024 MB

Electric properties:
Dipole moment                           ... YES
Quadrupole moment                       ...  NO
Static polarizability (Dipole/Dipole)   ...  NO
Static polarizability (Dipole/Quad.)    ...  NO
Static polarizability (Quad./Quad.)     ...  NO
Static polarizability (Velocity)        ...  NO

Atomic electric properties:
Dipole moment                           ...  NO
Quadrupole moment                       ...  NO
Static polarizability                   ...  NO

Choice of electric origin               ... Center of mass
Position of electric origin             ...     0.805926    -0.005931     0.075576

General magnetic properties:
Magnetizability                         ...  NO

EPR properties:
g-Tensor (aka g-matrix)                 ...  NO
Zero-Field splitting spin-orbit         ...  NO
Zero-field splitting spin-spin          ...  NO
Hyperfine couplings                     ...  NO (   0 nuclei)
Quadrupole couplings                    ...  NO (   0 nuclei)
Contact density                         ...  NO (   0 nuclei)

NMR properties:
Chemical shifts                         ...  NO (   0 nuclei)
Spin-rotation constants                 ...  NO (   0 nuclei)
Spin-spin couplings                     ...  NO (   0 nuclei,    0 pairs)

Choice of magnetic origin               ... GIAO
Position of magnetic origin             ...     0.000000     0.000000     0.000000

Properties with geometric perturbations:
SCF Hessian                             ...  NO
IR spectrum                             ...  NO
VCD spectrum                            ...  NO
X-ray spectroscopy properties:
SCF XES/XAS/RIXS spectra                ...  NO


-------------
DIPOLE MOMENT
-------------

Method             : SCF
Type of density    : Electron Density
Multiplicity       :   1
Irrep              :   0
Energy             : -2426.0274756827857345 Eh
Relativity type    : 
Basis              : AO
                                X                 Y                 Z
Electronic contribution:     35.628549783       5.424985581      -6.994271997
Nuclear contribution   :    -36.862240868      -7.457246869       8.436422276
                        -----------------------------------------
Total Dipole Moment    :     -1.233691085      -2.032261288       1.442150278
                        -----------------------------------------
Magnitude (a.u.)       :      2.780625300
Magnitude (Debye)      :      7.067787827



--------------------
Rotational spectrum 
--------------------
 
Rotational constants in cm-1:             0.005449             0.001677             0.001425 
Rotational constants in MHz :           163.354674            50.290131            42.717682 

Dipole components along the rotational axes: 
x,y,z [a.u.] :    -1.772461     1.582605    -1.444168 
x,y,z [Debye]:    -4.505238     4.022662    -3.670783 

 

Dipole moment calculation done in   0.0 sec 

Maximum memory used throughout the entire PROP-calculation: 37.9 MB

--------------------------------
SUGGESTED CITATIONS FOR THIS RUN
--------------------------------

Below you find a list of papers that are relevant to this ORCA run
We neither can nor want to force you to cite these papers, but we appreciate if you do
You receive ORCA, which is the product of decades of hard work by many enthusiastic individuals, for free
The only thing we kindly ask in return is that you cite our papers,
We deeply appreciate it, if you show your appreciation for ORCA by not just citing the generic ORCA reference.

Please note that relegating all ORCA citations to the supporting information does *not* help us.
SI sections are not indexed - citations you put there will not count into any citation statistics
But we need these citations in order to attract the funding resources that allow us to do what we are doing

Therefore, if you are a happy ORCA user, please consider citing a few of the papers listed below in the main body of your paper

In addition to the list printed below, the program has created the file /home/nmrbox/aojoawo/Documents/ERDOS/inputs/CHEMBL3913924.bibtex that contains the list in bibtex format
You can import this file easily into all common literature databanks and citation aid programs


List of essential papers. We consider these as the minimum necessary citations

  1. Neese,F.
     Software update: the ORCA program system, version 5.0
     WIRES Comput. Molec. Sci., 2022 12(1)e1606
     doi.org/10.1002/wcms.1606

List of papers to cite with high priority. The work reported in these papers was absolutely
necessary for this run to complete.
Our perspective: the developers of density functionals and basis sets usually get cited in chemistry papers
Good! But without the algorithms to do something with them, the functionals or basis sets would not do anything.
Hence, in our opinion, the algorithm design and method developments papers are equally worthy of getting cited

  1. Neese,F.
     An improvement of the resolution of the identity approximation for the formation of the Coulomb matrix
     J. Comp. Chem., 2003 24(14)1740-1747
     doi.org/10.1002/jcc.10318
  2. Neese,F.; Wennmohs,F.; Hansen,A.; Becker,U.
     Efficient, approximate and parallel Hartree-Fock and hybrid DFT calculations. A 'chain-of-spheres' algorithm for the Hartree-Fock exchange
     Chem. Phys., 2009 356(1-3)98-109
     doi.org/10.1016/j.chemphys.2008.10.036
  3. Helmich-Paris,B.; de Souza,B.; Neese,F.; Izsák,R.
     An improved chain of spheres for exchange algorithm
     J. Chem. Phys., 2021 155 104109
     doi.org/doi: 10.1063/5.0058766.
  4. Neese,F.
     The SHARK Integral Generation and Digestion System
     J. Comp. Chem., 2022  1-16
     doi.org/10.1002/jcc.26942

List of suggested additional citations. These are papers that are important in the 'surrounding' of 
of this run, or papers that preceded the highly important papers. If you like your results we are grateful for a citation.

  1. Izsak,R.; Neese,F.
     An overlap fitted chain of spheres exchange method
     J. Chem. Phys., 2011 135 144105
     doi.org/10.1063/1.3646921
  2. Izsak,R.; Hansen,A.; Neese,F.
     The resolution of identity and chain of spheres approximations for the LPNO-CCSD singles Fock term
     Molec. Phys., 2012 110 2413-2417
     doi.org/10.1080/00268976.2012.687466
  3. Neese,F.
     The ORCA program system
     WIRES Comput. Molec. Sci., 2012 2(1)73-78
     doi.org/10.1002/wcms.81
  4. Izsak,R.; Neese,F.; Klopper,W.
     Robust fitting techniques in the chain of spheres approximation to the Fock exchange: The role of the complementary space
     J. Chem. Phys., 2013 139 
     doi.org/10.1063/1.4819264
  5. Neese,F.
     Software update: the ORCA program system, version 4.0
     WIRES Comput. Molec. Sci., 2018 8(1)1-6
     doi.org/10.1002/wcms.1327
  6. Neese,F.; Wennmohs,F.; Becker,U.; Riplinger,C.
     The ORCA quantum chemistry program package
     J. Chem. Phys., 2020 152 Art. No. L224108
     doi.org/10.1063/5.0004608

List of optional additional citations

  1. Neese,F.
     Approximate second-order SCF convergence for spin unrestricted wavefunctions
     Chem. Phys. Lett., 2000 325(1-3)93-98
     doi.org/10.1016/s0009-2614(00)00662-x

Timings for individual modules:

Sum of individual times          ...      296.565 sec (=   4.943 min)
Startup calculation              ...        8.540 sec (=   0.142 min)   2.9 %
SCF iterations                   ...      287.836 sec (=   4.797 min)  97.1 %
Property calculations            ...        0.189 sec (=   0.003 min)   0.1 %
                             ****ORCA TERMINATED NORMALLY****
TOTAL RUN TIME: 0 days 0 hours 4 minutes 57 seconds 396 msec
