
                                 *****************
                                 * O   R   C   A *
                                 *****************

                                            #,                                       
                                            ###                                      
                                            ####                                     
                                            #####                                    
                                            ######                                   
                                           ########,                                 
                                     ,,################,,,,,                         
                               ,,#################################,,                 
                          ,,##########################################,,             
                       ,#########################################, ''#####,          
                    ,#############################################,,   '####,        
                  ,##################################################,,,,####,       
                ,###########''''           ''''###############################       
              ,#####''   ,,,,##########,,,,          '''####'''          '####       
            ,##' ,,,,###########################,,,                        '##       
           ' ,,###''''                  '''############,,,                           
         ,,##''                                '''############,,,,        ,,,,,,###''
      ,#''                                            '''#######################'''  
     '                                                          ''''####''''         
             ,#######,   #######,   ,#######,      ##                                
            ,#'     '#,  ##    ##  ,#'     '#,    #''#        ,####,   ,####,        
            ##       ##  ##   ,#'  ##            #'  '#       #'       #'  '#        
            ##       ##  #######   ##           ,######,      #####,   #    #        
            '#,     ,#'  ##    ##  '#,     ,#' ,#      #,     #,   #   #,  ,#        
             '#######'   ##     ##  '#######'  #'      '#     '####' # '####'        



                #########################################################
                #                        -***-                          #
                #          Department of theory and spectroscopy        #
                #                                                       #
                #                      Frank Neese                      #
                #                                                       #
                #     Directorship, Architecture, Infrastructure        #
                #                    SHARK, DRIVERS                     #
                #        Core code/Algorithms in most modules           #
                #                                                       #
                #        Max Planck Institute fuer Kohlenforschung      #
                #                Kaiser Wilhelm Platz 1                 #
                #                 D-45470 Muelheim/Ruhr                 #
                #                      Germany                          #
                #                                                       #
                #                  All rights reserved                  #
                #                        -***-                          #
                #########################################################


                         Program Version 6.0.0  -   RELEASE  -


 With contributions from (in alphabetic order):
   Daniel Aravena         : Magnetic Suceptibility
   Michael Atanasov       : Ab Initio Ligand Field Theory (pilot matlab implementation)
   Alexander A. Auer      : GIAO ZORA, VPT2 properties, NMR spectrum
   Ute Becker             : All parallelization in ORCA, NUMFREQ, NUMCALC
   Giovanni Bistoni       : ED, misc. LED, open-shell LED, HFLD
   Martin Brehm           : Molecular dynamics
   Dmytro Bykov           : pre 5.0 version of the SCF Hessian
   Marcos Casanova-Páez   : Triplet and SCS-CIS(D). UHF-(DLPNO)-IP/EA/STEOM-CCSD. UHF-CVS-IP/STEOM-CCSD
   Vijay G. Chilkuri      : MRCI spin determinant printing, contributions to CSF-ICE
   Pauline Colinet        : FMM embedding
   Dipayan Datta          : RHF DLPNO-CCSD density
   Achintya Kumar Dutta   : EOM-CC, STEOM-CC
   Nicolas Foglia         : Exact transition moments, OPA infrastructure, MCD improvements
   Dmitry Ganyushin       : Spin-Orbit,Spin-Spin,Magnetic field MRCI
   Miquel Garcia          : C-PCM and meta-GGA Hessian, CCSD/C-PCM, Gaussian charge scheme
   Tiago L. C. Gouveia    : GS-ROHF, GS-ROCIS
   Yang Guo               : DLPNO-NEVPT2, F12-NEVPT2, CIM, IAO-localization
   Andreas Hansen         : Spin unrestricted coupled pair/coupled cluster methods
   Ingolf Harden          : AUTO-CI MPn and infrastructure 
   Benjamin Helmich-Paris : MC-RPA, TRAH-(SCF,CASSCF), AVAS, COSX integrals, SCF dyn. polar.
   Lee Huntington         : MR-EOM, pCC
   Robert Izsak           : Overlap fitted RIJCOSX, COSX-SCS-MP3, EOM
   Riya Kayal             : Wick's Theorem for AUTO-CI, AUTO-CI UHF-CCSDT
   Emily Kempfer          : AUTO-CI, RHF CISDT and CCSDT
   Christian Kollmar      : KDIIS, OOCD, Brueckner-CCSD(T), CCSD density, CASPT2, CASPT2-K, improved NEVPT2
   Axel Koslowski         : Symmetry handling
   Simone Kossmann        : Meta GGA functionals, TD-DFT gradient, OOMP2, (MP2 Hessian; deprecated post 5.0)
   Lucas Lang             : DCDCAS
   Marvin Lechner         : AUTO-CI (C++ implementation), FIC-MRCC
   Spencer Leger          : CASSCF response
   Dagmar Lenk            : GEPOL surface, SMD, ORCA-2-JSON
   Dimitrios Liakos       : Extrapolation schemes; Compound Job, initial MDCI parallelization
   Dimitrios Manganas     : Further ROCIS development; embedding schemes. LFT, Crystal Embedding
   Dimitrios Pantazis     : SARC Basis sets
   Anastasios Papadopoulos: AUTO-CI, single reference methods and gradients
   Taras Petrenko         : pre 6.0 DFT Hessian and TD-DFT gradient, (ASA, deprecated), ECA, 1-Electron XAS/XES, NRVS
   Peter Pinski           : DLPNO-MP2, DLPNO-MP2 Gradient
   Christoph Reimann      : Effective Core Potentials
   Marius Retegan         : Local ZFS, SOC
   Christoph Riplinger    : Optimizer, TS searches, QM/MM, DLPNO-CCSD(T), (RO)-DLPNO pert. Triples
   Michael Roemelt        : Original ROCIS implementation
   Masaaki Saitow         : Open-shell DLPNO-CCSD energy and density
   Barbara Sandhoefer     : DKH picture change effects
   Kantharuban Sivalingam : CASSCF convergence/infrastructure, NEVPT2 and variants, FIC-MRCI
   Bernardo de Souza      : ESD, SOC TD-DFT
   Georgi Stoychev        : AutoAux, RI-MP2 NMR, DLPNO-MP2 response, X2C
   Van Anh Tran           : RI-MP2 g-tensors
   Willem Van den Heuvel  : Paramagnetic NMR
   Zikuan Wang            : NOTCH, Electric field optimization 
   Frank Wennmohs         : Technical directorship and infrastructure
   Hang Xu                : AUTO-CI-Response properties 


 We gratefully acknowledge several colleagues who have allowed us to
 interface, adapt or use parts of their codes:
   Stefan Grimme, W. Hujo, H. Kruse, P. Pracht,  : VdW corrections, initial TS optimization,
                  C. Bannwarth, S. Ehlert,         DFT functionals, gCP, sTDA/sTD-DF
                  L. Wittmann, M. Mueller
   Ed Valeev, F. Pavosevic, A. Kumar             : LibInt (2-el integral package), F12 methods
   Garnet Chan, S. Sharma, J. Yang, R. Olivares  : DMRG
   Ulf Ekstrom                                   : XCFun DFT Library
   Mihaly Kallay                                 : mrcc  (arbitrary order and MRCC methods)
   Frank Weinhold                                : gennbo (NPA and NBO analysis)
   Simon Mueller                                 : openCOSMO-RS
   Christopher J. Cramer and Donald G. Truhlar   : smd solvation model
   Lars Goerigk                                  : TD-DFT with DH, B97 family of functionals
   V. Asgeirsson, H. Jonsson                     : NEB implementation
   FAccTs GmbH                                   : IRC, NEB, NEB-TS, DLPNO-Multilevel, CI-OPT
                                                   MM, QMMM, 2- and 3-layer-ONIOM, Crystal-QMMM,
                                                   LR-CPCM, SF, NACMEs, symmetry and pop. for TD-DFT,
                                                   nearIR, NL-DFT gradient (VV10), updates on ESD,
                                                   ML-optimized integration grids, MBIS, APM,
                                                   GOAT, DOCKER, SOLVATOR, interface openCOSMO-RS
   S Lehtola, MJT Oliveira, MAL Marques          : LibXC Library
   Liviu Ungur et al                             : ANISO software


 Your calculation uses the libint2 library for the computation of 2-el integrals
 For citations please refer to: http://libint.valeyev.net

 Your ORCA version has been built with support for libXC version: 6.2.2
 For citations please refer to: https://libxc.gitlab.io

 This ORCA versions uses:
   CBLAS   interface :  Fast vector & matrix operations
   LAPACKE interface :  Fast linear algebra routines
   SCALAPACK package :  Parallel linear algebra routines
   Shared memory     :  Shared parallel matrices
   BLAS/LAPACK       :  OpenBLAS 0.3.27  USE64BITINT DYNAMIC_ARCH NO_AFFINITY SkylakeX SINGLE_THREADED
        Core in use  :  SkylakeX
   Copyright (c) 2011-2014, The OpenBLAS Project


Warning: RI is on but no J-basis has been assigned. Assigning Def2/J (nothing to worry about!)
================================================================================

----- Orbital basis set information -----
Your calculation utilizes the basis: 6-31G*
   H-He, Li-Ne : W. J. Hehre, R. Ditchfield and J.A. Pople, J. Chem. Phys. 56, 2257 (1972).
                 Note: He and Ne are unpublished basis sets taken from the Gaussian program.
                 Note: Li and B from J. D. Dill and J. A. Pople, J. Chem. Phys. 62, 2921 (1975).
   Na - Ar     : M. M. Francl, W. J. Pietro, W. J. Hehre, J. S. Binkley, M. S. Gordon, 
                 D. J. DeFrees and J. A. Pople, J. Chem. Phys. 77, 3654 (1982).
   K - Zn      : V. A. Rassolov, J. A. Pople, M. A. Ratner, and T. L. Windus, J. Chem. Phys. 109, 1223 (1998).

----- AuxJ basis set information -----
Your calculation utilizes the auxiliary basis: def2/J
   F. Weigend, Phys. Chem. Chem. Phys. 8, 1057 (2006).

================================================================================
                                        WARNINGS
                       Please study these warnings very carefully!
================================================================================


================================================================================
                                       INPUT FILE
================================================================================
NAME = /home/nmrbox/aojoawo/Documents/ERDOS/inputs/CHEMBL3687349.inp
|  1> ! B3LYP 6-31G* SP
|  2> 
|  3> * xyz 0 1
|  4> C -0.5641 -1.3933 1.7711
|  5> C -1.1497 -1.6326 0.3971
|  6> C -1.5843 -0.5490 -0.4046
|  7> N -1.5034 0.8029 0.0640
|  8> C -0.5236 1.7191 -0.5203
|  9> C 0.8692 1.2364 -0.2220
| 10> C 1.4800 1.5546 0.9973
| 11> C 2.7261 1.0146 1.3268
| 12> C 3.3819 0.1247 0.4494
| 13> C 4.7521 -0.4812 0.7851
| 14> O 5.0317 -0.3028 2.1597
| 15> C 4.6501 -2.0268 0.5532
| 16> C 5.7822 -2.8543 1.1600
| 17> C 5.6296 -2.7823 -0.3473
| 18> C 5.8353 0.2410 -0.0800
| 19> F 7.1070 -0.1462 0.3044
| 20> F 5.6667 -0.0300 -1.4272
| 21> F 5.7406 1.6129 0.0908
| 22> C 2.7613 -0.1747 -0.7820
| 23> C 1.5183 0.3680 -1.1087
| 24> S -2.7179 1.4087 1.1451
| 25> O -3.6478 0.2999 1.5536
| 26> O -2.0551 1.9571 2.3781
| 27> C -3.6454 2.6617 0.3288
| 28> C -4.4405 2.3283 -0.7741
| 29> C -5.1702 3.3169 -1.4416
| 30> C -5.1104 4.6560 -1.0149
| 31> C -5.8791 5.7080 -1.7159
| 32> O -6.6104 5.4171 -2.7019
| 33> O -5.8008 7.0327 -1.2928
| 34> C -4.3058 4.9841 0.0901
| 35> C -3.5772 3.9944 0.7554
| 36> N -2.0506 -0.7734 -1.6612
| 37> C -2.1424 -2.0169 -2.1916
| 38> C -1.7441 -3.1300 -1.4469
| 39> C -1.8396 -4.4193 -1.9943
| 40> C -1.4415 -5.5293 -1.2482
| 41> C -0.9411 -5.3620 0.0430
| 42> C -0.8354 -4.0836 0.5982
| 43> C -1.2408 -2.9457 -0.1342
| 44> H -1.1806 -1.9116 2.5359
| 45> H -0.5288 -0.3241 2.0481
| 46> H 0.4773 -1.7770 1.8052
| 47> H -0.6591 2.7442 -0.1124
| 48> H -0.6860 1.7847 -1.6178
| 49> H 0.9830 2.2087 1.7027
| 50> H 3.1588 1.2885 2.2783
| 51> H 5.3714 0.6170 2.3103
| 52> H 3.6648 -2.5175 0.7173
| 53> H 5.4669 -3.8264 1.5944
| 54> H 6.6617 -2.2974 1.5464
| 55> H 5.2251 -3.7187 -0.7838
| 56> H 6.4731 -2.2487 -0.8261
| 57> H 3.2322 -0.8471 -1.4876
| 58> H 1.0513 0.0934 -2.0468
| 59> H -4.4916 1.3028 -1.1188
| 60> H -5.7767 3.0328 -2.2923
| 61> H -6.3195 7.7635 -1.7663
| 62> H -4.2361 6.0057 0.4409
| 63> H -2.9598 4.2717 1.5999
| 64> H -2.5246 -2.1324 -3.1984
| 65> H -2.2214 -4.5678 -2.9978
| 66> H -1.5175 -6.5208 -1.6741
| 67> H -0.6332 -6.2272 0.6173
| 68> H -0.4417 -4.0021 1.6021
| 69> *
| 70> 
| 71>                          ****END OF INPUT****
================================================================================

                       ****************************
                       * Single Point Calculation *
                       ****************************

---------------------------------
CARTESIAN COORDINATES (ANGSTROEM)
---------------------------------
  C     -0.564100   -1.393300    1.771100
  C     -1.149700   -1.632600    0.397100
  C     -1.584300   -0.549000   -0.404600
  N     -1.503400    0.802900    0.064000
  C     -0.523600    1.719100   -0.520300
  C      0.869200    1.236400   -0.222000
  C      1.480000    1.554600    0.997300
  C      2.726100    1.014600    1.326800
  C      3.381900    0.124700    0.449400
  C      4.752100   -0.481200    0.785100
  O      5.031700   -0.302800    2.159700
  C      4.650100   -2.026800    0.553200
  C      5.782200   -2.854300    1.160000
  C      5.629600   -2.782300   -0.347300
  C      5.835300    0.241000   -0.080000
  F      7.107000   -0.146200    0.304400
  F      5.666700   -0.030000   -1.427200
  F      5.740600    1.612900    0.090800
  C      2.761300   -0.174700   -0.782000
  C      1.518300    0.368000   -1.108700
  S     -2.717900    1.408700    1.145100
  O     -3.647800    0.299900    1.553600
  O     -2.055100    1.957100    2.378100
  C     -3.645400    2.661700    0.328800
  C     -4.440500    2.328300   -0.774100
  C     -5.170200    3.316900   -1.441600
  C     -5.110400    4.656000   -1.014900
  C     -5.879100    5.708000   -1.715900
  O     -6.610400    5.417100   -2.701900
  O     -5.800800    7.032700   -1.292800
  C     -4.305800    4.984100    0.090100
  C     -3.577200    3.994400    0.755400
  N     -2.050600   -0.773400   -1.661200
  C     -2.142400   -2.016900   -2.191600
  C     -1.744100   -3.130000   -1.446900
  C     -1.839600   -4.419300   -1.994300
  C     -1.441500   -5.529300   -1.248200
  C     -0.941100   -5.362000    0.043000
  C     -0.835400   -4.083600    0.598200
  C     -1.240800   -2.945700   -0.134200
  H     -1.180600   -1.911600    2.535900
  H     -0.528800   -0.324100    2.048100
  H      0.477300   -1.777000    1.805200
  H     -0.659100    2.744200   -0.112400
  H     -0.686000    1.784700   -1.617800
  H      0.983000    2.208700    1.702700
  H      3.158800    1.288500    2.278300
  H      5.371400    0.617000    2.310300
  H      3.664800   -2.517500    0.717300
  H      5.466900   -3.826400    1.594400
  H      6.661700   -2.297400    1.546400
  H      5.225100   -3.718700   -0.783800
  H      6.473100   -2.248700   -0.826100
  H      3.232200   -0.847100   -1.487600
  H      1.051300    0.093400   -2.046800
  H     -4.491600    1.302800   -1.118800
  H     -5.776700    3.032800   -2.292300
  H     -6.319500    7.763500   -1.766300
  H     -4.236100    6.005700    0.440900
  H     -2.959800    4.271700    1.599900
  H     -2.524600   -2.132400   -3.198400
  H     -2.221400   -4.567800   -2.997800
  H     -1.517500   -6.520800   -1.674100
  H     -0.633200   -6.227200    0.617300
  H     -0.441700   -4.002100    1.602100

----------------------------
CARTESIAN COORDINATES (A.U.)
----------------------------
  NO LB      ZA    FRAG     MASS         X           Y           Z
   0 C     6.0000    0    12.011   -1.065995   -2.632955    3.346894
   1 C     6.0000    0    12.011   -2.172618   -3.085167    0.750410
   2 C     6.0000    0    12.011   -2.993893   -1.037460   -0.764583
   3 N     7.0000    0    14.007   -2.841014    1.517261    0.120942
   4 C     6.0000    0    12.011   -0.989461    3.248628   -0.983225
   5 C     6.0000    0    12.011    1.642550    2.336457   -0.419519
   6 C     6.0000    0    12.011    2.796795    2.937768    1.884624
   7 C     6.0000    0    12.011    5.151582    1.917316    2.507289
   8 C     6.0000    0    12.011    6.390865    0.235649    0.849243
   9 C     6.0000    0    12.011    8.980168   -0.909336    1.483624
  10 O     8.0000    0    15.999    9.508535   -0.572209    4.081242
  11 C     6.0000    0    12.011    8.787415   -3.830097    1.045396
  12 C     6.0000    0    12.011   10.926774   -5.393845    2.192082
  13 C     6.0000    0    12.011   10.638402   -5.257785   -0.656302
  14 C     6.0000    0    12.011   11.027119    0.455424   -0.151178
  15 F     9.0000    0    18.998   13.430284   -0.276278    0.575233
  16 F     9.0000    0    18.998   10.708511   -0.056692   -2.697017
  17 F     9.0000    0    18.998   10.848162    3.047939    0.171587
  18 C     6.0000    0    12.011    5.218101   -0.330135   -1.477766
  19 C     6.0000    0    12.011    2.869171    0.695419   -2.095139
  20 S    16.0000    0    32.060   -5.136087    2.662057    2.163925
  21 O     8.0000    0    15.999   -6.893343    0.566729    2.935879
  22 O     8.0000    0    15.999   -3.883576    3.698383    4.493958
  23 C     6.0000    0    12.011   -6.888808    5.029884    0.621342
  24 C     6.0000    0    12.011   -8.391329    4.399849   -1.462837
  25 C     6.0000    0    12.011   -9.770262    6.268033   -2.724229
  26 C     6.0000    0    12.011   -9.657256    8.798565   -1.917883
  27 C     6.0000    0    12.011  -11.109889   10.786557   -3.242581
  28 O     8.0000    0    15.999  -12.491846   10.236835   -5.105851
  29 O     8.0000    0    15.999  -10.961923   13.289877   -2.443038
  30 C     6.0000    0    12.011   -8.136783    9.418584    0.170264
  31 C     6.0000    0    12.011   -6.759928    7.548322    1.427499
  32 N     7.0000    0    14.007   -3.875072   -1.461514   -3.139213
  33 C     6.0000    0    12.011   -4.048549   -3.811389   -4.141524
  34 C     6.0000    0    12.011   -3.295871   -5.914843   -2.734245
  35 C     6.0000    0    12.011   -3.476340   -8.351267   -3.768681
  36 C     6.0000    0    12.011   -2.724040  -10.448863   -2.358756
  37 C     6.0000    0    12.011   -1.778421  -10.132712    0.081258
  38 C     6.0000    0    12.011   -1.578677   -7.716886    1.130434
  39 C     6.0000    0    12.011   -2.344772   -5.566566   -0.253601
  40 H     1.0000    0     1.008   -2.231011   -3.612400    4.792157
  41 H     1.0000    0     1.008   -0.999287   -0.612460    3.870348
  42 H     1.0000    0     1.008    0.901966   -3.358043    3.411334
  43 H     1.0000    0     1.008   -1.245518    5.185786   -0.212405
  44 H     1.0000    0     1.008   -1.296352    3.372594   -3.057199
  45 H     1.0000    0     1.008    1.857601    4.173838    3.217637
  46 H     1.0000    0     1.008    5.969267    2.434912    4.305363
  47 H     1.0000    0     1.008   10.150475    1.165961    4.365834
  48 H     1.0000    0     1.008    6.925468   -4.757386    1.355501
  49 H     1.0000    0     1.008   10.330944   -7.230848    3.012979
  50 H     1.0000    0     1.008   12.588789   -4.341457    2.922272
  51 H     1.0000    0     1.008    9.874008   -7.027325   -1.481167
  52 H     1.0000    0     1.008   12.232386   -4.249427   -1.561103
  53 H     1.0000    0     1.008    6.107973   -1.600787   -2.811157
  54 H     1.0000    0     1.008    1.986669    0.176500   -3.867891
  55 H     1.0000    0     1.008   -8.487894    2.461935   -2.114226
  56 H     1.0000    0     1.008  -10.916381    5.731161   -4.331819
  57 H     1.0000    0     1.008  -11.942124   14.670889   -3.337823
  58 H     1.0000    0     1.008   -8.005069   11.349128    0.833180
  59 H     1.0000    0     1.008   -5.593211    8.072343    3.023373
  60 H     1.0000    0     1.008   -4.770803   -4.029652   -6.044100
  61 H     1.0000    0     1.008   -4.197838   -8.631891   -5.665021
  62 H     1.0000    0     1.008   -2.867659  -12.322526   -3.163591
  63 H     1.0000    0     1.008   -1.196575  -11.767703    1.166528
  64 H     1.0000    0     1.008   -0.834692   -7.562873    3.027530

--------------------------------
INTERNAL COORDINATES (ANGSTROEM)
--------------------------------
 C      0   0   0     0.000000000000     0.00000000     0.00000000
 C      1   0   0     1.512636059996     0.00000000     0.00000000
 C      2   1   0     1.416258807563   120.79348550     0.00000000
 N      3   2   1     1.433096081915   121.28840221   359.04590277
 C      4   3   2     1.463159926324   119.86282017   108.98281169
 C      5   4   3     1.503952798461   109.87524143   295.79668452
 C      6   5   4     1.400364370441   120.24543449   275.97636997
 C      7   6   5     1.397474672400   120.42561265   174.49927441
 C      8   7   6     1.411320803361   120.75741517   359.01607039
 C      9   8   7     1.535336230277   121.84323075   179.89069940
 O     10   9   8     1.414046632894   109.82962309    15.24877609
 C     10   9   8     1.566225070033   107.39430137   130.48434935
 C     12  10   9     1.527944010754   115.30214443   194.81840050
 C     13  12  10     1.516714887512    60.33515324   246.09136559
 C     10   9   8     1.563103672186   108.36685950   255.01178772
 F     15  10   9     1.383802041478   110.72123518   172.37475042
 F     15  10   9     1.384490808926   111.32859115   293.94481114
 F     15  10   9     1.385730976777   109.98925700    53.34488167
 C      9   8   7     1.411074299957   118.16090599     1.66808641
 C     19   9   8     1.395100419325   120.90907209   358.43926839
 S      4   3   2     1.735160251965   119.57536404   279.84771808
 O     21   4   3     1.503670076845   110.16166239     6.08575267
 O     21   4   3     1.503441186079   109.25415684   125.29442413
 C     21   4   3     1.759718994612   109.17724314   246.45559272
 C     24  21   4     1.399902846629   119.68585745    65.58549525
 C     25  24  21     1.398337691690   120.27083425   180.75513938
 C     26  25  24     1.406711676215   120.39926404     0.17567355
 C     27  26  25     1.479528536393   120.73428098   179.98373006
 O     28  27  26     1.261593635051   120.49846037     0.61838646
 O     28  27  26     1.392829706030   120.20685703   180.67805985
 C     27  26  25     1.405722508179   119.00968440     0.07128009
 C     31  27  26     1.397493520557   120.48694907   359.94370424
 N      3   2   1     1.358982932196   120.15737373   176.93275531
 C     33   3   2     1.355006881901   122.46120130     1.08486131
 C     34  33   3     1.397216014079   120.20878579   359.64555940
 C     35  34  33     1.403944977554   120.29136516   179.94227221
 C     36  35  34     1.395438576219   120.17338579   180.02036359
 C     37  36  35     1.394842962487   120.12454152   359.71013644
 C     38  37  36     1.397757521890   120.29964011     0.02342161
 C     39  38  37     1.412648339113   120.60301873     0.42325843
 H      1   2   3     1.110687255712   109.67976920   119.97301710
 H      1   2   3     1.105062771973   113.14901477     0.26816181
 H      1   2   3     1.110361409632   109.65296907   240.57745779
 H      5   4   3     1.111563165097   110.44443411   174.72103584
 H      5   4   3     1.111388037546   109.47893071    57.31561374
 H      7   6   5     1.082794980594   120.28434281   355.57162287
 H      8   7   6     1.080556685232   117.82287737   179.99347635
 H     11  10   9     0.992022424142   109.40618681   279.06703196
 H     12  10   9     1.112893251844   118.09547492   329.40982203
 H     13  12  10     1.110448494978   114.77656205   141.83104273
 H     13  12  10     1.110388589639   116.96472559   349.32467394
 H     14  13  12     1.109503249207   112.80484151   253.86932747
 H     14  13  12     1.107009778638   112.08928089   113.25235244
 H     19   9   8     1.082469366772   120.61827231   179.60007195
 H     20  19   9     1.083293944412   119.22730737   182.05767623
 H     25  24  21     1.083087969650   120.20057176     0.51355436
 H     26  25  24     1.082702890917   118.80762522   179.94553774
 H     30  28  27     1.013568241412   121.00213314   179.77074132
 H     31  27  26     1.082397935142   120.79132789   179.80307332
 H     32  31  27     1.082246875717   119.17329774   179.62684178
 H     34  33   3     1.083080481774   119.05444088   179.84715241
 H     36  35  34     1.083898399298   120.71438470     0.03504459
 H     37  36  35     1.081775882519   119.90229192   179.96544191
 H     38  37  36     1.083140775707   119.80120138   180.02784676
 H     39  38  37     1.081414421025   117.72288892   180.01300422

---------------------------
INTERNAL COORDINATES (A.U.)
---------------------------
 C      0   0   0     0.000000000000     0.00000000     0.00000000
 C      1   0   0     2.858467893686     0.00000000     0.00000000
 C      2   1   0     2.676341281048   120.79348550     0.00000000
 N      3   2   1     2.708159118415   121.28840221   359.04590277
 C      4   3   2     2.764971550880   119.86282017   108.98281169
 C      5   4   3     2.842058907437   109.87524143   295.79668452
 C      6   5   4     2.646305147834   120.24543449   275.97636997
 C      7   6   5     2.640844409928   120.42561265   174.49927441
 C      8   7   6     2.667009805458   120.75741517   359.01607039
 C      9   8   7     2.901364998710   121.84323075   179.89069940
 O     10   9   8     2.672160876764   109.82962309    15.24877609
 C     10   9   8     2.959736446444   107.39430137   130.48434935
 C     12  10   9     2.887395728291   115.30214443   194.81840050
 C     13  12  10     2.866175760639    60.33515324   246.09136559
 C     10   9   8     2.953837859357   108.36685950   255.01178772
 F     15  10   9     2.615006881955   110.72123518   172.37475042
 F     15  10   9     2.616308463801   111.32859115   293.94481114
 F     15  10   9     2.618652041400   109.98925700    53.34488167
 C      9   8   7     2.666543981534   118.16090599     1.66808641
 C     19   9   8     2.636357721842   120.90907209   358.43926839
 S      4   3   2     3.278977674680   119.57536404   279.84771808
 O     21   4   3     2.841524641010   110.16166239     6.08575267
 O     21   4   3     2.841092100148   109.25415684   125.29442413
 C     21   4   3     3.325386972477   109.17724314   246.45559272
 C     24  21   4     2.645432994226   119.68585745    65.58549525
 C     25  24  21     2.642475280033   120.27083425   180.75513938
 C     26  25  24     2.658299817436   120.39926404     0.17567355
 C     27  26  25     2.795903741103   120.73428098   179.98373006
 O     28  27  26     2.384066462544   120.49846037     0.61838646
 O     28  27  26     2.632066695587   120.20685703   180.67805985
 C     27  26  25     2.656430560746   119.00968440     0.07128009
 C     31  27  26     2.640880027783   120.48694907   359.94370424
 N      3   2   1     2.568105562524   120.15737373   176.93275531
 C     33   3   2     2.560591916372   122.46120130     1.08486131
 C     34  33   3     2.640355616539   120.20878579   359.64555940
 C     35  34  33     2.653071514672   120.29136516   179.94227221
 C     36  35  34     2.636996745763   120.17338579   180.02036359
 C     37  36  35     2.635871198928   120.12454152   359.71013644
 C     38  37  36     2.641378918000   120.29964011     0.02342161
 C     39  38  37     2.669518484463   120.60301873     0.42325843
 H      1   2   3     2.098894733731   109.67976920   119.97301710
 H      1   2   3     2.088265999820   113.14901477     0.26816181
 H      1   2   3     2.098278973879   109.65296907   240.57745779
 H      5   4   3     2.100549962588   110.44443411   174.72103584
 H      5   4   3     2.100219019478   109.47893071    57.31561374
 H      7   6   5     2.046185972508   120.28434281   355.57162287
 H      8   7   6     2.041956207267   117.82287737   179.99347635
 H     11  10   9     1.874650700337   109.40618681   279.06703196
 H     12  10   9     2.103063462274   118.09547492   329.40982203
 H     13  12  10     2.098443541334   114.77656205   141.83104273
 H     13  12  10     2.098330336648   116.96472559   349.32467394
 H     14  13  12     2.096657285696   112.80484151   253.86932747
 H     14  13  12     2.091945309198   112.08928089   113.25235244
 H     19   9   8     2.045570651558   120.61827231   179.60007195
 H     20  19   9     2.047128877474   119.22730737   182.05767623
 H     25  24  21     2.046739641583   120.20057176     0.51355436
 H     26  25  24     2.046011948238   118.80762522   179.94553774
 H     30  28  27     1.915366394310   121.00213314   179.77074132
 H     31  27  26     2.045435665341   120.79132789   179.80307332
 H     32  31  27     2.045150204398   119.17329774   179.62684178
 H     34  33   3     2.046725491549   119.05444088   179.84715241
 H     36  35  34     2.048271131668   120.71438470     0.03504459
 H     37  36  35     2.044260156242   119.90229192   179.96544191
 H     38  37  36     2.046839430570   119.80120138   180.02784676
 H     39  38  37     2.043577093010   117.72288892   180.01300422

---------------------
BASIS SET INFORMATION
---------------------
There are 6 groups of distinct atoms

 Group   1 Type C   : 10s4p1d contracted to 3s2p1d pattern {631/31/1}
 Group   2 Type N   : 10s4p1d contracted to 3s2p1d pattern {631/31/1}
 Group   3 Type O   : 10s4p1d contracted to 3s2p1d pattern {631/31/1}
 Group   4 Type F   : 10s4p1d contracted to 3s2p1d pattern {631/31/1}
 Group   5 Type S   : 16s10p1d contracted to 4s3p1d pattern {6631/631/1}
 Group   6 Type H   : 4s contracted to 2s pattern {31}

Atom   0C    basis set group =>   1
Atom   1C    basis set group =>   1
Atom   2C    basis set group =>   1
Atom   3N    basis set group =>   2
Atom   4C    basis set group =>   1
Atom   5C    basis set group =>   1
Atom   6C    basis set group =>   1
Atom   7C    basis set group =>   1
Atom   8C    basis set group =>   1
Atom   9C    basis set group =>   1
Atom  10O    basis set group =>   3
Atom  11C    basis set group =>   1
Atom  12C    basis set group =>   1
Atom  13C    basis set group =>   1
Atom  14C    basis set group =>   1
Atom  15F    basis set group =>   4
Atom  16F    basis set group =>   4
Atom  17F    basis set group =>   4
Atom  18C    basis set group =>   1
Atom  19C    basis set group =>   1
Atom  20S    basis set group =>   5
Atom  21O    basis set group =>   3
Atom  22O    basis set group =>   3
Atom  23C    basis set group =>   1
Atom  24C    basis set group =>   1
Atom  25C    basis set group =>   1
Atom  26C    basis set group =>   1
Atom  27C    basis set group =>   1
Atom  28O    basis set group =>   3
Atom  29O    basis set group =>   3
Atom  30C    basis set group =>   1
Atom  31C    basis set group =>   1
Atom  32N    basis set group =>   2
Atom  33C    basis set group =>   1
Atom  34C    basis set group =>   1
Atom  35C    basis set group =>   1
Atom  36C    basis set group =>   1
Atom  37C    basis set group =>   1
Atom  38C    basis set group =>   1
Atom  39C    basis set group =>   1
Atom  40H    basis set group =>   6
Atom  41H    basis set group =>   6
Atom  42H    basis set group =>   6
Atom  43H    basis set group =>   6
Atom  44H    basis set group =>   6
Atom  45H    basis set group =>   6
Atom  46H    basis set group =>   6
Atom  47H    basis set group =>   6
Atom  48H    basis set group =>   6
Atom  49H    basis set group =>   6
Atom  50H    basis set group =>   6
Atom  51H    basis set group =>   6
Atom  52H    basis set group =>   6
Atom  53H    basis set group =>   6
Atom  54H    basis set group =>   6
Atom  55H    basis set group =>   6
Atom  56H    basis set group =>   6
Atom  57H    basis set group =>   6
Atom  58H    basis set group =>   6
Atom  59H    basis set group =>   6
Atom  60H    basis set group =>   6
Atom  61H    basis set group =>   6
Atom  62H    basis set group =>   6
Atom  63H    basis set group =>   6
Atom  64H    basis set group =>   6
---------------------------------
AUXILIARY/J BASIS SET INFORMATION
---------------------------------
There are 6 groups of distinct atoms

 Group   1 Type C   : 12s5p4d2f1g contracted to 6s4p3d1f1g pattern {711111/2111/211/2/1}
 Group   2 Type N   : 12s5p4d2f1g contracted to 6s4p3d1f1g pattern {711111/2111/211/2/1}
 Group   3 Type O   : 12s5p4d2f1g contracted to 6s4p3d1f1g pattern {711111/2111/211/2/1}
 Group   4 Type F   : 12s5p4d2f1g contracted to 6s4p3d1f1g pattern {711111/2111/211/2/1}
 Group   5 Type S   : 14s5p5d2f1g contracted to 8s4p3d1f1g pattern {71111111/2111/311/2/1}
 Group   6 Type H   : 5s2p1d contracted to 3s1p1d pattern {311/2/1}

Atom   0C    basis set group =>   1
Atom   1C    basis set group =>   1
Atom   2C    basis set group =>   1
Atom   3N    basis set group =>   2
Atom   4C    basis set group =>   1
Atom   5C    basis set group =>   1
Atom   6C    basis set group =>   1
Atom   7C    basis set group =>   1
Atom   8C    basis set group =>   1
Atom   9C    basis set group =>   1
Atom  10O    basis set group =>   3
Atom  11C    basis set group =>   1
Atom  12C    basis set group =>   1
Atom  13C    basis set group =>   1
Atom  14C    basis set group =>   1
Atom  15F    basis set group =>   4
Atom  16F    basis set group =>   4
Atom  17F    basis set group =>   4
Atom  18C    basis set group =>   1
Atom  19C    basis set group =>   1
Atom  20S    basis set group =>   5
Atom  21O    basis set group =>   3
Atom  22O    basis set group =>   3
Atom  23C    basis set group =>   1
Atom  24C    basis set group =>   1
Atom  25C    basis set group =>   1
Atom  26C    basis set group =>   1
Atom  27C    basis set group =>   1
Atom  28O    basis set group =>   3
Atom  29O    basis set group =>   3
Atom  30C    basis set group =>   1
Atom  31C    basis set group =>   1
Atom  32N    basis set group =>   2
Atom  33C    basis set group =>   1
Atom  34C    basis set group =>   1
Atom  35C    basis set group =>   1
Atom  36C    basis set group =>   1
Atom  37C    basis set group =>   1
Atom  38C    basis set group =>   1
Atom  39C    basis set group =>   1
Atom  40H    basis set group =>   6
Atom  41H    basis set group =>   6
Atom  42H    basis set group =>   6
Atom  43H    basis set group =>   6
Atom  44H    basis set group =>   6
Atom  45H    basis set group =>   6
Atom  46H    basis set group =>   6
Atom  47H    basis set group =>   6
Atom  48H    basis set group =>   6
Atom  49H    basis set group =>   6
Atom  50H    basis set group =>   6
Atom  51H    basis set group =>   6
Atom  52H    basis set group =>   6
Atom  53H    basis set group =>   6
Atom  54H    basis set group =>   6
Atom  55H    basis set group =>   6
Atom  56H    basis set group =>   6
Atom  57H    basis set group =>   6
Atom  58H    basis set group =>   6
Atom  59H    basis set group =>   6
Atom  60H    basis set group =>   6
Atom  61H    basis set group =>   6
Atom  62H    basis set group =>   6
Atom  63H    basis set group =>   6
Atom  64H    basis set group =>   6
------------------------------------------------------------------------------
                             ORCA STARTUP CALCULATIONS
                           -- RI-GTO INTEGRALS CHOSEN --
------------------------------------------------------------------------------
------------------------------------------------------------------------------
                   ___                                                        
                  /   \      - P O W E R E D   B Y -                         
                 /     \                                                     
                 |  |  |   _    _      __       _____    __    __             
                 |  |  |  | |  | |    /  \     |  _  \  |  |  /  |          
                  \  \/   | |  | |   /    \    | | | |  |  | /  /          
                 / \  \   | |__| |  /  /\  \   | |_| |  |  |/  /          
                |  |  |   |  __  | /  /__\  \  |    /   |      \           
                |  |  |   | |  | | |   __   |  |    \   |  |\   \          
                \     /   | |  | | |  |  |  |  | |\  \  |  | \   \       
                 \___/    |_|  |_| |__|  |__|  |_| \__\ |__|  \__/        
                                                                              
                      - O R C A' S   B I G   F R I E N D -                    
                                      &                                       
                       - I N T E G R A L  F E E D E R -                       
                                                                              
 v1 FN, 2020, v2 2021, v3 2022-2024                                           
------------------------------------------------------------------------------


----------------------
SHARK INTEGRAL PACKAGE
----------------------

Number of atoms                             ...     65
Number of basis functions                   ...    614
Number of shells                            ...    292
Maximum angular momentum                    ...      2
Integral batch strategy                     ... SHARK/LIBINT Hybrid
RI-J (if used) integral strategy            ... SPLIT-RIJ (Revised 2003 algorithm where possible)
Printlevel                                  ...      1
Contraction scheme used                     ... SEGMENTED contraction
Prescreening option                         ... SCHWARTZ
   Thresh                                   ... 1.000e-10
   Tcut                                     ... 1.000e-11
   Tpresel                                  ... 1.000e-11 
Coulomb Range Separation                    ... NOT USED
Exchange Range Separation                   ... NOT USED
Multipole approximations                    ... NOT USED
Finite Nucleus Model                        ... NOT USED
CABS basis                                  ... NOT available
Auxiliary Coulomb fitting basis             ... AVAILABLE
   # of basis functions in Aux-J            ...   2237
   # of shells in Aux-J                     ...    727
   Maximum angular momentum in Aux-J        ...      4
Auxiliary J/K fitting basis                 ... NOT available
Auxiliary Correlation fitting basis         ... NOT available
Auxiliary 'external' fitting basis          ... NOT available

Checking pre-screening integrals            ... done (  0.0 sec) Dimension = 292
Check shell pair data                       ... done (  0.0 sec)
Shell pair information
Shell pair cut-off parameter TPreSel        ...   1.0e-11
Total number of shell pairs                 ...     42778
Shell pairs after pre-screening             ...     21452
Total number of primitive shell pairs       ...    254773
Primitive shell pairs kept                  ...     64127
          la=0 lb=0:   6912 shell pairs
          la=1 lb=0:   7623 shell pairs
          la=1 lb=1:   2098 shell pairs
          la=2 lb=0:   2851 shell pairs
          la=2 lb=1:   1663 shell pairs
          la=2 lb=2:    305 shell pairs

Calculating one electron integrals          ... done (  0.4 sec)
Calculating RI/J V-Matrix + Cholesky decomp.... done (  0.6 sec)
Calculating Nuclear repulsion               ... done (  0.0 sec) ENN=   4777.796861915393 Eh

Diagonalization of the overlap matrix:
Smallest eigenvalue                        ... 3.550e-04
Time for diagonalization                   ...    0.072 sec
Threshold for overlap eigenvalues          ... 1.000e-07
Number of eigenvalues below threshold      ... 0
Time for construction of square roots      ...    0.048 sec
Total time needed                          ...    0.129 sec

-------------------
DFT GRID GENERATION
-------------------

General Integration Accuracy     IntAcc      ... 4.388
Radial Grid Type                 RadialGrid  ... OptM3 with GC (2021)
Angular Grid (max. ang.)         AngularGrid ... 4 (Lebedev-302)
Angular grid pruning method      GridPruning ... 4 (adaptive)
Weight generation scheme         WeightScheme... mBecke (2022)
Basis function cutoff            BFCut       ... 1.0000e-10
Integration weight cutoff        WCut        ... 1.0000e-14
Partially contracted basis set               ... off
Rotationally invariant grid construction     ... off
Angular grids for H and He will be reduced by one unit

Total number of grid points                  ...   318994
Total number of batches                      ...     5018
Average number of points per batch           ...       63
Average number of grid points per atom       ...     4908

--------------------
COSX GRID GENERATION
--------------------

GRIDX 1
-------
General Integration Accuracy     IntAcc      ... 3.816
Radial Grid Type                 RadialGrid  ... OptM3 with GC (2021)
Angular Grid (max. ang.)         AngularGrid ... 1 (Lebedev-50)
Angular grid pruning method      GridPruning ... 4 (adaptive)
Weight generation scheme         WeightScheme... mBecke (2022)
Basis function cutoff            BFCut       ... 1.0000e-10
Integration weight cutoff        WCut        ... 1.0000e-14
Partially contracted basis set               ... on
Rotationally invariant grid construction     ... off
Angular grids for H and He will be reduced by one unit

Total number of grid points                  ...    41423
Total number of batches                      ...      357
Average number of points per batch           ...      116
Average number of grid points per atom       ...      637
UseSFitting                                  ... on

GRIDX 2
-------
General Integration Accuracy     IntAcc      ... 4.020
Radial Grid Type                 RadialGrid  ... OptM3 with GC (2021)
Angular Grid (max. ang.)         AngularGrid ... 2 (Lebedev-110)
Angular grid pruning method      GridPruning ... 4 (adaptive)
Weight generation scheme         WeightScheme... mBecke (2022)
Basis function cutoff            BFCut       ... 1.0000e-10
Integration weight cutoff        WCut        ... 1.0000e-14
Partially contracted basis set               ... on
Rotationally invariant grid construction     ... off
Angular grids for H and He will be reduced by one unit

Total number of grid points                  ...    88014
Total number of batches                      ...      719
Average number of points per batch           ...      122
Average number of grid points per atom       ...     1354
UseSFitting                                  ... on

GRIDX 3
-------
General Integration Accuracy     IntAcc      ... 4.338
Radial Grid Type                 RadialGrid  ... OptM3 with GC (2021)
Angular Grid (max. ang.)         AngularGrid ... 3 (Lebedev-194)
Angular grid pruning method      GridPruning ... 4 (adaptive)
Weight generation scheme         WeightScheme... mBecke (2022)
Basis function cutoff            BFCut       ... 1.0000e-10
Integration weight cutoff        WCut        ... 1.0000e-14
Partially contracted basis set               ... on
Rotationally invariant grid construction     ... off
Angular grids for H and He will be reduced by one unit

Total number of grid points                  ...   192570
Total number of batches                      ...     1540
Average number of points per batch           ...      125
Average number of grid points per atom       ...     2963
UseSFitting                                  ... on
Initializing property integral containers    ... done (  0.0 sec)

SHARK setup successfully completed in  21.0 seconds

Maximum memory used throughout the entire STARTUP-calculation: 140.7 MB
-------------------------------------------------------------------------------
                                 ORCA GUESS
                   Start orbitals & Density for SCF / CASSCF
-------------------------------------------------------------------------------

------------
SCF SETTINGS
------------
Hamiltonian:
 Density Functional     Method          .... DFT(GTOs)
 Exchange Functional    Exchange        .... B88
   X-Alpha parameter    XAlpha          ....  0.666667
   Becke's b parameter  XBeta           ....  0.004200
 Correlation Functional Correlation     .... LYP
 LDA part of GGA corr.  LDAOpt          .... VWN-5
 Gradients option       PostSCFGGA      .... off
 Hybrid DFT is turned on
   Fraction HF Exchange ScalHFX         ....  0.200000
   Scaling of DF-GGA-X  ScalDFX         ....  0.720000
   Scaling of DF-GGA-C  ScalDFC         ....  0.810000
   Scaling of DF-LDA-C  ScalLDAC        ....  1.000000
   Perturbative correction              ....  0.000000
   NL short-range parameter             ....  4.800000
 RI-approximation to the Coulomb term is turned on
   Number of AuxJ basis functions       .... 2237
   RIJ-COSX (HFX calculated with COS-X)).... on


General Settings:
 Integral files         IntName         .... /home/nmrbox/aojoawo/Documents/ERDOS/inputs/CHEMBL3687349
 Hartree-Fock type      HFTyp           .... RHF
 Total Charge           Charge          ....    0
 Multiplicity           Mult            ....    1
 Number of Electrons    NEL             ....  296
 Basis Dimension        Dim             ....  614
 Nuclear Repulsion      ENuc            ....   4777.7968619154 Eh

Convergence Acceleration:
 AO-DIIS                CNVDIIS         .... on
   Start iteration      DIISMaxIt       ....    12
   Startup error        DIISStart       ....  0.200000
   # of expansion vecs  DIISMaxEq       ....     5
   Bias factor          DIISBfac        ....   1.050
   Max. coefficient     DIISMaxC        ....  10.000
 MO-DIIS                CNVKDIIS        .... off
 Trust-Rad. Augm. Hess. CNVTRAH         .... auto
   Auto Start mean grad. ratio tolernc. ....  1.125000
   Auto Start start iteration           ....    50
   Auto Start num. interpolation iter.  ....    10
   Max. Number of Micro iterations      ....    24
   Max. Number of Macro iterations      .... Maxiter - #DIIS iter
   Number of Davidson start vectors     ....     2
   Converg. threshold    (grad. norm)   ....   5.000e-05
   Grad. Scal. Fac. for Micro threshold ....   0.100
   Minimum threshold for Micro iter.    ....   1.000e-02
   NR start threshold (gradient norm)   ....   1.000e-04
   Initial trust radius                 ....   0.400
   Minimum AH scaling param. (alpha)    ....   1.000
   Maximum AH scaling param. (alpha)    .... 1000.000
   Quad. conv. algorithm                .... NR
   White noise on init. David. guess    .... on
   Maximum white noise                  ....   0.010
   Pseudo random numbers                .... off
   Inactive MOs                         .... canonical
   Orbital update algorithm             .... Taylor
   Preconditioner                       .... Diag
   Full preconditioner red. dimension   ....   250
 SOSCF                  CNVSOSCF        .... on
   Start iteration      SOSCFMaxIt      ....   150
   Startup grad/error   SOSCFStart      ....  0.003300
   Hessian update       SOSCFHessUp     .... L-BFGS
 Level Shifting         CNVShift        .... on
   Level shift para.    LevelShift      ....    0.2500
   Turn off err/grad.   ShiftErr        ....    0.0010
 Zerner damping         CNVZerner       .... off
 Static damping         CNVDamp         .... on
   Fraction old density DampFac         ....    0.7000
   Max. Damping (<1)    DampMax         ....    0.9800
   Min. Damping (>=0)   DampMin         ....    0.0000
   Turn off err/grad.   DampErr         ....    0.1000

SCF Procedure:
 Maximum # iterations   MaxIter         ....   125
 SCF integral mode      SCFMode         .... Direct
   Integral package                     .... SHARK and LIBINT hybrid scheme
 Reset frequency        DirectResetFreq ....    20
 Integral Threshold     Thresh          ....  1.000e-10 Eh
 Primitive CutOff       TCut            ....  1.000e-11 Eh

Convergence Tolerance:
 Convergence Check Mode ConvCheckMode   .... Total+1el-Energy
 Convergence forced     ConvForced      .... 0
 Energy Change          TolE            ....  1.000e-06 Eh
 1-El. energy change                    ....  1.000e-03 Eh
 Orbital Gradient       TolG            ....  5.000e-05
 Orbital Rotation angle TolX            ....  5.000e-05
 DIIS Error             TolErr          ....  1.000e-06

------------------------------
INITIAL GUESS: MODEL POTENTIAL
------------------------------
Loading Hartree-Fock densities                     ... done
Calculating cut-offs                               ... done
Initializing the effective Hamiltonian             ... done
Setting up the integral package (SHARK)            ... done
Starting the Coulomb interaction                   ... done (   6.3 sec)
Making the grid                                    ... done (   2.4 sec)
Mapping shells                                     ... done
Starting the XC term evaluation                    ... done (   1.7 sec)
  promolecular density results
     # of electrons  =    295.971503850
     EX              =   -265.836978912
     EC              =    -10.381343004
     EX+EC           =   -276.218321916
Transforming the Hamiltonian                       ... done (   0.0 sec)
Diagonalizing the Hamiltonian                      ... done (   0.1 sec)
Back transforming the eigenvectors                 ... done (   0.0 sec)
Now organizing SCF variables                       ... done
                      ------------------
                      INITIAL GUESS DONE (  10.6 sec)
                      ------------------
             **** ENERGY FILE WAS UPDATED (/home/nmrbox/aojoawo/Documents/ERDOS/inputs/CHEMBL3687349.en.tmp) ****
Finished Guess after  11.0 sec
Maximum memory used throughout the entire GUESS-calculation: 77.9 MB

-------------------------------------------------------------------------------------------
                                      ORCA LEAN-SCF
                              memory conserving SCF solver
-------------------------------------------------------------------------------------------

----------------------------------------D-I-I-S--------------------------------------------
Iteration    Energy (Eh)           Delta-E    RMSDP     MaxDP     DIISErr   Damp  Time(sec)
-------------------------------------------------------------------------------------------
               ***  Starting incremental Fock matrix formation  ***
    1    -2301.0815484415197716     0.00e+00  2.23e-03  1.88e-01  2.95e-01  0.700 106.9
    2    -2301.6197402804764351    -5.38e-01  1.35e-03  7.79e-02  1.02e-01  0.700  46.3
                               ***Turning on AO-DIIS***
    3    -2301.8053159292094278    -1.86e-01  5.39e-04  1.76e-02  3.38e-02  0.700  44.9
    4    -2301.9273740010403344    -1.22e-01  9.17e-04  3.32e-02  1.55e-02  0.000  40.7
    5    -2302.2015855823565289    -2.74e-01  2.10e-04  8.43e-03  6.70e-03  0.000  43.5
                              *** Initializing SOSCF ***
---------------------------------------S-O-S-C-F--------------------------------------
Iteration    Energy (Eh)           Delta-E    RMSDP     MaxDP     MaxGrad    Time(sec)
--------------------------------------------------------------------------------------
    6    -2302.2033912642245923    -1.81e-03  6.76e-05  3.14e-03  2.61e-03    36.5
               *** Restarting incremental Fock matrix formation ***
    7    -2302.2033316555698548     5.96e-05  6.05e-05  3.63e-03  3.96e-04   106.2
    8    -2302.2032592985242445     7.24e-05  3.98e-05  2.56e-03  9.95e-04    57.6
    9    -2302.2033599719134145    -1.01e-04  1.29e-05  9.07e-04  1.66e-04    51.5
   10    -2302.2033567316930203     3.24e-06  8.09e-06  5.36e-04  2.89e-04    42.1
   11    -2302.2033614986939938    -4.77e-06  2.22e-06  1.01e-04  3.48e-05    38.0
   12    -2302.2033615081254538    -9.43e-09  1.40e-06  7.10e-05  5.65e-05    29.7
                 **** Energy Check signals convergence ****

               *****************************************************
               *                     SUCCESS                       *
               *           SCF CONVERGED AFTER  12 CYCLES          *
               *****************************************************

Recomputing exchange energy using gridx3       ... done (  186.945 sec)
Old exchange energy                            :    -53.753415321 Eh
New exchange energy                            :    -53.753483917 Eh
Exchange energy change after final integration :     -0.000068595 Eh
Total energy after final integration           :  -2302.203430104 Eh
             **** ENERGY FILE WAS UPDATED (/home/nmrbox/aojoawo/Documents/ERDOS/inputs/CHEMBL3687349.en.tmp) ****

----------------
TOTAL SCF ENERGY
----------------

Total Energy       :      -2302.20343010356737 Eh          -62646.14020 eV

Components:
Nuclear Repulsion  :       4777.79686191539349 Eh          130010.46222 eV
Electronic Energy  :      -7080.00022342351895 Eh         -192656.60055 eV
One Electron Energy:     -12664.67913970026166 Eh         -344623.43971 eV
Two Electron Energy:       5584.67891627674271 Eh          151966.83916 eV

Virial components:
Potential Energy   :      -4591.34735362246101 Eh         -124936.91316 eV
Kinetic Energy     :       2289.14392351889364 Eh           62290.77296 eV
Virial Ratio       :          2.00570497400819

DFT components:
N(Alpha)           :      147.999771263638 electrons
N(Beta)            :      147.999771263638 electrons
N(Total)           :      295.999542527275 electrons
E(X)               :     -213.654426186310 Eh       
E(C)               :      -12.194163561727 Eh       
E(XC)              :     -225.848589748037 Eh       

---------------
SCF CONVERGENCE
---------------

  Last Energy change         ...    9.4315e-09  Tolerance :   1.0000e-06
  Last MAX-Density change    ...    7.1015e-05  Tolerance :   1.0000e-05
  Last RMS-Density change    ...    1.3982e-06  Tolerance :   1.0000e-06
  Last DIIS Error            ...    2.6130e-03  Tolerance :   1.0000e-06
  Last Orbital Gradient      ...    5.6469e-05  Tolerance :   5.0000e-05
  Last Orbital Rotation      ...    8.0467e-05  Tolerance :   5.0000e-05


----------------
ORBITAL ENERGIES
----------------

  NO   OCC          E(Eh)            E(eV) 
   0   2.0000     -89.095802     -2424.4200 
   1   2.0000     -24.731167      -672.9693 
   2   2.0000     -24.730358      -672.9472 
   3   2.0000     -24.728159      -672.8874 
   4   2.0000     -19.194859      -522.3187 
   5   2.0000     -19.160312      -521.3786 
   6   2.0000     -19.136452      -520.7293 
   7   2.0000     -19.125647      -520.4353 
   8   2.0000     -19.124500      -520.4041 
   9   2.0000     -14.368095      -390.9757 
  10   2.0000     -14.331790      -389.9878 
  11   2.0000     -10.440259      -284.0939 
  12   2.0000     -10.333882      -281.1992 
  13   2.0000     -10.275600      -279.6133 
  14   2.0000     -10.255773      -279.0738 
  15   2.0000     -10.239910      -278.6421 
  16   2.0000     -10.230735      -278.3925 
  17   2.0000     -10.229835      -278.3680 
  18   2.0000     -10.223964      -278.2082 
  19   2.0000     -10.217572      -278.0343 
  20   2.0000     -10.217513      -278.0327 
  21   2.0000     -10.215020      -277.9648 
  22   2.0000     -10.214974      -277.9636 
  23   2.0000     -10.206908      -277.7441 
  24   2.0000     -10.204010      -277.6652 
  25   2.0000     -10.202241      -277.6171 
  26   2.0000     -10.199486      -277.5421 
  27   2.0000     -10.198004      -277.5018 
  28   2.0000     -10.197099      -277.4772 
  29   2.0000     -10.196845      -277.4702 
  30   2.0000     -10.195339      -277.4293 
  31   2.0000     -10.194546      -277.4077 
  32   2.0000     -10.192918      -277.3634 
  33   2.0000     -10.186898      -277.1996 
  34   2.0000     -10.186740      -277.1953 
  35   2.0000     -10.185878      -277.1718 
  36   2.0000     -10.185331      -277.1570 
  37   2.0000     -10.184022      -277.1213 
  38   2.0000     -10.178496      -276.9710 
  39   2.0000     -10.169610      -276.7291 
  40   2.0000      -8.131571      -221.2713 
  41   2.0000      -6.096571      -165.8961 
  42   2.0000      -6.094595      -165.8424 
  43   2.0000      -6.094240      -165.8327 
  44   2.0000      -1.290005       -35.1028 
  45   2.0000      -1.215380       -33.0722 
  46   2.0000      -1.213536       -33.0220 
  47   2.0000      -1.082452       -29.4550 
  48   2.0000      -1.079131       -29.3646 
  49   2.0000      -1.042049       -28.3556 
  50   2.0000      -0.993251       -27.0277 
  51   2.0000      -0.962548       -26.1922 
  52   2.0000      -0.959730       -26.1156 
  53   2.0000      -0.912882       -24.8408 
  54   2.0000      -0.887895       -24.1609 
  55   2.0000      -0.863982       -23.5101 
  56   2.0000      -0.860315       -23.4104 
  57   2.0000      -0.850463       -23.1423 
  58   2.0000      -0.807361       -21.9694 
  59   2.0000      -0.802906       -21.8482 
  60   2.0000      -0.788867       -21.4662 
  61   2.0000      -0.774067       -21.0634 
  62   2.0000      -0.773937       -21.0599 
  63   2.0000      -0.750235       -20.4149 
  64   2.0000      -0.746047       -20.3010 
  65   2.0000      -0.738509       -20.0959 
  66   2.0000      -0.711746       -19.3676 
  67   2.0000      -0.698461       -19.0061 
  68   2.0000      -0.685055       -18.6413 
  69   2.0000      -0.661207       -17.9924 
  70   2.0000      -0.651544       -17.7294 
  71   2.0000      -0.642357       -17.4794 
  72   2.0000      -0.636611       -17.3231 
  73   2.0000      -0.616717       -16.7817 
  74   2.0000      -0.609692       -16.5906 
  75   2.0000      -0.601990       -16.3810 
  76   2.0000      -0.595740       -16.2109 
  77   2.0000      -0.592954       -16.1351 
  78   2.0000      -0.587538       -15.9877 
  79   2.0000      -0.584868       -15.9151 
  80   2.0000      -0.577603       -15.7174 
  81   2.0000      -0.574273       -15.6268 
  82   2.0000      -0.558331       -15.1930 
  83   2.0000      -0.550759       -14.9869 
  84   2.0000      -0.538979       -14.6664 
  85   2.0000      -0.532985       -14.5033 
  86   2.0000      -0.522632       -14.2216 
  87   2.0000      -0.509939       -13.8761 
  88   2.0000      -0.500007       -13.6059 
  89   2.0000      -0.494304       -13.4507 
  90   2.0000      -0.486766       -13.2456 
  91   2.0000      -0.483351       -13.1526 
  92   2.0000      -0.476543       -12.9674 
  93   2.0000      -0.474110       -12.9012 
  94   2.0000      -0.468647       -12.7525 
  95   2.0000      -0.464509       -12.6399 
  96   2.0000      -0.459612       -12.5067 
  97   2.0000      -0.458798       -12.4845 
  98   2.0000      -0.457529       -12.4500 
  99   2.0000      -0.450081       -12.2473 
 100   2.0000      -0.446701       -12.1553 
 101   2.0000      -0.445555       -12.1242 
 102   2.0000      -0.443361       -12.0645 
 103   2.0000      -0.440392       -11.9837 
 104   2.0000      -0.440070       -11.9749 
 105   2.0000      -0.431824       -11.7505 
 106   2.0000      -0.428670       -11.6647 
 107   2.0000      -0.425144       -11.5687 
 108   2.0000      -0.422729       -11.5030 
 109   2.0000      -0.421791       -11.4775 
 110   2.0000      -0.419925       -11.4268 
 111   2.0000      -0.415996       -11.3198 
 112   2.0000      -0.411773       -11.2049 
 113   2.0000      -0.408514       -11.1162 
 114   2.0000      -0.399669       -10.8755 
 115   2.0000      -0.396805       -10.7976 
 116   2.0000      -0.392089       -10.6693 
 117   2.0000      -0.389795       -10.6069 
 118   2.0000      -0.386312       -10.5121 
 119   2.0000      -0.383664       -10.4400 
 120   2.0000      -0.376928       -10.2567 
 121   2.0000      -0.369056       -10.0425 
 122   2.0000      -0.366116        -9.9625 
 123   2.0000      -0.364477        -9.9179 
 124   2.0000      -0.363232        -9.8840 
 125   2.0000      -0.355385        -9.6705 
 126   2.0000      -0.353050        -9.6070 
 127   2.0000      -0.348880        -9.4935 
 128   2.0000      -0.343186        -9.3386 
 129   2.0000      -0.341951        -9.3050 
 130   2.0000      -0.324242        -8.8231 
 131   2.0000      -0.319461        -8.6930 
 132   2.0000      -0.305644        -8.3170 
 133   2.0000      -0.300652        -8.1811 
 134   2.0000      -0.300185        -8.1685 
 135   2.0000      -0.287309        -7.8181 
 136   2.0000      -0.285954        -7.7812 
 137   2.0000      -0.282184        -7.6786 
 138   2.0000      -0.279105        -7.5948 
 139   2.0000      -0.277164        -7.5420 
 140   2.0000      -0.276178        -7.5152 
 141   2.0000      -0.272630        -7.4187 
 142   2.0000      -0.265737        -7.2311 
 143   2.0000      -0.254957        -6.9377 
 144   2.0000      -0.252366        -6.8672 
 145   2.0000      -0.250295        -6.8109 
 146   2.0000      -0.239436        -6.5154 
 147   2.0000      -0.220918        -6.0115 
 148   0.0000      -0.081650        -2.2218 
 149   0.0000      -0.059578        -1.6212 
 150   0.0000      -0.032209        -0.8764 
 151   0.0000      -0.027939        -0.7602 
 152   0.0000      -0.016508        -0.4492 
 153   0.0000      -0.003665        -0.0997 
 154   0.0000       0.014567         0.3964 
 155   0.0000       0.023211         0.6316 
 156   0.0000       0.039549         1.0762 
 157   0.0000       0.046843         1.2747 
 158   0.0000       0.058408         1.5894 
*Only the first 10 virtual orbitals were printed.

                    ********************************
                    * MULLIKEN POPULATION ANALYSIS *
                    ********************************

-----------------------
MULLIKEN ATOMIC CHARGES
-----------------------
   0 C :   -0.545776
   1 C :    0.132455
   2 C :    0.317083
   3 N :   -0.614111
   4 C :   -0.236100
   5 C :    0.162831
   6 C :   -0.170553
   7 C :   -0.172913
   8 C :    0.085523
   9 C :    0.176682
  10 O :   -0.638499
  11 C :   -0.139813
  12 C :   -0.297681
  13 C :   -0.315782
  14 C :    0.907149
  15 F :   -0.301067
  16 F :   -0.295030
  17 F :   -0.305754
  18 C :   -0.166739
  19 C :   -0.174411
  20 S :    1.219174
  21 O :   -0.541091
  22 O :   -0.555818
  23 C :   -0.129782
  24 C :   -0.140011
  25 C :   -0.141613
  26 C :    0.083021
  27 C :    0.528293
  28 O :   -0.445006
  29 O :   -0.624091
  30 C :   -0.146045
  31 C :   -0.150857
  32 N :   -0.406232
  33 C :   -0.058800
  34 C :    0.138997
  35 C :   -0.203777
  36 C :   -0.125781
  37 C :   -0.121643
  38 C :   -0.195998
  39 C :    0.117590
  40 H :    0.171038
  41 H :    0.201820
  42 H :    0.157548
  43 H :    0.168744
  44 H :    0.170910
  45 H :    0.152194
  46 H :    0.126292
  47 H :    0.400751
  48 H :    0.162044
  49 H :    0.146144
  50 H :    0.166326
  51 H :    0.147948
  52 H :    0.165670
  53 H :    0.146164
  54 H :    0.139499
  55 H :    0.191476
  56 H :    0.180879
  57 H :    0.433898
  58 H :    0.172163
  59 H :    0.185379
  60 H :    0.149864
  61 H :    0.137873
  62 H :    0.135687
  63 H :    0.137735
  64 H :    0.143927
Sum of atomic charges:    0.0000000

--------------------------------
MULLIKEN REDUCED ORBITAL CHARGES
--------------------------------
  0 C s       :     3.320918  s :     3.320918
      pz      :     1.012729  p :     3.190991
      px      :     1.045866
      py      :     1.132396
      dz2     :     0.008378  d :     0.033867
      dxz     :     0.007000
      dyz     :     0.005788
      dx2y2   :     0.008162
      dxy     :     0.004539

  1 C s       :     3.179246  s :     3.179246
      pz      :     0.860600  p :     2.648269
      px      :     0.904999
      py      :     0.882670
      dz2     :     0.008508  d :     0.040029
      dxz     :     0.005690
      dyz     :     0.012686
      dx2y2   :     0.006369
      dxy     :     0.006776

  2 C s       :     3.044652  s :     3.044652
      pz      :     0.816112  p :     2.565093
      px      :     0.991873
      py      :     0.757107
      dz2     :     0.018260  d :     0.073172
      dxz     :     0.009580
      dyz     :     0.024037
      dx2y2   :     0.011532
      dxy     :     0.009763

  3 N s       :     3.599829  s :     3.599829
      pz      :     1.508550  p :     3.980612
      px      :     1.303834
      py      :     1.168227
      dz2     :     0.004572  d :     0.033670
      dxz     :     0.005742
      dyz     :     0.006487
      dx2y2   :     0.008030
      dxy     :     0.008838

  4 C s       :     3.249201  s :     3.249201
      pz      :     1.060292  p :     2.931432
      px      :     0.905200
      py      :     0.965940
      dz2     :     0.015052  d :     0.055468
      dxz     :     0.007801
      dyz     :     0.007990
      dx2y2   :     0.012948
      dxy     :     0.011677

  5 C s       :     3.116914  s :     3.116914
      pz      :     0.881310  p :     2.680032
      px      :     0.866069
      py      :     0.932652
      dz2     :     0.009753  d :     0.040223
      dxz     :     0.010251
      dyz     :     0.006634
      dx2y2   :     0.006987
      dxy     :     0.006597

  6 C s       :     3.205460  s :     3.205460
      pz      :     0.966291  p :     2.928953
      px      :     0.965392
      py      :     0.997269
      dz2     :     0.007097  d :     0.036141
      dxz     :     0.009856
      dyz     :     0.007648
      dx2y2   :     0.004955
      dxy     :     0.006584

  7 C s       :     3.209777  s :     3.209777
      pz      :     0.982304  p :     2.927361
      px      :     0.973697
      py      :     0.971359
      dz2     :     0.008021  d :     0.035775
      dxz     :     0.009506
      dyz     :     0.005348
      dx2y2   :     0.006587
      dxy     :     0.006313

  8 C s       :     3.165535  s :     3.165535
      pz      :     0.880543  p :     2.710328
      px      :     0.895255
      py      :     0.934529
      dz2     :     0.009452  d :     0.038614
      dxz     :     0.008963
      dyz     :     0.006537
      dx2y2   :     0.006991
      dxy     :     0.006670

  9 C s       :     3.151968  s :     3.151968
      pz      :     0.698894  p :     2.597488
      px      :     0.904667
      py      :     0.993927
      dz2     :     0.020289  d :     0.073862
      dxz     :     0.019158
      dyz     :     0.013782
      dx2y2   :     0.010966
      dxy     :     0.009667

 10 O s       :     3.911787  s :     3.911787
      pz      :     1.389850  p :     4.698946
      px      :     1.831923
      py      :     1.477173
      dz2     :     0.010668  d :     0.027765
      dxz     :     0.003546
      dyz     :     0.003340
      dx2y2   :     0.006281
      dxy     :     0.003930

 11 C s       :     3.221696  s :     3.221696
      pz      :     1.059981  p :     2.874968
      px      :     0.939272
      py      :     0.875715
      dz2     :     0.008198  d :     0.043149
      dxz     :     0.006916
      dyz     :     0.005541
      dx2y2   :     0.009957
      dxy     :     0.012537

 12 C s       :     3.262854  s :     3.262854
      pz      :     0.936011  p :     2.994685
      px      :     1.020196
      py      :     1.038478
      dz2     :     0.010350  d :     0.040142
      dxz     :     0.007656
      dyz     :     0.007763
      dx2y2   :     0.005424
      dxy     :     0.008949

 13 C s       :     3.268295  s :     3.268295
      pz      :     0.930913  p :     3.006797
      px      :     1.023911
      py      :     1.051974
      dz2     :     0.010264  d :     0.040689
      dxz     :     0.009284
      dyz     :     0.008580
      dx2y2   :     0.004114
      dxy     :     0.008447

 14 C s       :     2.858270  s :     2.858270
      pz      :     0.702887  p :     2.100537
      px      :     0.736538
      py      :     0.661113
      dz2     :     0.032072  d :     0.134044
      dxz     :     0.024172
      dyz     :     0.022688
      dx2y2   :     0.032080
      dxy     :     0.023033

 15 F s       :     3.982973  s :     3.982973
      pz      :     1.875378  p :     5.301586
      px      :     1.556564
      py      :     1.869644
      dz2     :     0.002284  d :     0.016507
      dxz     :     0.004258
      dyz     :     0.000721
      dx2y2   :     0.005119
      dxy     :     0.004126

 16 F s       :     3.983774  s :     3.983774
      pz      :     1.505831  p :     5.294709
      px      :     1.897727
      py      :     1.891152
      dz2     :     0.007831  d :     0.016548
      dxz     :     0.003861
      dyz     :     0.004002
      dx2y2   :     0.000526
      dxy     :     0.000327

 17 F s       :     3.982153  s :     3.982153
      pz      :     1.897015  p :     5.307108
      px      :     1.911389
      py      :     1.498704
      dz2     :     0.002348  d :     0.016494
      dxz     :     0.000189
      dyz     :     0.003823
      dx2y2   :     0.006380
      dxy     :     0.003754

 18 C s       :     3.202388  s :     3.202388
      pz      :     0.964699  p :     2.928503
      px      :     0.967033
      py      :     0.996770
      dz2     :     0.006955  d :     0.035847
      dxz     :     0.009555
      dyz     :     0.007742
      dx2y2   :     0.005103
      dxy     :     0.006492

 19 C s       :     3.201075  s :     3.201075
      pz      :     0.993682  p :     2.937035
      px      :     0.968835
      py      :     0.974518
      dz2     :     0.007967  d :     0.036301
      dxz     :     0.009924
      dyz     :     0.005248
      dx2y2   :     0.006745
      dxy     :     0.006417

 20 S s       :     5.211390  s :     5.211390
      pz      :     3.018266  p :     9.033444
      px      :     3.003738
      py      :     3.011440
      dz2     :     0.093162  d :     0.535991
      dxz     :     0.124175
      dyz     :     0.115075
      dx2y2   :     0.089301
      dxy     :     0.114278

 21 O s       :     3.928321  s :     3.928321
      pz      :     1.630083  p :     4.585759
      px      :     1.510389
      py      :     1.445287
      dz2     :     0.003666  d :     0.027011
      dxz     :     0.003829
      dyz     :     0.005059
      dx2y2   :     0.007363
      dxy     :     0.007094

 22 O s       :     3.926571  s :     3.926571
      pz      :     1.308409  p :     4.602795
      px      :     1.625639
      py      :     1.668746
      dz2     :     0.008451  d :     0.026453
      dxz     :     0.006967
      dyz     :     0.006462
      dx2y2   :     0.002464
      dxy     :     0.002109

 23 C s       :     3.223911  s :     3.223911
      pz      :     0.985904  p :     2.867203
      px      :     0.973986
      py      :     0.907313
      dz2     :     0.007052  d :     0.038668
      dxz     :     0.005436
      dyz     :     0.010142
      dx2y2   :     0.006345
      dxy     :     0.009693

 24 C s       :     3.204465  s :     3.204465
      pz      :     0.931001  p :     2.899654
      px      :     0.931836
      py      :     1.036817
      dz2     :     0.007687  d :     0.035892
      dxz     :     0.005625
      dyz     :     0.008040
      dx2y2   :     0.009301
      dxy     :     0.005238

 25 C s       :     3.215367  s :     3.215367
      pz      :     0.978060  p :     2.890627
      px      :     0.956991
      py      :     0.955576
      dz2     :     0.005669  d :     0.035619
      dxz     :     0.006163
      dyz     :     0.008795
      dx2y2   :     0.007602
      dxy     :     0.007390

 26 C s       :     3.165457  s :     3.165457
      pz      :     0.903315  p :     2.713105
      px      :     0.939242
      py      :     0.870548
      dz2     :     0.007208  d :     0.038418
      dxz     :     0.005410
      dyz     :     0.010131
      dx2y2   :     0.006885
      dxy     :     0.008783

 27 C s       :     2.997476  s :     2.997476
      pz      :     0.803660  p :     2.364180
      px      :     0.828423
      py      :     0.732097
      dz2     :     0.021374  d :     0.110051
      dxz     :     0.014720
      dyz     :     0.030687
      dx2y2   :     0.022089
      dxy     :     0.021180

 28 O s       :     3.878544  s :     3.878544
      pz      :     1.367985  p :     4.540878
      px      :     1.409259
      py      :     1.763635
      dz2     :     0.008467  d :     0.025583
      dxz     :     0.007054
      dyz     :     0.004144
      dx2y2   :     0.003145
      dxy     :     0.002772

 29 O s       :     3.872486  s :     3.872486
      pz      :     1.729326  p :     4.730734
      px      :     1.729562
      py      :     1.271846
      dz2     :     0.002092  d :     0.020870
      dxz     :     0.003526
      dyz     :     0.007098
      dx2y2   :     0.002543
      dxy     :     0.005611

 30 C s       :     3.210636  s :     3.210636
      pz      :     0.962043  p :     2.899714
      px      :     0.952604
      py      :     0.985067
      dz2     :     0.007384  d :     0.035695
      dxz     :     0.005406
      dyz     :     0.008419
      dx2y2   :     0.009090
      dxy     :     0.005396

 31 C s       :     3.210150  s :     3.210150
      pz      :     1.003258  p :     2.904787
      px      :     0.985086
      py      :     0.916443
      dz2     :     0.005568  d :     0.035920
      dxz     :     0.006422
      dyz     :     0.008733
      dx2y2   :     0.007770
      dxy     :     0.007427

 32 N s       :     3.681994  s :     3.681994
      pz      :     1.173480  p :     3.689250
      px      :     1.156965
      py      :     1.358805
      dz2     :     0.009934  d :     0.034987
      dxz     :     0.006627
      dyz     :     0.005596
      dx2y2   :     0.006853
      dxy     :     0.005977

 33 C s       :     3.162029  s :     3.162029
      pz      :     0.957835  p :     2.843117
      px      :     0.962475
      py      :     0.922807
      dz2     :     0.013469  d :     0.053654
      dxz     :     0.004739
      dyz     :     0.015674
      dx2y2   :     0.009968
      dxy     :     0.009804

 34 C s       :     3.138644  s :     3.138644
      pz      :     0.868380  p :     2.680550
      px      :     0.949253
      py      :     0.862916
      dz2     :     0.009657  d :     0.041809
      dxz     :     0.005735
      dyz     :     0.012394
      dx2y2   :     0.006702
      dxy     :     0.007322

 35 C s       :     3.211011  s :     3.211011
      pz      :     0.988034  p :     2.956555
      px      :     0.985751
      py      :     0.982769
      dz2     :     0.009550  d :     0.036211
      dxz     :     0.004184
      dyz     :     0.009674
      dx2y2   :     0.006234
      dxy     :     0.006567

 36 C s       :     3.193973  s :     3.193973
      pz      :     0.939168  p :     2.895404
      px      :     0.974626
      py      :     0.981610
      dz2     :     0.008783  d :     0.036404
      dxz     :     0.005328
      dyz     :     0.011330
      dx2y2   :     0.007266
      dxy     :     0.003696

 37 C s       :     3.196632  s :     3.196632
      pz      :     0.941256  p :     2.888503
      px      :     0.969253
      py      :     0.977994
      dz2     :     0.008022  d :     0.036508
      dxz     :     0.005148
      dyz     :     0.012440
      dx2y2   :     0.005681
      dxy     :     0.005218

 38 C s       :     3.210432  s :     3.210432
      pz      :     0.990300  p :     2.950014
      px      :     0.993407
      py      :     0.966307
      dz2     :     0.009263  d :     0.035551
      dxz     :     0.004324
      dyz     :     0.009567
      dx2y2   :     0.005883
      dxy     :     0.006515

 39 C s       :     3.137125  s :     3.137125
      pz      :     0.878051  p :     2.704000
      px      :     0.955770
      py      :     0.870179
      dz2     :     0.009906  d :     0.041285
      dxz     :     0.005520
      dyz     :     0.011691
      dx2y2   :     0.007024
      dxy     :     0.007144

 40 H s       :     0.828962  s :     0.828962

 41 H s       :     0.798180  s :     0.798180

 42 H s       :     0.842452  s :     0.842452

 43 H s       :     0.831256  s :     0.831256

 44 H s       :     0.829090  s :     0.829090

 45 H s       :     0.847806  s :     0.847806

 46 H s       :     0.873708  s :     0.873708

 47 H s       :     0.599249  s :     0.599249

 48 H s       :     0.837956  s :     0.837956

 49 H s       :     0.853856  s :     0.853856

 50 H s       :     0.833674  s :     0.833674

 51 H s       :     0.852052  s :     0.852052

 52 H s       :     0.834330  s :     0.834330

 53 H s       :     0.853836  s :     0.853836

 54 H s       :     0.860501  s :     0.860501

 55 H s       :     0.808524  s :     0.808524

 56 H s       :     0.819121  s :     0.819121

 57 H s       :     0.566102  s :     0.566102

 58 H s       :     0.827837  s :     0.827837

 59 H s       :     0.814621  s :     0.814621

 60 H s       :     0.850136  s :     0.850136

 61 H s       :     0.862127  s :     0.862127

 62 H s       :     0.864313  s :     0.864313

 63 H s       :     0.862265  s :     0.862265

 64 H s       :     0.856073  s :     0.856073



                     *******************************
                     * LOEWDIN POPULATION ANALYSIS *
                     *******************************

----------------------
LOEWDIN ATOMIC CHARGES
----------------------
   0 C :   -0.362024
   1 C :    0.009935
   2 C :    0.027978
   3 N :   -0.280878
   4 C :   -0.145857
   5 C :   -0.030678
   6 C :   -0.122717
   7 C :   -0.127179
   8 C :   -0.030190
   9 C :    0.040364
  10 O :   -0.358174
  11 C :   -0.137067
  12 C :   -0.248661
  13 C :   -0.258541
  14 C :    0.298638
  15 F :   -0.109187
  16 F :   -0.103337
  17 F :   -0.112392
  18 C :   -0.128353
  19 C :   -0.129831
  20 S :    1.261811
  21 O :   -0.568108
  22 O :   -0.581194
  23 C :   -0.175800
  24 C :   -0.097251
  25 C :   -0.085522
  26 C :   -0.039471
  27 C :    0.180339
  28 O :   -0.261287
  29 O :   -0.335200
  30 C :   -0.100236
  31 C :   -0.107774
  32 N :   -0.139861
  33 C :   -0.065063
  34 C :   -0.027300
  35 C :   -0.113201
  36 C :   -0.125543
  37 C :   -0.118312
  38 C :   -0.119130
  39 C :   -0.006058
  40 H :    0.143355
  41 H :    0.153893
  42 H :    0.135314
  43 H :    0.141578
  44 H :    0.132778
  45 H :    0.142285
  46 H :    0.133148
  47 H :    0.316013
  48 H :    0.143797
  49 H :    0.129802
  50 H :    0.139175
  51 H :    0.132667
  52 H :    0.139108
  53 H :    0.139717
  54 H :    0.136619
  55 H :    0.162601
  56 H :    0.160615
  57 H :    0.349699
  58 H :    0.154433
  59 H :    0.160394
  60 H :    0.135634
  61 H :    0.136461
  62 H :    0.135340
  63 H :    0.136486
  64 H :    0.141403

-------------------------------
LOEWDIN REDUCED ORBITAL CHARGES
-------------------------------
  0 C s       :     2.972969  s :     2.972969
      pz      :     1.060085  p :     3.323212
      px      :     1.107491
      py      :     1.155636
      dz2     :     0.017472  d :     0.065842
      dxz     :     0.014168
      dyz     :     0.011453
      dx2y2   :     0.014972
      dxy     :     0.007778

  1 C s       :     2.890555  s :     2.890555
      pz      :     1.022188  p :     3.002003
      px      :     0.935467
      py      :     1.044348
      dz2     :     0.021084  d :     0.097507
      dxz     :     0.012267
      dyz     :     0.032788
      dx2y2   :     0.015983
      dxy     :     0.015385

  2 C s       :     2.846582  s :     2.846582
      pz      :     1.003018  p :     2.949023
      px      :     1.004531
      py      :     0.941474
[...]

 34 C s       :     2.858965  s :     2.858965
      pz      :     1.040015  p :     3.059636
      px      :     0.968819
      py      :     1.050802
      dz2     :     0.025346  d :     0.108699
      dxz     :     0.013125
      dyz     :     0.035668
      dx2y2   :     0.017664
      dxy     :     0.016897

 35 C s       :     2.916269  s :     2.916269
      pz      :     1.062828  p :     3.112533
      px      :     0.990260
      py      :     1.059446
      dz2     :     0.020672  d :     0.084400
      dxz     :     0.007267
      dyz     :     0.025126
      dx2y2   :     0.016378
      dxy     :     0.014955

 36 C s       :     2.917319  s :     2.917319
      pz      :     1.058931  p :     3.122398
      px      :     0.987960
      py      :     1.075507
      dz2     :     0.022466  d :     0.085826
      dxz     :     0.012835
      dyz     :     0.028053
      dx2y2   :     0.014375
      dxy     :     0.008096

 37 C s       :     2.918442  s :     2.918442
      pz      :     1.057954  p :     3.114017
      px      :     0.980033
      py      :     1.076030
      dz2     :     0.020523  d :     0.085853
      dxz     :     0.011446
      dyz     :     0.030472
      dx2y2   :     0.012491
      dxy     :     0.010922

 38 C s       :     2.917641  s :     2.917641
      pz      :     1.065356  p :     3.119049
      px      :     0.996057
      py      :     1.057636
      dz2     :     0.020042  d :     0.082439
      dxz     :     0.007364
      dyz     :     0.024577
      dx2y2   :     0.015963
      dxy     :     0.014494

 39 C s       :     2.856216  s :     2.856216
      pz      :     1.031356  p :     3.044183
      px      :     0.972826
      py      :     1.040000
      dz2     :     0.025863  d :     0.105660
      dxz     :     0.012633
      dyz     :     0.033471
      dx2y2   :     0.017513
      dxy     :     0.016180

 40 H s       :     0.856645  s :     0.856645

 41 H s       :     0.846107  s :     0.846107

 42 H s       :     0.864686  s :     0.864686

 43 H s       :     0.858422  s :     0.858422

 44 H s       :     0.867222  s :     0.867222

 45 H s       :     0.857715  s :     0.857715

 46 H s       :     0.866852  s :     0.866852

 47 H s       :     0.683987  s :     0.683987

 48 H s       :     0.856203  s :     0.856203

 49 H s       :     0.870198  s :     0.870198

 50 H s       :     0.860825  s :     0.860825

 51 H s       :     0.867333  s :     0.867333

 52 H s       :     0.860892  s :     0.860892

 53 H s       :     0.860283  s :     0.860283

 54 H s       :     0.863381  s :     0.863381

 55 H s       :     0.837399  s :     0.837399

 56 H s       :     0.839385  s :     0.839385

 57 H s       :     0.650301  s :     0.650301

 58 H s       :     0.845567  s :     0.845567

 59 H s       :     0.839606  s :     0.839606

 60 H s       :     0.864366  s :     0.864366

 61 H s       :     0.863539  s :     0.863539

 62 H s       :     0.864660  s :     0.864660

 63 H s       :     0.863514  s :     0.863514

 64 H s       :     0.858597  s :     0.858597



                      *****************************
                      * MAYER POPULATION ANALYSIS *
                      *****************************

  NA   - Mulliken gross atomic population
  ZA   - Total nuclear charge
  QA   - Mulliken gross atomic charge
  VA   - Mayer's total valence
  BVA  - Mayer's bonded valence
  FA   - Mayer's free valence

  ATOM       NA         ZA         QA         VA         BVA        FA
  0 C      6.5458     6.0000    -0.5458     3.8202     3.8202     0.0000
  1 C      5.8675     6.0000     0.1325     3.8797     3.8797     0.0000
  2 C      5.6829     6.0000     0.3171     3.8671     3.8671     0.0000
  3 N      7.6141     7.0000    -0.6141     2.7831     2.7831     0.0000
  4 C      6.2361     6.0000    -0.2361     3.8254     3.8254     0.0000
  5 C      5.8372     6.0000     0.1628     3.9228     3.9228     0.0000
  6 C      6.1706     6.0000    -0.1706     3.9233     3.9233    -0.0000
  7 C      6.1729     6.0000    -0.1729     3.9245     3.9245    -0.0000
  8 C      5.9145     6.0000     0.0855     3.9242     3.9242    -0.0000
  9 C      5.8233     6.0000     0.1767     3.8542     3.8542     0.0000
 10 O      8.6385     8.0000    -0.6385     1.7786     1.7786     0.0000
 11 C      6.1398     6.0000    -0.1398     3.8175     3.8175     0.0000
 12 C      6.2977     6.0000    -0.2977     3.8023     3.8023     0.0000
 13 C      6.3158     6.0000    -0.3158     3.8093     3.8093    -0.0000
 14 C      5.0929     6.0000     0.9071     3.8282     3.8282    -0.0000
 15 F      9.3011     9.0000    -0.3011     1.0584     1.0584    -0.0000
 16 F      9.2950     9.0000    -0.2950     1.0627     1.0627     0.0000
 17 F      9.3058     9.0000    -0.3058     1.0563     1.0563     0.0000
 18 C      6.1667     6.0000    -0.1667     3.9053     3.9053     0.0000
 19 C      6.1744     6.0000    -0.1744     3.9341     3.9341     0.0000
 20 S     14.7808    16.0000     1.2192     5.0710     5.0710     0.0000
 21 O      8.5411     8.0000    -0.5411     1.8933     1.8933    -0.0000
 22 O      8.5558     8.0000    -0.5558     1.8804     1.8804     0.0000
 23 C      6.1298     6.0000    -0.1298     3.8308     3.8308    -0.0000
 24 C      6.1400     6.0000    -0.1400     3.9082     3.9082     0.0000
 25 C      6.1416     6.0000    -0.1416     3.9008     3.9008    -0.0000
 26 C      5.9170     6.0000     0.0830     3.9258     3.9258     0.0000
 27 C      5.4717     6.0000     0.5283     3.9527     3.9527    -0.0000
 28 O      8.4450     8.0000    -0.4450     2.0667     2.0667    -0.0000
 29 O      8.6241     8.0000    -0.6241     1.8680     1.8680     0.0000
 30 C      6.1460     6.0000    -0.1460     3.8647     3.8647    -0.0000
 31 C      6.1509     6.0000    -0.1509     3.9204     3.9204    -0.0000
 32 N      7.4062     7.0000    -0.4062     2.9594     2.9594     0.0000
 33 C      6.0588     6.0000    -0.0588     3.8659     3.8659     0.0000
 34 C      5.8610     6.0000     0.1390     3.9650     3.9650    -0.0000
 35 C      6.2038     6.0000    -0.2038     3.9001     3.9001     0.0000
 36 C      6.1258     6.0000    -0.1258     3.9269     3.9269     0.0000
 37 C      6.1216     6.0000    -0.1216     3.9238     3.9238    -0.0000
 38 C      6.1960     6.0000    -0.1960     3.8728     3.8728     0.0000
 39 C      5.8824     6.0000     0.1176     3.9957     3.9957     0.0000
 40 H      0.8290     1.0000     0.1710     0.9284     0.9284     0.0000
 41 H      0.7982     1.0000     0.2018     0.9380     0.9380     0.0000
 42 H      0.8425     1.0000     0.1575     0.9324     0.9324     0.0000
 43 H      0.8313     1.0000     0.1687     0.9377     0.9377     0.0000
 44 H      0.8291     1.0000     0.1709     0.9280     0.9280     0.0000
 45 H      0.8478     1.0000     0.1522     0.9408     0.9408     0.0000
 46 H      0.8737     1.0000     0.1263     0.9512     0.9512     0.0000
 47 H      0.5992     1.0000     0.4008     0.8160     0.8160     0.0000
 48 H      0.8380     1.0000     0.1620     0.9407     0.9407     0.0000
 49 H      0.8539     1.0000     0.1461     0.9435     0.9435     0.0000
 50 H      0.8337     1.0000     0.1663     0.9548     0.9548     0.0000
 51 H      0.8521     1.0000     0.1479     0.9428     0.9428    -0.0000
 52 H      0.8343     1.0000     0.1657     0.9562     0.9562    -0.0000
 53 H      0.8538     1.0000     0.1462     0.9466     0.9466    -0.0000
 54 H      0.8605     1.0000     0.1395     0.9412     0.9412     0.0000
 55 H      0.8085     1.0000     0.1915     0.9346     0.9346    -0.0000
 56 H      0.8191     1.0000     0.1809     0.9385     0.9385     0.0000
 57 H      0.5661     1.0000     0.4339     0.7957     0.7957    -0.0000
 58 H      0.8278     1.0000     0.1722     0.9364     0.9364     0.0000
 59 H      0.8146     1.0000     0.1854     0.9377     0.9377    -0.0000
 60 H      0.8501     1.0000     0.1499     0.9353     0.9353     0.0000
 61 H      0.8621     1.0000     0.1379     0.9372     0.9372     0.0000
 62 H      0.8643     1.0000     0.1357     0.9366     0.9366    -0.0000
 63 H      0.8623     1.0000     0.1377     0.9365     0.9365    -0.0000
 64 H      0.8561     1.0000     0.1439     0.9421     0.9421    -0.0000

  Mayer bond orders larger than 0.100000
B(  0-C ,  1-C ) :   1.0093 B(  0-C , 40-H ) :   0.9228 B(  0-C , 41-H ) :   0.9132 
B(  0-C , 42-H ) :   0.9250 B(  1-C ,  2-C ) :   1.4324 B(  1-C , 33-C ) :   0.1002 
B(  1-C , 39-C ) :   1.2623 B(  2-C ,  3-N ) :   0.8909 B(  2-C , 32-N ) :   1.2770 
B(  3-N ,  4-C ) :   0.9183 B(  3-N , 20-S ) :   0.8068 B(  4-C ,  5-C ) :   0.9609 
B(  4-C , 43-H ) :   0.9201 B(  4-C , 44-H ) :   0.9190 B(  5-C ,  6-C ) :   1.4316 
B(  5-C , 19-C ) :   1.4335 B(  6-C ,  7-C ) :   1.4220 B(  6-C , 45-H ) :   0.9168 
B(  7-C ,  8-C ) :   1.4166 B(  7-C , 46-H ) :   0.9173 B(  8-C ,  9-C ) :   0.9404 
B(  8-C , 18-C ) :   1.4077 B(  9-C , 10-O ) :   0.8959 B(  9-C , 11-C ) :   0.9720 
B(  9-C , 14-C ) :   0.9100 B( 10-O , 47-H ) :   0.7666 B( 11-C , 12-C ) :   0.9341 
B( 11-C , 13-C ) :   0.9467 B( 11-C , 48-H ) :   0.9274 B( 12-C , 13-C ) :   0.9683 
B( 12-C , 49-H ) :   0.9471 B( 12-C , 50-H ) :   0.9363 B( 13-C , 51-H ) :   0.9428 
B( 13-C , 52-H ) :   0.9276 B( 14-C , 15-F ) :   0.9409 B( 14-C , 16-F ) :   0.9416 
B( 14-C , 17-F ) :   0.9446 B( 18-C , 19-C ) :   1.4219 B( 18-C , 53-H ) :   0.9157 
B( 19-C , 54-H ) :   0.9200 B( 20-S , 21-O ) :   1.6530 B( 20-S , 22-O ) :   1.6108 
B( 20-S , 23-C ) :   0.8104 B( 23-C , 24-C ) :   1.3783 B( 23-C , 31-C ) :   1.4009 
B( 24-C , 25-C ) :   1.4318 B( 24-C , 55-H ) :   0.9053 B( 25-C , 26-C ) :   1.3963 
B( 25-C , 56-H ) :   0.9098 B( 26-C , 27-C ) :   1.0085 B( 26-C , 30-C ) :   1.3880 
B( 27-C , 28-O ) :   1.8624 B( 27-C , 29-O ) :   1.0241 B( 29-O , 57-H ) :   0.7419 
B( 30-C , 31-C ) :   1.4095 B( 30-C , 58-H ) :   0.9150 B( 31-C , 59-H ) :   0.9088 
B( 32-N , 33-C ) :   1.4921 B( 33-C , 34-C ) :   1.2423 B( 33-C , 60-H ) :   0.9268 
B( 34-C , 35-C ) :   1.2833 B( 34-C , 39-C ) :   1.2911 B( 35-C , 36-C ) :   1.5126 
B( 35-C , 38-C ) :   0.1062 B( 35-C , 61-H ) :   0.9235 B( 36-C , 37-C ) :   1.3528 
B( 36-C , 62-H ) :   0.9294 B( 37-C , 38-C ) :   1.5070 B( 37-C , 63-H ) :   0.9291 
B( 38-C , 39-C ) :   1.2963 B( 38-C , 64-H ) :   0.9150 

-------
TIMINGS
-------

Total SCF time: 0 days 0 hours 13 min 51 sec 

Total time                  ....     831.578 sec
Sum of individual times     ....     831.269 sec  (100.0%)

SCF preparation             ....       0.474 sec  (  0.1%)
Fock matrix formation       ....     827.532 sec  ( 99.5%)
  Startup                   ....       0.114 sec  (  0.0% of F)
  Split-RI-J                ....     116.084 sec  ( 14.0% of F)
  Chain of spheres X        ....     648.472 sec  ( 78.4% of F)
  XC integration            ....      61.929 sec  (  7.5% of F)
    Basis function eval.    ....      24.098 sec  ( 38.9% of XC)
    Density eval.           ....      16.440 sec  ( 26.5% of XC)
    XC-Functional eval.     ....       2.945 sec  (  4.8% of XC)
    XC-Potential eval.      ....      16.377 sec  ( 26.4% of XC)
Diagonalization             ....       0.000 sec  (  0.0%)
Density matrix formation    ....       0.400 sec  (  0.0%)
Total Energy calculation    ....       0.081 sec  (  0.0%)
Population analysis         ....       0.097 sec  (  0.0%)
Orbital Transformation      ....       0.284 sec  (  0.0%)
Orbital Orthonormalization  ....       0.000 sec  (  0.0%)
DIIS solution               ....       1.454 sec  (  0.2%)
SOSCF solution              ....       0.947 sec  (  0.1%)
Finished LeanSCF after 831.7 sec

Maximum memory used throughout the entire LEANSCF-calculation: 112.3 MB

-------------------------   --------------------
FINAL SINGLE POINT ENERGY     -2302.203430103567
-------------------------   --------------------


------------------------------------------------------------------------------
                              ORCA PROPERTY CALCULATIONS
------------------------------------------------------------------------------

GBWName                                 ... /home/nmrbox/aojoawo/Documents/ERDOS/inputs/CHEMBL3687349.gbw
Number of atoms                         ...     65
Number of basis functions               ...    614
Max core memory                         ...   1024 MB

Electric properties:
Dipole moment                           ... YES
Quadrupole moment                       ...  NO
Static polarizability (Dipole/Dipole)   ...  NO
Static polarizability (Dipole/Quad.)    ...  NO
Static polarizability (Quad./Quad.)     ...  NO
Static polarizability (Velocity)        ...  NO

Atomic electric properties:
Dipole moment                           ...  NO
Quadrupole moment                       ...  NO
Static polarizability                   ...  NO

Choice of electric origin               ... Center of mass
Position of electric origin             ...    -0.224884     0.747440    -0.148899

General magnetic properties:
Magnetizability                         ...  NO

EPR properties:
g-Tensor (aka g-matrix)                 ...  NO
Zero-Field splitting spin-orbit         ...  NO
Zero-field splitting spin-spin          ...  NO
Hyperfine couplings                     ...  NO (   0 nuclei)
Quadrupole couplings                    ...  NO (   0 nuclei)
Contact density                         ...  NO (   0 nuclei)

NMR properties:
Chemical shifts                         ...  NO (   0 nuclei)
Spin-rotation constants                 ...  NO (   0 nuclei)
Spin-spin couplings                     ...  NO (   0 nuclei,    0 pairs)

Choice of magnetic origin               ... GIAO
Position of magnetic origin             ...     0.000000     0.000000     0.000000

Properties with geometric perturbations:
SCF Hessian                             ...  NO
IR spectrum                             ...  NO
VCD spectrum                            ...  NO
X-ray spectroscopy properties:
SCF XES/XAS/RIXS spectra                ...  NO


-------------
DIPOLE MOMENT
-------------

Method             : SCF
Type of density    : Electron Density
Multiplicity       :   1
Irrep              :   0
Energy             : -2302.2034301035673707 Eh
Relativity type    : 
Basis              : AO
                                X                 Y                 Z
Electronic contribution:      8.401699913      20.306185979      -4.297100533
Nuclear contribution   :     -7.701637033     -20.434292334       3.401113955
                        -----------------------------------------
Total Dipole Moment    :      0.700062880      -0.128106355      -0.895986578
                        -----------------------------------------
Magnitude (a.u.)       :      1.144242641
Magnitude (Debye)      :      2.908433656



--------------------
Rotational spectrum 
--------------------
 
Rotational constants in cm-1:             0.003987             0.001478             0.001205 
Rotational constants in MHz :           119.512923            44.316295            36.129654 

Dipole components along the rotational axes: 
x,y,z [a.u.] :    -0.596211     0.129506    -0.968015 
x,y,z [Debye]:    -1.515447     0.329179    -2.460498 

 

Dipole moment calculation done in   0.0 sec 

Maximum memory used throughout the entire PROP-calculation: 55.6 MB

--------------------------------
SUGGESTED CITATIONS FOR THIS RUN
--------------------------------

Below you find a list of papers that are relevant to this ORCA run
We neither can nor want to force you to cite these papers, but we appreciate if you do
You receive ORCA, which is the product of decades of hard work by many enthusiastic individuals, for free
The only thing we kindly ask in return is that you cite our papers,
We deeply appreciate it, if you show your appreciation for ORCA by not just citing the generic ORCA reference.

Please note that relegating all ORCA citations to the supporting information does *not* help us.
SI sections are not indexed - citations you put there will not count into any citation statistics
But we need these citations in order to attract the funding resources that allow us to do what we are doing

Therefore, if you are a happy ORCA user, please consider citing a few of the papers listed below in the main body of your paper

In addition to the list printed below, the program has created the file /home/nmrbox/aojoawo/Documents/ERDOS/inputs/CHEMBL3687349.bibtex that contains the list in bibtex format
You can import this file easily into all common literature databanks and citation aid programs


List of essential papers. We consider these as the minimum necessary citations

  1. Neese,F.
     Software update: the ORCA program system, version 5.0
     WIRES Comput. Molec. Sci., 2022 12(1)e1606
     doi.org/10.1002/wcms.1606

List of papers to cite with high priority. The work reported in these papers was absolutely
necessary for this run to complete.
Our perspective: the developers of density functionals and basis sets usually get cited in chemistry papers
Good! But without the algorithms to do something with them, the functionals or basis sets would not do anything.
Hence, in our opinion, the algorithm design and method developments papers are equally worthy of getting cited

  1. Neese,F.
     An improvement of the resolution of the identity approximation for the formation of the Coulomb matrix
     J. Comp. Chem., 2003 24(14)1740-1747
     doi.org/10.1002/jcc.10318
  2. Neese,F.; Wennmohs,F.; Hansen,A.; Becker,U.
     Efficient, approximate and parallel Hartree-Fock and hybrid DFT calculations. A 'chain-of-spheres' algorithm for the Hartree-Fock exchange
     Chem. Phys., 2009 356(1-3)98-109
     doi.org/10.1016/j.chemphys.2008.10.036
  3. Helmich-Paris,B.; de Souza,B.; Neese,F.; Izsák,R.
     An improved chain of spheres for exchange algorithm
     J. Chem. Phys., 2021 155 104109
     doi.org/doi: 10.1063/5.0058766.
  4. Neese,F.
     The SHARK Integral Generation and Digestion System
     J. Comp. Chem., 2022  1-16
     doi.org/10.1002/jcc.26942

List of suggested additional citations. These are papers that are important in the 'surrounding' of 
of this run, or papers that preceded the highly important papers. If you like your results we are grateful for a citation.

  1. Izsak,R.; Neese,F.
     An overlap fitted chain of spheres exchange method
     J. Chem. Phys., 2011 135 144105
     doi.org/10.1063/1.3646921
  2. Izsak,R.; Hansen,A.; Neese,F.
     The resolution of identity and chain of spheres approximations for the LPNO-CCSD singles Fock term
     Molec. Phys., 2012 110 2413-2417
     doi.org/10.1080/00268976.2012.687466
  3. Neese,F.
     The ORCA program system
     WIRES Comput. Molec. Sci., 2012 2(1)73-78
     doi.org/10.1002/wcms.81
  4. Izsak,R.; Neese,F.; Klopper,W.
     Robust fitting techniques in the chain of spheres approximation to the Fock exchange: The role of the complementary space
     J. Chem. Phys., 2013 139 
     doi.org/10.1063/1.4819264
  5. Neese,F.
     Software update: the ORCA program system, version 4.0
     WIRES Comput. Molec. Sci., 2018 8(1)1-6
     doi.org/10.1002/wcms.1327
  6. Neese,F.; Wennmohs,F.; Becker,U.; Riplinger,C.
     The ORCA quantum chemistry program package
     J. Chem. Phys., 2020 152 Art. No. L224108
     doi.org/10.1063/5.0004608

List of optional additional citations

  1. Neese,F.
     Approximate second-order SCF convergence for spin unrestricted wavefunctions
     Chem. Phys. Lett., 2000 325(1-3)93-98
     doi.org/10.1016/s0009-2614(00)00662-x

Timings for individual modules:

Sum of individual times          ...      864.109 sec (=  14.402 min)
Startup calculation              ...       21.103 sec (=   0.352 min)   2.4 %
SCF iterations                   ...      842.771 sec (=  14.046 min)  97.5 %
Property calculations            ...        0.235 sec (=   0.004 min)   0.0 %
                             ****ORCA TERMINATED NORMALLY****
TOTAL RUN TIME: 0 days 0 hours 14 minutes 24 seconds 810 msec
