
                                 *****************
                                 * O   R   C   A *
                                 *****************

                                            #,                                       
                                            ###                                      
                                            ####                                     
                                            #####                                    
                                            ######                                   
                                           ########,                                 
                                     ,,################,,,,,                         
                               ,,#################################,,                 
                          ,,##########################################,,             
                       ,#########################################, ''#####,          
                    ,#############################################,,   '####,        
                  ,##################################################,,,,####,       
                ,###########''''           ''''###############################       
              ,#####''   ,,,,##########,,,,          '''####'''          '####       
            ,##' ,,,,###########################,,,                        '##       
           ' ,,###''''                  '''############,,,                           
         ,,##''                                '''############,,,,        ,,,,,,###''
      ,#''                                            '''#######################'''  
     '                                                          ''''####''''         
             ,#######,   #######,   ,#######,      ##                                
            ,#'     '#,  ##    ##  ,#'     '#,    #''#        ,####,   ,####,        
            ##       ##  ##   ,#'  ##            #'  '#       #'       #'  '#        
            ##       ##  #######   ##           ,######,      #####,   #    #        
            '#,     ,#'  ##    ##  '#,     ,#' ,#      #,     #,   #   #,  ,#        
             '#######'   ##     ##  '#######'  #'      '#     '####' # '####'        



                #########################################################
                #                        -***-                          #
                #          Department of theory and spectroscopy        #
                #                                                       #
                #                      Frank Neese                      #
                #                                                       #
                #     Directorship, Architecture, Infrastructure        #
                #                    SHARK, DRIVERS                     #
                #        Core code/Algorithms in most modules           #
                #                                                       #
                #        Max Planck Institute fuer Kohlenforschung      #
                #                Kaiser Wilhelm Platz 1                 #
                #                 D-45470 Muelheim/Ruhr                 #
                #                      Germany                          #
                #                                                       #
                #                  All rights reserved                  #
                #                        -***-                          #
                #########################################################


                         Program Version 6.0.0  -   RELEASE  -


 With contributions from (in alphabetic order):
   Daniel Aravena         : Magnetic Suceptibility
   Michael Atanasov       : Ab Initio Ligand Field Theory (pilot matlab implementation)
   Alexander A. Auer      : GIAO ZORA, VPT2 properties, NMR spectrum
   Ute Becker             : All parallelization in ORCA, NUMFREQ, NUMCALC
   Giovanni Bistoni       : ED, misc. LED, open-shell LED, HFLD
   Martin Brehm           : Molecular dynamics
   Dmytro Bykov           : pre 5.0 version of the SCF Hessian
   Marcos Casanova-Páez   : Triplet and SCS-CIS(D). UHF-(DLPNO)-IP/EA/STEOM-CCSD. UHF-CVS-IP/STEOM-CCSD
   Vijay G. Chilkuri      : MRCI spin determinant printing, contributions to CSF-ICE
   Pauline Colinet        : FMM embedding
   Dipayan Datta          : RHF DLPNO-CCSD density
   Achintya Kumar Dutta   : EOM-CC, STEOM-CC
   Nicolas Foglia         : Exact transition moments, OPA infrastructure, MCD improvements
   Dmitry Ganyushin       : Spin-Orbit,Spin-Spin,Magnetic field MRCI
   Miquel Garcia          : C-PCM and meta-GGA Hessian, CCSD/C-PCM, Gaussian charge scheme
   Tiago L. C. Gouveia    : GS-ROHF, GS-ROCIS
   Yang Guo               : DLPNO-NEVPT2, F12-NEVPT2, CIM, IAO-localization
   Andreas Hansen         : Spin unrestricted coupled pair/coupled cluster methods
   Ingolf Harden          : AUTO-CI MPn and infrastructure 
   Benjamin Helmich-Paris : MC-RPA, TRAH-(SCF,CASSCF), AVAS, COSX integrals, SCF dyn. polar.
   Lee Huntington         : MR-EOM, pCC
   Robert Izsak           : Overlap fitted RIJCOSX, COSX-SCS-MP3, EOM
   Riya Kayal             : Wick's Theorem for AUTO-CI, AUTO-CI UHF-CCSDT
   Emily Kempfer          : AUTO-CI, RHF CISDT and CCSDT
   Christian Kollmar      : KDIIS, OOCD, Brueckner-CCSD(T), CCSD density, CASPT2, CASPT2-K, improved NEVPT2
   Axel Koslowski         : Symmetry handling
   Simone Kossmann        : Meta GGA functionals, TD-DFT gradient, OOMP2, (MP2 Hessian; deprecated post 5.0)
   Lucas Lang             : DCDCAS
   Marvin Lechner         : AUTO-CI (C++ implementation), FIC-MRCC
   Spencer Leger          : CASSCF response
   Dagmar Lenk            : GEPOL surface, SMD, ORCA-2-JSON
   Dimitrios Liakos       : Extrapolation schemes; Compound Job, initial MDCI parallelization
   Dimitrios Manganas     : Further ROCIS development; embedding schemes. LFT, Crystal Embedding
   Dimitrios Pantazis     : SARC Basis sets
   Anastasios Papadopoulos: AUTO-CI, single reference methods and gradients
   Taras Petrenko         : pre 6.0 DFT Hessian and TD-DFT gradient, (ASA, deprecated), ECA, 1-Electron XAS/XES, NRVS
   Peter Pinski           : DLPNO-MP2, DLPNO-MP2 Gradient
   Christoph Reimann      : Effective Core Potentials
   Marius Retegan         : Local ZFS, SOC
   Christoph Riplinger    : Optimizer, TS searches, QM/MM, DLPNO-CCSD(T), (RO)-DLPNO pert. Triples
   Michael Roemelt        : Original ROCIS implementation
   Masaaki Saitow         : Open-shell DLPNO-CCSD energy and density
   Barbara Sandhoefer     : DKH picture change effects
   Kantharuban Sivalingam : CASSCF convergence/infrastructure, NEVPT2 and variants, FIC-MRCI
   Bernardo de Souza      : ESD, SOC TD-DFT
   Georgi Stoychev        : AutoAux, RI-MP2 NMR, DLPNO-MP2 response, X2C
   Van Anh Tran           : RI-MP2 g-tensors
   Willem Van den Heuvel  : Paramagnetic NMR
   Zikuan Wang            : NOTCH, Electric field optimization 
   Frank Wennmohs         : Technical directorship and infrastructure
   Hang Xu                : AUTO-CI-Response properties 


 We gratefully acknowledge several colleagues who have allowed us to
 interface, adapt or use parts of their codes:
   Stefan Grimme, W. Hujo, H. Kruse, P. Pracht,  : VdW corrections, initial TS optimization,
                  C. Bannwarth, S. Ehlert,         DFT functionals, gCP, sTDA/sTD-DF
                  L. Wittmann, M. Mueller
   Ed Valeev, F. Pavosevic, A. Kumar             : LibInt (2-el integral package), F12 methods
   Garnet Chan, S. Sharma, J. Yang, R. Olivares  : DMRG
   Ulf Ekstrom                                   : XCFun DFT Library
   Mihaly Kallay                                 : mrcc  (arbitrary order and MRCC methods)
   Frank Weinhold                                : gennbo (NPA and NBO analysis)
   Simon Mueller                                 : openCOSMO-RS
   Christopher J. Cramer and Donald G. Truhlar   : smd solvation model
   Lars Goerigk                                  : TD-DFT with DH, B97 family of functionals
   V. Asgeirsson, H. Jonsson                     : NEB implementation
   FAccTs GmbH                                   : IRC, NEB, NEB-TS, DLPNO-Multilevel, CI-OPT
                                                   MM, QMMM, 2- and 3-layer-ONIOM, Crystal-QMMM,
                                                   LR-CPCM, SF, NACMEs, symmetry and pop. for TD-DFT,
                                                   nearIR, NL-DFT gradient (VV10), updates on ESD,
                                                   ML-optimized integration grids, MBIS, APM,
                                                   GOAT, DOCKER, SOLVATOR, interface openCOSMO-RS
   S Lehtola, MJT Oliveira, MAL Marques          : LibXC Library
   Liviu Ungur et al                             : ANISO software


 Your calculation uses the libint2 library for the computation of 2-el integrals
 For citations please refer to: http://libint.valeyev.net

 Your ORCA version has been built with support for libXC version: 6.2.2
 For citations please refer to: https://libxc.gitlab.io

 This ORCA versions uses:
   CBLAS   interface :  Fast vector & matrix operations
   LAPACKE interface :  Fast linear algebra routines
   SCALAPACK package :  Parallel linear algebra routines
   Shared memory     :  Shared parallel matrices
   BLAS/LAPACK       :  OpenBLAS 0.3.27  USE64BITINT DYNAMIC_ARCH NO_AFFINITY SkylakeX SINGLE_THREADED
        Core in use  :  SkylakeX
   Copyright (c) 2011-2014, The OpenBLAS Project


Warning: RI is on but no J-basis has been assigned. Assigning Def2/J (nothing to worry about!)
================================================================================

----- Orbital basis set information -----
Your calculation utilizes the basis: 6-31G*
   H-He, Li-Ne : W. J. Hehre, R. Ditchfield and J.A. Pople, J. Chem. Phys. 56, 2257 (1972).
                 Note: He and Ne are unpublished basis sets taken from the Gaussian program.
                 Note: Li and B from J. D. Dill and J. A. Pople, J. Chem. Phys. 62, 2921 (1975).
   Na - Ar     : M. M. Francl, W. J. Pietro, W. J. Hehre, J. S. Binkley, M. S. Gordon, 
                 D. J. DeFrees and J. A. Pople, J. Chem. Phys. 77, 3654 (1982).
   K - Zn      : V. A. Rassolov, J. A. Pople, M. A. Ratner, and T. L. Windus, J. Chem. Phys. 109, 1223 (1998).

----- AuxJ basis set information -----
Your calculation utilizes the auxiliary basis: def2/J
   F. Weigend, Phys. Chem. Chem. Phys. 8, 1057 (2006).

================================================================================
                                        WARNINGS
                       Please study these warnings very carefully!
================================================================================


================================================================================
                                       INPUT FILE
================================================================================
NAME = /home/nmrbox/aojoawo/Documents/ERDOS/inputs/CHEMBL4647444.inp
|  1> ! B3LYP 6-31G* SP
|  2> 
|  3> * xyz 0 1
|  4> C 2.2729 3.2716 3.5555
|  5> O 1.4702 2.7646 2.4967
|  6> C 0.9432 1.4697 2.5056
|  7> O 1.1329 0.7121 3.4974
|  8> C 0.1207 1.0099 1.3274
|  9> C -0.4376 -0.4298 1.4967
| 10> C -1.0027 -0.9192 0.2053
| 11> C -0.7733 -0.3270 -1.0198
| 12> N -1.3443 -1.0344 -2.0216
| 13> C -1.9172 -2.0957 -1.4216
| 14> C -2.6066 -3.1416 -2.0330
| 15> C -3.1021 -4.1714 -1.2117
| 16> C -2.8965 -4.1362 0.1863
| 17> C -2.1947 -3.0701 0.7776
| 18> C -1.7225 -2.0622 -0.0605
| 19> C 0.0158 0.9422 -1.1820
| 20> C -0.8648 2.1385 -1.4926
| 21> C -2.1836 2.2501 -1.0044
| 22> C -2.9492 3.3854 -1.2857
| 23> C -2.4070 4.4280 -2.0396
| 24> C -1.0953 4.3404 -2.5093
| 25> C -0.3259 3.2064 -2.2327
| 26> N 0.8342 1.2206 0.0297
| 27> C 2.2486 0.7693 -0.0619
| 28> C 2.4420 -0.7200 0.1147
| 29> C 2.1720 -1.6114 -0.9387
| 30> C 2.3400 -2.9877 -0.7609
| 31> C 2.8040 -3.4848 0.4590
| 32> C 3.1118 -2.6053 1.4995
| 33> C 2.9418 -1.2285 1.3270
| 34> H 3.1847 2.6480 3.6727
| 35> H 2.5763 4.3114 3.3165
| 36> H 1.6944 3.2743 4.5031
| 37> H -0.7635 1.6830 1.3292
| 38> H -1.2394 -0.4273 2.2664
| 39> H 0.3446 -1.1373 1.8315
| 40> H -1.3253 -0.8146 -3.0425
| 41> H -2.7527 -3.1643 -3.1052
| 42> H -3.6428 -4.9978 -1.6547
| 43> H -3.2799 -4.9361 0.8062
| 44> H -2.0273 -3.0369 1.8466
| 45> H 0.6729 0.7904 -2.0664
| 46> H -2.6249 1.4647 -0.4046
| 47> H -3.9624 3.4592 -0.9129
| 48> H -3.0010 5.3071 -2.2536
| 49> H -0.6726 5.1535 -3.0844
| 50> H 0.6931 3.1609 -2.5963
| 51> H 2.6780 1.0739 -1.0412
| 52> H 2.8616 1.3216 0.6809
| 53> H 1.8343 -1.2465 -1.8986
| 54> H 2.1160 -3.6685 -1.5715
| 55> H 2.9367 -4.5506 0.5938
| 56> H 3.4838 -2.9900 2.4401
| 57> H 3.1891 -0.5615 2.1427
| 58> *
| 59> 
| 60>                          ****END OF INPUT****
================================================================================

                       ****************************
                       * Single Point Calculation *
                       ****************************

---------------------------------
CARTESIAN COORDINATES (ANGSTROEM)
---------------------------------
  C      2.272900    3.271600    3.555500
  O      1.470200    2.764600    2.496700
  C      0.943200    1.469700    2.505600
  O      1.132900    0.712100    3.497400
  C      0.120700    1.009900    1.327400
  C     -0.437600   -0.429800    1.496700
  C     -1.002700   -0.919200    0.205300
  C     -0.773300   -0.327000   -1.019800
  N     -1.344300   -1.034400   -2.021600
  C     -1.917200   -2.095700   -1.421600
  C     -2.606600   -3.141600   -2.033000
  C     -3.102100   -4.171400   -1.211700
  C     -2.896500   -4.136200    0.186300
  C     -2.194700   -3.070100    0.777600
  C     -1.722500   -2.062200   -0.060500
  C      0.015800    0.942200   -1.182000
  C     -0.864800    2.138500   -1.492600
  C     -2.183600    2.250100   -1.004400
  C     -2.949200    3.385400   -1.285700
  C     -2.407000    4.428000   -2.039600
  C     -1.095300    4.340400   -2.509300
  C     -0.325900    3.206400   -2.232700
  N      0.834200    1.220600    0.029700
  C      2.248600    0.769300   -0.061900
  C      2.442000   -0.720000    0.114700
  C      2.172000   -1.611400   -0.938700
  C      2.340000   -2.987700   -0.760900
  C      2.804000   -3.484800    0.459000
  C      3.111800   -2.605300    1.499500
  C      2.941800   -1.228500    1.327000
  H      3.184700    2.648000    3.672700
  H      2.576300    4.311400    3.316500
  H      1.694400    3.274300    4.503100
  H     -0.763500    1.683000    1.329200
  H     -1.239400   -0.427300    2.266400
  H      0.344600   -1.137300    1.831500
  H     -1.325300   -0.814600   -3.042500
  H     -2.752700   -3.164300   -3.105200
  H     -3.642800   -4.997800   -1.654700
  H     -3.279900   -4.936100    0.806200
  H     -2.027300   -3.036900    1.846600
  H      0.672900    0.790400   -2.066400
  H     -2.624900    1.464700   -0.404600
  H     -3.962400    3.459200   -0.912900
  H     -3.001000    5.307100   -2.253600
  H     -0.672600    5.153500   -3.084400
  H      0.693100    3.160900   -2.596300
  H      2.678000    1.073900   -1.041200
  H      2.861600    1.321600    0.680900
  H      1.834300   -1.246500   -1.898600
  H      2.116000   -3.668500   -1.571500
  H      2.936700   -4.550600    0.593800
  H      3.483800   -2.990000    2.440100
  H      3.189100   -0.561500    2.142700

----------------------------
CARTESIAN COORDINATES (A.U.)
----------------------------
  NO LB      ZA    FRAG     MASS         X           Y           Z
   0 C     6.0000    0    12.011    4.295159    6.182428    6.718921
   1 O     8.0000    0    15.999    2.778275    5.224337    4.718079
   2 C     6.0000    0    12.011    1.782390    2.777330    4.734898
   3 O     8.0000    0    15.999    2.140871    1.345674    6.609128
   4 C     6.0000    0    12.011    0.228090    1.908434    2.508422
   5 C     6.0000    0    12.011   -0.826944   -0.812204    2.828353
   6 C     6.0000    0    12.011   -1.894828   -1.737036    0.387961
   7 C     6.0000    0    12.011   -1.461325   -0.617940   -1.927143
   8 N     7.0000    0    14.007   -2.540359   -1.954733   -3.820270
   9 C     6.0000    0    12.011   -3.622983   -3.960299   -2.686435
  10 C     6.0000    0    12.011   -4.925760   -5.936764   -3.841813
  11 C     6.0000    0    12.011   -5.862119   -7.882804   -2.289781
  12 C     6.0000    0    12.011   -5.473592   -7.816285    0.352056
  13 C     6.0000    0    12.011   -4.147382   -5.801648    1.469451
  14 C     6.0000    0    12.011   -3.255053   -3.896993   -0.114328
  15 C     6.0000    0    12.011    0.029858    1.780500   -2.233656
  16 C     6.0000    0    12.011   -1.634235    4.041179   -2.820605
  17 C     6.0000    0    12.011   -4.126406    4.252073   -1.898041
  18 C     6.0000    0    12.011   -5.573180    6.397479   -2.429621
  19 C     6.0000    0    12.011   -4.548571    8.367707   -3.854285
  20 C     6.0000    0    12.011   -2.069817    8.202167   -4.741890
  21 C     6.0000    0    12.011   -0.615862    6.059218   -4.219192
  22 N     7.0000    0    14.007    1.576410    2.306600    0.056125
  23 C     6.0000    0    12.011    4.249238    1.453766   -0.116974
  24 C     6.0000    0    12.011    4.614711   -1.360603    0.216752
  25 C     6.0000    0    12.011    4.104485   -3.045105   -1.773886
  26 C     6.0000    0    12.011    4.421959   -5.645935   -1.437893
  27 C     6.0000    0    12.011    5.298792   -6.585318    0.867384
  28 C     6.0000    0    12.011    5.880450   -4.923303    2.833644
  29 C     6.0000    0    12.011    5.559196   -2.321529    2.507667
  30 H     1.0000    0     1.008    6.018211    5.003995    6.940397
  31 H     1.0000    0     1.008    4.868501    8.147365    6.267277
  32 H     1.0000    0     1.008    3.201952    6.187530    8.509626
  33 H     1.0000    0     1.008   -1.442806    3.180409    2.511824
  34 H     1.0000    0     1.008   -2.342127   -0.807480    4.282875
  35 H     1.0000    0     1.008    0.651200   -2.149186    3.461033
  36 H     1.0000    0     1.008   -2.504454   -1.539371   -5.749492
  37 H     1.0000    0     1.008   -5.201849   -5.979660   -5.867978
  38 H     1.0000    0     1.008   -6.883894   -9.444473   -3.126930
  39 H     1.0000    0     1.008   -6.198113   -9.327877    1.523497
  40 H     1.0000    0     1.008   -3.831042   -5.738909    3.489568
  41 H     1.0000    0     1.008    1.271597    1.493640   -3.904930
  42 H     1.0000    0     1.008   -4.960342    2.767882   -0.764583
  43 H     1.0000    0     1.008   -7.487851    6.536941   -1.725131
  44 H     1.0000    0     1.008   -5.671068   10.028966   -4.258687
  45 H     1.0000    0     1.008   -1.271030    9.738704   -5.828671
  46 H     1.0000    0     1.008    1.309769    5.973235   -4.906296
  47 H     1.0000    0     1.008    5.060687    2.029377   -1.967583
  48 H     1.0000    0     1.008    5.407640    2.497462    1.286715
  49 H     1.0000    0     1.008    3.466325   -2.355544   -3.587834
  50 H     1.0000    0     1.008    3.998660   -6.932460   -2.969705
  51 H     1.0000    0     1.008    5.549559   -8.599388    1.122119
  52 H     1.0000    0     1.008    6.583428   -5.650281    4.611121
  53 H     1.0000    0     1.008    6.026526   -1.061081    4.049116

--------------------------------
INTERNAL COORDINATES (ANGSTROEM)
--------------------------------
 C      0   0   0     0.000000000000     0.00000000     0.00000000
 O      1   0   0     1.422122965851     0.00000000     0.00000000
 C      2   1   0     1.398060878503   122.56313260     0.00000000
 O      3   2   1     1.262383099538   120.27881042     2.40979735
 C      3   2   1     1.508667468331   118.86968945   180.99112062
 C      5   3   2     1.553414777192   113.15930129   181.93075886
 C      6   5   3     1.492167661491   110.22804487   191.18536435
 C      7   6   5     1.379925798730   124.37723601    14.58704333
 N      8   7   6     1.352796732699   111.27670972   176.17120533
 C      9   8   7     1.347060540585   105.16815147   358.87471172
 C     10   9   8     1.393911449842   127.31061660   181.63811434
 C     11  10   9     1.407317298977   117.85361429   178.59949233
 C     12  11  10     1.413475999089   120.51516607   359.79740096
 C     13  12  11     1.406672719576   120.47714770     0.07601500
 C     10   9   8     1.375363061159   111.18613382     0.36264314
 C      8   7   6     1.503281839842   123.05080806   356.19759734
 C     16   8   7     1.517584399630   112.52186495   253.90589030
 C     17  16   8     1.410683252896   122.27623768    31.51326793
 C     18  17  16     1.397919575655   120.43815709   178.33765258
 C     19  18  17     1.396195118886   120.16091474   359.17206835
 C     20  19  18     1.396011726312   119.98053296   359.71877958
 C     21  20  19     1.398012846865   120.09564904     0.38159011
 N     16   8   7     1.488456250617   111.02013011    17.38173860
 C     23  16   8     1.487477599831   114.57856385    96.79399523
 C     24  23  16     1.512152641105   114.40829405   283.31371688
 C     25  24  23     1.406110066816   120.81822467    78.50702809
 C     26  25  24     1.397869282158   120.38447351   180.70004706
 C     27  26  25     1.396624652510   120.09695348   358.70976625
 C     28  27  26     1.396746698582   119.98508737   359.44781108
 C     29  28  27     1.397939372791   120.09491020     0.72319603
 H      1   2   3     1.110851943330   109.98130213    60.07503068
 H      1   2   3     1.109214406686   109.15759844   179.53395510
 H      1   2   3     1.110232092853   110.01215822   298.98859576
 H      5   3   2     1.111249967379   104.35456223   296.66862480
 H      6   5   3     1.111452913982   109.43039961    71.22605038
 H      6   5   3     1.106564110208   111.80729703   312.15516533
 H      9   8   7     1.044466299121   127.30868833   180.11943602
 H     11  10   9     1.082346220024   121.13172614   358.87705390
 H     12  11  10     1.082378145567   119.71734457   179.94011530
 H     13  12  11     1.082179088691   119.77618987   180.20222155
 H     14  13  12     1.082536835401   121.03022332   180.34483829
 H     16   8   7     1.112199177306   106.30151227   137.43566898
 H     18  17  16     1.082293347480   121.03555137   358.46211948
 H     19  18  17     1.082127774341   119.92386957   179.56527634
 H     20  19  18     1.082334888101   120.01060062   180.17177168
 H     21  20  19     1.081918162339   119.91975289   180.65506013
 H     22  21  20     1.082883285493   119.04752189   180.65101679
 H     24  23  16     1.111842619259   109.77653218    46.02717544
 H     24  23  16     1.110205444952   109.44418069   159.42710754
 H     26  25  24     1.081018644613   120.74492802     0.85975874
 H     27  26  25     1.082006007377   119.95525704   179.08282701
 H     28  27  26     1.082455527955   119.99704442   180.20772734
 H     29  28  27     1.082176718471   119.96012791   180.81318986
 H     30  29  28     1.082318243402   119.08888345   180.24107020

---------------------------
INTERNAL COORDINATES (A.U.)
---------------------------
 C      0   0   0     0.000000000000     0.00000000     0.00000000
 O      1   0   0     2.687422934218     0.00000000     0.00000000
 C      2   1   0     2.641952178920   122.56313260     0.00000000
 O      3   2   1     2.385558334218   120.27881042     2.40979735
 C      3   2   1     2.850968342302   118.86968945   180.99112062
 C      5   3   2     2.935528501280   113.15930129   181.93075886
 C      6   5   3     2.819788226112   110.22804487   191.18536435
 C      7   6   5     2.607681844732   124.37723601    14.58704333
 N      8   7   6     2.556415339664   111.27670972   176.17120533
 C      9   8   7     2.545575507517   105.16815147   358.87471172
 C     10   9   8     2.634110895138   127.31061660   181.63811434
 C     11  10   9     2.659444278596   117.85361429   178.59949233
 C     12  11  10     2.671082535149   120.51516607   359.79740096
 C     13  12  11     2.658226200057   120.47714770     0.07601500
 C     10   9   8     2.599059520302   111.18613382     0.36264314
 C      8   7   6     2.840790979399   123.05080806   356.19759734
 C     16   8   7     2.867818900412   112.52186495   253.90589030
 C     17  16   8     2.665805009682   122.27623768    31.51326793
 C     18  17  16     2.641685155236   120.43815709   178.33765258
 C     19  18  17     2.638426404211   120.16091474   359.17206835
 C     20  19  18     2.638079842472   119.98053296   359.71877958
 C     21  20  19     2.641861412279   120.09564904     0.38159011
 N     16   8   7     2.812774675989   111.02013011    17.38173860
 C     23  16   8     2.810925294024   114.57856385    96.79399523
 C     24  23  16     2.857554364374   114.40829405   283.31371688
 C     25  24  23     2.657162940431   120.81822467    78.50702809
 C     26  25  24     2.641590114299   120.38447351   180.70004706
 C     27  26  25     2.639238105128   120.09695348   358.70976625
 C     28  27  26     2.639468738779   119.98508737   359.44781108
 C     29  28  27     2.641722566401   120.09491020     0.72319603
 H      1   2   3     2.099205948228   109.98130213    60.07503068
 H      1   2   3     2.096111452437   109.15759844   179.53395510
 H      1   2   3     2.098034600582   110.01215822   298.98859576
 H      5   3   2     2.099958104675   104.35456223   296.66862480
 H      6   5   3     2.100341618175   109.43039961    71.22605038
 H      6   5   3     2.091103117919   111.80729703   312.15516533
 H      9   8   7     1.973755261449   127.30868833   180.11943602
 H     11  10   9     2.045337937930   121.13172614   358.87705390
 H     12  11  10     2.045398268462   119.71734457   179.94011530
 H     13  12  11     2.045022105482   119.77618987   180.20222155
 H     14  13  12     2.045698148790   121.03022332   180.34483829
 H     16   8   7     2.101751851481   106.30151227   137.43566898
 H     18  17  16     2.045238023303   121.03555137   358.46211948
 H     19  18  17     2.044925135414   119.92386957   179.56527634
 H     20  19  18     2.045316523699   120.01060062   180.17177168
 H     21  20  19     2.044529026137   119.91975289   180.65506013
 H     22  21  20     2.046352844583   119.04752189   180.65101679
 H     24  23  16     2.101078054421   109.77653218    46.02717544
 H     24  23  16     2.097984243347   109.44418069   159.42710754
 H     26  25  24     2.042829183981   120.74492802     0.85975874
 H     27  26  25     2.044695029200   119.95525704   179.08282701
 H     28  27  26     2.045544499984   119.99704442   180.20772734
 H     29  28  27     2.045017626415   119.96012791   180.81318986
 H     30  29  28     2.045285069776   119.08888345   180.24107020

---------------------
BASIS SET INFORMATION
---------------------
There are 4 groups of distinct atoms

 Group   1 Type C   : 10s4p1d contracted to 3s2p1d pattern {631/31/1}
 Group   2 Type O   : 10s4p1d contracted to 3s2p1d pattern {631/31/1}
 Group   3 Type N   : 10s4p1d contracted to 3s2p1d pattern {631/31/1}
 Group   4 Type H   : 4s contracted to 2s pattern {31}

Atom   0C    basis set group =>   1
Atom   1O    basis set group =>   2
Atom   2C    basis set group =>   1
Atom   3O    basis set group =>   2
Atom   4C    basis set group =>   1
Atom   5C    basis set group =>   1
Atom   6C    basis set group =>   1
Atom   7C    basis set group =>   1
Atom   8N    basis set group =>   3
Atom   9C    basis set group =>   1
Atom  10C    basis set group =>   1
Atom  11C    basis set group =>   1
Atom  12C    basis set group =>   1
Atom  13C    basis set group =>   1
Atom  14C    basis set group =>   1
Atom  15C    basis set group =>   1
Atom  16C    basis set group =>   1
Atom  17C    basis set group =>   1
Atom  18C    basis set group =>   1
Atom  19C    basis set group =>   1
Atom  20C    basis set group =>   1
Atom  21C    basis set group =>   1
Atom  22N    basis set group =>   3
Atom  23C    basis set group =>   1
Atom  24C    basis set group =>   1
Atom  25C    basis set group =>   1
Atom  26C    basis set group =>   1
Atom  27C    basis set group =>   1
Atom  28C    basis set group =>   1
Atom  29C    basis set group =>   1
Atom  30H    basis set group =>   4
Atom  31H    basis set group =>   4
Atom  32H    basis set group =>   4
Atom  33H    basis set group =>   4
Atom  34H    basis set group =>   4
Atom  35H    basis set group =>   4
Atom  36H    basis set group =>   4
Atom  37H    basis set group =>   4
Atom  38H    basis set group =>   4
Atom  39H    basis set group =>   4
Atom  40H    basis set group =>   4
Atom  41H    basis set group =>   4
Atom  42H    basis set group =>   4
Atom  43H    basis set group =>   4
Atom  44H    basis set group =>   4
Atom  45H    basis set group =>   4
Atom  46H    basis set group =>   4
Atom  47H    basis set group =>   4
Atom  48H    basis set group =>   4
Atom  49H    basis set group =>   4
Atom  50H    basis set group =>   4
Atom  51H    basis set group =>   4
Atom  52H    basis set group =>   4
Atom  53H    basis set group =>   4
---------------------------------
AUXILIARY/J BASIS SET INFORMATION
---------------------------------
There are 4 groups of distinct atoms

 Group   1 Type C   : 12s5p4d2f1g contracted to 6s4p3d1f1g pattern {711111/2111/211/2/1}
 Group   2 Type O   : 12s5p4d2f1g contracted to 6s4p3d1f1g pattern {711111/2111/211/2/1}
 Group   3 Type N   : 12s5p4d2f1g contracted to 6s4p3d1f1g pattern {711111/2111/211/2/1}
 Group   4 Type H   : 5s2p1d contracted to 3s1p1d pattern {311/2/1}

Atom   0C    basis set group =>   1
Atom   1O    basis set group =>   2
Atom   2C    basis set group =>   1
Atom   3O    basis set group =>   2
Atom   4C    basis set group =>   1
Atom   5C    basis set group =>   1
Atom   6C    basis set group =>   1
Atom   7C    basis set group =>   1
Atom   8N    basis set group =>   3
Atom   9C    basis set group =>   1
Atom  10C    basis set group =>   1
Atom  11C    basis set group =>   1
Atom  12C    basis set group =>   1
Atom  13C    basis set group =>   1
Atom  14C    basis set group =>   1
Atom  15C    basis set group =>   1
Atom  16C    basis set group =>   1
Atom  17C    basis set group =>   1
Atom  18C    basis set group =>   1
Atom  19C    basis set group =>   1
Atom  20C    basis set group =>   1
Atom  21C    basis set group =>   1
Atom  22N    basis set group =>   3
Atom  23C    basis set group =>   1
Atom  24C    basis set group =>   1
Atom  25C    basis set group =>   1
Atom  26C    basis set group =>   1
Atom  27C    basis set group =>   1
Atom  28C    basis set group =>   1
Atom  29C    basis set group =>   1
Atom  30H    basis set group =>   4
Atom  31H    basis set group =>   4
Atom  32H    basis set group =>   4
Atom  33H    basis set group =>   4
Atom  34H    basis set group =>   4
Atom  35H    basis set group =>   4
Atom  36H    basis set group =>   4
Atom  37H    basis set group =>   4
Atom  38H    basis set group =>   4
Atom  39H    basis set group =>   4
Atom  40H    basis set group =>   4
Atom  41H    basis set group =>   4
Atom  42H    basis set group =>   4
Atom  43H    basis set group =>   4
Atom  44H    basis set group =>   4
Atom  45H    basis set group =>   4
Atom  46H    basis set group =>   4
Atom  47H    basis set group =>   4
Atom  48H    basis set group =>   4
Atom  49H    basis set group =>   4
Atom  50H    basis set group =>   4
Atom  51H    basis set group =>   4
Atom  52H    basis set group =>   4
Atom  53H    basis set group =>   4
------------------------------------------------------------------------------
                             ORCA STARTUP CALCULATIONS
                           -- RI-GTO INTEGRALS CHOSEN --
------------------------------------------------------------------------------
------------------------------------------------------------------------------
                   ___                                                        
                  /   \      - P O W E R E D   B Y -                         
                 /     \                                                     
                 |  |  |   _    _      __       _____    __    __             
                 |  |  |  | |  | |    /  \     |  _  \  |  |  /  |          
                  \  \/   | |  | |   /    \    | | | |  |  | /  /          
                 / \  \   | |__| |  /  /\  \   | |_| |  |  |/  /          
                |  |  |   |  __  | /  /__\  \  |    /   |      \           
                |  |  |   | |  | | |   __   |  |    \   |  |\   \          
                \     /   | |  | | |  |  |  |  | |\  \  |  | \   \       
                 \___/    |_|  |_| |__|  |__|  |_| \__\ |__|  \__/        
                                                                              
                      - O R C A' S   B I G   F R I E N D -                    
                                      &                                       
                       - I N T E G R A L  F E E D E R -                       
                                                                              
 v1 FN, 2020, v2 2021, v3 2022-2024                                           
------------------------------------------------------------------------------


----------------------
SHARK INTEGRAL PACKAGE
----------------------

Number of atoms                             ...     54
Number of basis functions                   ...    468
Number of shells                            ...    228
Maximum angular momentum                    ...      2
Integral batch strategy                     ... SHARK/LIBINT Hybrid
RI-J (if used) integral strategy            ... SPLIT-RIJ (Revised 2003 algorithm where possible)
Printlevel                                  ...      1
Contraction scheme used                     ... SEGMENTED contraction
Prescreening option                         ... SCHWARTZ
   Thresh                                   ... 1.000e-10
   Tcut                                     ... 1.000e-11
   Tpresel                                  ... 1.000e-11 
Coulomb Range Separation                    ... NOT USED
Exchange Range Separation                   ... NOT USED
Multipole approximations                    ... NOT USED
Finite Nucleus Model                        ... NOT USED
CABS basis                                  ... NOT available
Auxiliary Coulomb fitting basis             ... AVAILABLE
   # of basis functions in Aux-J            ...   1734
   # of shells in Aux-J                     ...    570
   Maximum angular momentum in Aux-J        ...      4
Auxiliary J/K fitting basis                 ... NOT available
Auxiliary Correlation fitting basis         ... NOT available
Auxiliary 'external' fitting basis          ... NOT available

Checking pre-screening integrals            ... done (  0.0 sec) Dimension = 228
Check shell pair data                       ... done (  0.0 sec)
Shell pair information
Shell pair cut-off parameter TPreSel        ...   1.0e-11
Total number of shell pairs                 ...     26106
Shell pairs after pre-screening             ...     17855
Total number of primitive shell pairs       ...    150033
Primitive shell pairs kept                  ...     53155
          la=0 lb=0:   6108 shell pairs
          la=1 lb=0:   6222 shell pairs
          la=1 lb=1:   1568 shell pairs
          la=2 lb=0:   2397 shell pairs
          la=2 lb=1:   1318 shell pairs
          la=2 lb=2:    242 shell pairs

Calculating one electron integrals          ... done (  0.3 sec)
Calculating RI/J V-Matrix + Cholesky decomp.... done (  0.4 sec)
Calculating Nuclear repulsion               ... done (  0.1 sec) ENN=   2911.420919675626 Eh

Diagonalization of the overlap matrix:
Smallest eigenvalue                        ... 3.314e-04
Time for diagonalization                   ...    0.035 sec
Threshold for overlap eigenvalues          ... 1.000e-07
Number of eigenvalues below threshold      ... 0
Time for construction of square roots      ...    0.033 sec
Total time needed                          ...    0.082 sec

-------------------
DFT GRID GENERATION
-------------------

General Integration Accuracy     IntAcc      ... 4.388
Radial Grid Type                 RadialGrid  ... OptM3 with GC (2021)
Angular Grid (max. ang.)         AngularGrid ... 4 (Lebedev-302)
Angular grid pruning method      GridPruning ... 4 (adaptive)
Weight generation scheme         WeightScheme... mBecke (2022)
Basis function cutoff            BFCut       ... 1.0000e-10
Integration weight cutoff        WCut        ... 1.0000e-14
Partially contracted basis set               ... off
Rotationally invariant grid construction     ... off
Angular grids for H and He will be reduced by one unit

Total number of grid points                  ...   254020
Total number of batches                      ...     3998
Average number of points per batch           ...       63
Average number of grid points per atom       ...     4704

--------------------
COSX GRID GENERATION
--------------------

GRIDX 1
-------
General Integration Accuracy     IntAcc      ... 3.816
Radial Grid Type                 RadialGrid  ... OptM3 with GC (2021)
Angular Grid (max. ang.)         AngularGrid ... 1 (Lebedev-50)
Angular grid pruning method      GridPruning ... 4 (adaptive)
Weight generation scheme         WeightScheme... mBecke (2022)
Basis function cutoff            BFCut       ... 1.0000e-10
Integration weight cutoff        WCut        ... 1.0000e-14
Partially contracted basis set               ... on
Rotationally invariant grid construction     ... off
Angular grids for H and He will be reduced by one unit

Total number of grid points                  ...    32241
Total number of batches                      ...      280
Average number of points per batch           ...      115
Average number of grid points per atom       ...      597
UseSFitting                                  ... on

GRIDX 2
-------
General Integration Accuracy     IntAcc      ... 4.020
Radial Grid Type                 RadialGrid  ... OptM3 with GC (2021)
Angular Grid (max. ang.)         AngularGrid ... 2 (Lebedev-110)
Angular grid pruning method      GridPruning ... 4 (adaptive)
Weight generation scheme         WeightScheme... mBecke (2022)
Basis function cutoff            BFCut       ... 1.0000e-10
Integration weight cutoff        WCut        ... 1.0000e-14
Partially contracted basis set               ... on
Rotationally invariant grid construction     ... off
Angular grids for H and He will be reduced by one unit

Total number of grid points                  ...    69267
Total number of batches                      ...      567
Average number of points per batch           ...      122
Average number of grid points per atom       ...     1283
UseSFitting                                  ... on

GRIDX 3
-------
General Integration Accuracy     IntAcc      ... 4.338
Radial Grid Type                 RadialGrid  ... OptM3 with GC (2021)
Angular Grid (max. ang.)         AngularGrid ... 3 (Lebedev-194)
Angular grid pruning method      GridPruning ... 4 (adaptive)
Weight generation scheme         WeightScheme... mBecke (2022)
Basis function cutoff            BFCut       ... 1.0000e-10
Integration weight cutoff        WCut        ... 1.0000e-14
Partially contracted basis set               ... on
Rotationally invariant grid construction     ... off
Angular grids for H and He will be reduced by one unit

Total number of grid points                  ...   150903
Total number of batches                      ...     1206
Average number of points per batch           ...      125
Average number of grid points per atom       ...     2794
UseSFitting                                  ... on
Initializing property integral containers    ... done (  0.0 sec)

SHARK setup successfully completed in  15.0 seconds

Maximum memory used throughout the entire STARTUP-calculation: 112.5 MB
-------------------------------------------------------------------------------
                                 ORCA GUESS
                   Start orbitals & Density for SCF / CASSCF
-------------------------------------------------------------------------------

------------
SCF SETTINGS
------------
Hamiltonian:
 Density Functional     Method          .... DFT(GTOs)
 Exchange Functional    Exchange        .... B88
   X-Alpha parameter    XAlpha          ....  0.666667
   Becke's b parameter  XBeta           ....  0.004200
 Correlation Functional Correlation     .... LYP
 LDA part of GGA corr.  LDAOpt          .... VWN-5
 Gradients option       PostSCFGGA      .... off
 Hybrid DFT is turned on
   Fraction HF Exchange ScalHFX         ....  0.200000
   Scaling of DF-GGA-X  ScalDFX         ....  0.720000
   Scaling of DF-GGA-C  ScalDFC         ....  0.810000
   Scaling of DF-LDA-C  ScalLDAC        ....  1.000000
   Perturbative correction              ....  0.000000
   NL short-range parameter             ....  4.800000
 RI-approximation to the Coulomb term is turned on
   Number of AuxJ basis functions       .... 1734
   RIJ-COSX (HFX calculated with COS-X)).... on


General Settings:
 Integral files         IntName         .... /home/nmrbox/aojoawo/Documents/ERDOS/inputs/CHEMBL4647444
 Hartree-Fock type      HFTyp           .... RHF
 Total Charge           Charge          ....    0
 Multiplicity           Mult            ....    1
 Number of Electrons    NEL             ....  210
 Basis Dimension        Dim             ....  468
 Nuclear Repulsion      ENuc            ....   2911.4209196756 Eh

Convergence Acceleration:
 AO-DIIS                CNVDIIS         .... on
   Start iteration      DIISMaxIt       ....    12
   Startup error        DIISStart       ....  0.200000
   # of expansion vecs  DIISMaxEq       ....     5
   Bias factor          DIISBfac        ....   1.050
   Max. coefficient     DIISMaxC        ....  10.000
 MO-DIIS                CNVKDIIS        .... off
 Trust-Rad. Augm. Hess. CNVTRAH         .... auto
   Auto Start mean grad. ratio tolernc. ....  1.125000
   Auto Start start iteration           ....    50
   Auto Start num. interpolation iter.  ....    10
   Max. Number of Micro iterations      ....    24
   Max. Number of Macro iterations      .... Maxiter - #DIIS iter
   Number of Davidson start vectors     ....     2
   Converg. threshold    (grad. norm)   ....   5.000e-05
   Grad. Scal. Fac. for Micro threshold ....   0.100
   Minimum threshold for Micro iter.    ....   1.000e-02
   NR start threshold (gradient norm)   ....   1.000e-04
   Initial trust radius                 ....   0.400
   Minimum AH scaling param. (alpha)    ....   1.000
   Maximum AH scaling param. (alpha)    .... 1000.000
   Quad. conv. algorithm                .... NR
   White noise on init. David. guess    .... on
   Maximum white noise                  ....   0.010
   Pseudo random numbers                .... off
   Inactive MOs                         .... canonical
   Orbital update algorithm             .... Taylor
   Preconditioner                       .... Diag
   Full preconditioner red. dimension   ....   250
 SOSCF                  CNVSOSCF        .... on
   Start iteration      SOSCFMaxIt      ....   150
   Startup grad/error   SOSCFStart      ....  0.003300
   Hessian update       SOSCFHessUp     .... L-BFGS
 Level Shifting         CNVShift        .... on
   Level shift para.    LevelShift      ....    0.2500
   Turn off err/grad.   ShiftErr        ....    0.0010
 Zerner damping         CNVZerner       .... off
 Static damping         CNVDamp         .... on
   Fraction old density DampFac         ....    0.7000
   Max. Damping (<1)    DampMax         ....    0.9800
   Min. Damping (>=0)   DampMin         ....    0.0000
   Turn off err/grad.   DampErr         ....    0.1000

SCF Procedure:
 Maximum # iterations   MaxIter         ....   125
 SCF integral mode      SCFMode         .... Direct
   Integral package                     .... SHARK and LIBINT hybrid scheme
 Reset frequency        DirectResetFreq ....    20
 Integral Threshold     Thresh          ....  1.000e-10 Eh
 Primitive CutOff       TCut            ....  1.000e-11 Eh

Convergence Tolerance:
 Convergence Check Mode ConvCheckMode   .... Total+1el-Energy
 Convergence forced     ConvForced      .... 0
 Energy Change          TolE            ....  1.000e-06 Eh
 1-El. energy change                    ....  1.000e-03 Eh
 Orbital Gradient       TolG            ....  5.000e-05
 Orbital Rotation angle TolX            ....  5.000e-05
 DIIS Error             TolErr          ....  1.000e-06

------------------------------
INITIAL GUESS: MODEL POTENTIAL
------------------------------
Loading Hartree-Fock densities                     ... done
Calculating cut-offs                               ... done
Initializing the effective Hamiltonian             ... done
Setting up the integral package (SHARK)            ... done
Starting the Coulomb interaction                   ... done (   3.9 sec)
Making the grid                                    ... done (   1.9 sec)
Mapping shells                                     ... done
Starting the XC term evaluation                    ... done (   1.4 sec)
  promolecular density results
     # of electrons  =    209.990523653
     EX              =   -170.409283169
     EC              =     -7.124081284
     EX+EC           =   -177.533364453
Transforming the Hamiltonian                       ... done (   0.0 sec)
Diagonalizing the Hamiltonian                      ... done (   0.0 sec)
Back transforming the eigenvectors                 ... done (   0.0 sec)
Now organizing SCF variables                       ... done
                      ------------------
                      INITIAL GUESS DONE (   7.3 sec)
                      ------------------
             **** ENERGY FILE WAS UPDATED (/home/nmrbox/aojoawo/Documents/ERDOS/inputs/CHEMBL4647444.en.tmp) ****
Finished Guess after   7.6 sec
Maximum memory used throughout the entire GUESS-calculation: 62.3 MB

-------------------------------------------------------------------------------------------
                                      ORCA LEAN-SCF
                              memory conserving SCF solver
-------------------------------------------------------------------------------------------

----------------------------------------D-I-I-S--------------------------------------------
Iteration    Energy (Eh)           Delta-E    RMSDP     MaxDP     DIISErr   Damp  Time(sec)
-------------------------------------------------------------------------------------------
               ***  Starting incremental Fock matrix formation  ***
    1    -1263.6530565029884201     0.00e+00  2.02e-03  1.04e-01  2.69e-01  0.700  74.1
    2    -1263.9644673965490256    -3.11e-01  1.42e-03  5.58e-02  9.62e-02  0.700  32.8
                               ***Turning on AO-DIIS***
    3    -1264.0927794309095589    -1.28e-01  6.39e-04  1.78e-02  4.29e-02  0.700  31.9
    4    -1264.1700444198318110    -7.73e-02  1.17e-03  3.29e-02  2.05e-02  0.000  29.6
    5    -1264.3371861846612774    -1.67e-01  2.14e-04  9.10e-03  8.14e-03  0.000  30.8
                              *** Initializing SOSCF ***
---------------------------------------S-O-S-C-F--------------------------------------
Iteration    Energy (Eh)           Delta-E    RMSDP     MaxDP     MaxGrad    Time(sec)
--------------------------------------------------------------------------------------
    6    -1264.3382660393322112    -1.08e-03  7.60e-05  2.57e-03  2.86e-03    25.7
               *** Restarting incremental Fock matrix formation ***
    7    -1264.3383239005302130    -5.79e-05  5.49e-05  3.98e-03  6.98e-04    75.1
    8    -1264.3382801055781783     4.38e-05  3.35e-05  3.05e-03  1.93e-03    41.3
    9    -1264.3383384483545342    -5.83e-05  6.88e-06  3.29e-04  5.70e-05    35.3
   10    -1264.3383376881952245     7.60e-07  4.67e-06  2.32e-04  1.19e-04    27.7
                 **** Energy Check signals convergence ****

               *****************************************************
               *                     SUCCESS                       *
               *           SCF CONVERGED AFTER  10 CYCLES          *
               *****************************************************

Recomputing exchange energy using gridx3       ... done (  126.231 sec)
Old exchange energy                            :    -34.638880679 Eh
New exchange energy                            :    -34.638946501 Eh
Exchange energy change after final integration :     -0.000065822 Eh
Total energy after final integration           :  -1264.338403510 Eh
             **** ENERGY FILE WAS UPDATED (/home/nmrbox/aojoawo/Documents/ERDOS/inputs/CHEMBL4647444.en.tmp) ****

----------------
TOTAL SCF ENERGY
----------------

Total Energy       :      -1264.33840351003096 Eh          -34404.39705 eV

Components:
Nuclear Repulsion  :       2911.42091967562601 Eh           79223.79088 eV
Electronic Energy  :      -4175.75925736382123 Eh         -113628.18614 eV
One Electron Energy:      -7507.86197798120429 Eh         -204299.31080 eV
Two Electron Energy:       3332.10272061738260 Eh           90671.12466 eV

Virial components:
Potential Energy   :      -2521.19871111879411 Eh          -68605.30476 eV
Kinetic Energy     :       1256.86030760876315 Eh           34200.90771 eV
Virial Ratio       :          2.00594982263025

DFT components:
N(Alpha)           :      105.000002474970 electrons
N(Beta)            :      105.000002474970 electrons
N(Total)           :      210.000004949941 electrons
E(X)               :     -137.529856786427 Eh       
E(C)               :       -8.386146201100 Eh       
E(XC)              :     -145.916002987527 Eh       

---------------
SCF CONVERGENCE
---------------

  Last Energy change         ...   -7.6016e-07  Tolerance :   1.0000e-06
  Last MAX-Density change    ...    2.3206e-04  Tolerance :   1.0000e-05
  Last RMS-Density change    ...    4.6734e-06  Tolerance :   1.0000e-06
  Last DIIS Error            ...    2.8621e-03  Tolerance :   1.0000e-06
  Last Orbital Gradient      ...    1.1866e-04  Tolerance :   5.0000e-05
  Last Orbital Rotation      ...    1.5339e-04  Tolerance :   5.0000e-05


----------------
ORBITAL ENERGIES
----------------

  NO   OCC          E(Eh)            E(eV) 
   0   2.0000     -19.180207      -521.9200 
   1   2.0000     -19.128623      -520.5163 
   2   2.0000     -14.368702      -390.9923 
   3   2.0000     -14.325329      -389.8120 
   4   2.0000     -10.316508      -280.7265 
   5   2.0000     -10.235948      -278.5343 
   6   2.0000     -10.229176      -278.3500 
   7   2.0000     -10.224783      -278.2305 
   8   2.0000     -10.207815      -277.7688 
   9   2.0000     -10.198159      -277.5060 
  10   2.0000     -10.194423      -277.4043 
  11   2.0000     -10.188249      -277.2363 
  12   2.0000     -10.180387      -277.0224 
  13   2.0000     -10.179965      -277.0109 
  14   2.0000     -10.179514      -276.9986 
  15   2.0000     -10.178933      -276.9829 
  16   2.0000     -10.178712      -276.9768 
  17   2.0000     -10.178550      -276.9724 
  18   2.0000     -10.173995      -276.8485 
  19   2.0000     -10.172860      -276.8176 
  20   2.0000     -10.171998      -276.7941 
  21   2.0000     -10.171577      -276.7827 
  22   2.0000     -10.170591      -276.7559 
  23   2.0000     -10.170537      -276.7544 
  24   2.0000     -10.168458      -276.6978 
  25   2.0000     -10.164744      -276.5967 
  26   2.0000     -10.162460      -276.5346 
  27   2.0000     -10.161288      -276.5027 
  28   2.0000     -10.152819      -276.2723 
  29   2.0000     -10.151875      -276.2466 
  30   2.0000      -1.074316       -29.2336 
  31   2.0000      -0.990685       -26.9579 
  32   2.0000      -0.988614       -26.9015 
  33   2.0000      -0.920595       -25.0507 
  34   2.0000      -0.848757       -23.0959 
  35   2.0000      -0.839741       -22.8505 
  36   2.0000      -0.828448       -22.5432 
  37   2.0000      -0.794570       -21.6214 
  38   2.0000      -0.780823       -21.2473 
  39   2.0000      -0.763702       -20.7814 
  40   2.0000      -0.739959       -20.1353 
  41   2.0000      -0.734998       -20.0003 
  42   2.0000      -0.732600       -19.9351 
  43   2.0000      -0.724780       -19.7223 
  44   2.0000      -0.721453       -19.6317 
  45   2.0000      -0.706683       -19.2298 
  46   2.0000      -0.675469       -18.3804 
  47   2.0000      -0.656297       -17.8587 
  48   2.0000      -0.628917       -17.1137 
  49   2.0000      -0.606979       -16.5167 
  50   2.0000      -0.599226       -16.3058 
  51   2.0000      -0.595126       -16.1942 
  52   2.0000      -0.586330       -15.9549 
  53   2.0000      -0.574070       -15.6212 
  54   2.0000      -0.565054       -15.3759 
  55   2.0000      -0.557852       -15.1799 
  56   2.0000      -0.534781       -14.5521 
  57   2.0000      -0.529090       -14.3973 
  58   2.0000      -0.510644       -13.8953 
  59   2.0000      -0.506974       -13.7955 
  60   2.0000      -0.500655       -13.6235 
  61   2.0000      -0.484195       -13.1756 
  62   2.0000      -0.474617       -12.9150 
  63   2.0000      -0.462601       -12.5880 
  64   2.0000      -0.461404       -12.5554 
  65   2.0000      -0.458192       -12.4680 
  66   2.0000      -0.452774       -12.3206 
  67   2.0000      -0.450391       -12.2558 
  68   2.0000      -0.442595       -12.0436 
  69   2.0000      -0.434249       -11.8165 
  70   2.0000      -0.428622       -11.6634 
  71   2.0000      -0.427687       -11.6380 
  72   2.0000      -0.425040       -11.5659 
  73   2.0000      -0.419822       -11.4239 
  74   2.0000      -0.415409       -11.3039 
  75   2.0000      -0.413242       -11.2449 
  76   2.0000      -0.408851       -11.1254 
  77   2.0000      -0.405643       -11.0381 
  78   2.0000      -0.396328       -10.7846 
  79   2.0000      -0.393124       -10.6975 
  80   2.0000      -0.378984       -10.3127 
  81   2.0000      -0.372547       -10.1375 
  82   2.0000      -0.367572       -10.0021 
  83   2.0000      -0.361666        -9.8414 
  84   2.0000      -0.359950        -9.7947 
  85   2.0000      -0.351141        -9.5550 
  86   2.0000      -0.342701        -9.3254 
  87   2.0000      -0.340345        -9.2613 
  88   2.0000      -0.339451        -9.2369 
  89   2.0000      -0.335625        -9.1328 
  90   2.0000      -0.332343        -9.0435 
  91   2.0000      -0.327264        -8.9053 
  92   2.0000      -0.325266        -8.8509 
  93   2.0000      -0.322989        -8.7890 
  94   2.0000      -0.315835        -8.5943 
  95   2.0000      -0.288705        -7.8561 
  96   2.0000      -0.263025        -7.1573 
  97   2.0000      -0.259527        -7.0621 
  98   2.0000      -0.246193        -6.6993 
  99   2.0000      -0.243924        -6.6375 
 100   2.0000      -0.237903        -6.4737 
 101   2.0000      -0.236209        -6.4276 
 102   2.0000      -0.208721        -5.6796 
 103   2.0000      -0.203131        -5.5275 
 104   2.0000      -0.181223        -4.9313 
 105   0.0000      -0.013668        -0.3719 
 106   0.0000      -0.001242        -0.0338 
 107   0.0000       0.000917         0.0250 
 108   0.0000       0.003940         0.1072 
 109   0.0000       0.009441         0.2569 
 110   0.0000       0.011186         0.3044 
 111   0.0000       0.041076         1.1177 
 112   0.0000       0.066072         1.7979 
 113   0.0000       0.079987         2.1766 
 114   0.0000       0.086754         2.3607 
 115   0.0000       0.097604         2.6559 
*Only the first 10 virtual orbitals were printed.

                    ********************************
                    * MULLIKEN POPULATION ANALYSIS *
                    ********************************

-----------------------
MULLIKEN ATOMIC CHARGES
-----------------------
   0 C :   -0.197682
   1 O :   -0.457360
   2 C :    0.584644
   3 O :   -0.457432
   4 C :   -0.058116
   5 C :   -0.333785
   6 C :    0.042901
   7 C :    0.252555
   8 N :   -0.696297
   9 C :    0.307413
  10 C :   -0.198451
  11 C :   -0.142959
  12 C :   -0.151112
  13 C :   -0.201391
  14 C :    0.101652
  15 C :   -0.157306
  16 C :    0.181058
  17 C :   -0.182342
  18 C :   -0.132278
  19 C :   -0.123094
  20 C :   -0.129836
  21 C :   -0.165647
  22 N :   -0.364979
  23 C :   -0.260643
  24 C :    0.166916
  25 C :   -0.160609
  26 C :   -0.123084
  27 C :   -0.125182
  28 C :   -0.126434
  29 C :   -0.182947
  30 H :    0.158749
  31 H :    0.165436
  32 H :    0.164196
  33 H :    0.175439
  34 H :    0.142046
  35 H :    0.187074
  36 H :    0.328972
  37 H :    0.110503
  38 H :    0.115374
  39 H :    0.114945
  40 H :    0.124887
  41 H :    0.131161
  42 H :    0.140748
  43 H :    0.129295
  44 H :    0.126089
  45 H :    0.126671
  46 H :    0.121034
  47 H :    0.148119
  48 H :    0.153361
  49 H :    0.112244
  50 H :    0.125756
  51 H :    0.125323
  52 H :    0.127971
  53 H :    0.136431
Sum of atomic charges:    0.0000000

--------------------------------
MULLIKEN REDUCED ORBITAL CHARGES
--------------------------------
  0 C s       :     3.254799  s :     3.254799
      pz      :     0.878494  p :     2.885029
      px      :     0.969111
      py      :     1.037424
      dz2     :     0.014567  d :     0.057854
      dxz     :     0.015819
      dyz     :     0.007500
      dx2y2   :     0.009172
      dxy     :     0.010797

  1 O s       :     3.856695  s :     3.856695
      pz      :     1.582921  p :     4.575182
      px      :     1.577120
      py      :     1.415141
      dz2     :     0.005777  d :     0.025483
      dxz     :     0.004867
      dyz     :     0.004151
      dx2y2   :     0.005981
      dxy     :     0.004707

  2 C s       :     3.024419  s :     3.024419
      pz      :     0.834884  p :     2.282039
      px      :     0.777957
      py      :     0.669198
      dz2     :     0.026778  d :     0.108898
      dxz     :     0.015539
      dyz     :     0.025590
      dx2y2   :     0.021076
      dxy     :     0.019915

  3 O s       :     3.896648  s :     3.896648
      pz      :     1.450924  p :     4.535126
      px      :     1.499857
      py      :     1.584345
      dz2     :     0.007130  d :     0.025658
      dxz     :     0.005174
      dyz     :     0.007306
      dx2y2   :     0.002519
      dxy     :     0.003528

  4 C s       :     3.200806  s :     3.200806
      pz      :     0.831522  p :     2.800753
      px      :     0.983659
      py      :     0.985571
      dz2     :     0.012283  d :     0.056557
      dxz     :     0.012285
      dyz     :     0.011649
      dx2y2   :     0.006015
      dxy     :     0.014325

  5 C s       :     3.261581  s :     3.261581
      pz      :     1.013203  p :     3.031923
      px      :     1.054953
      py      :     0.963767
      dz2     :     0.007391  d :     0.040282
      dxz     :     0.012153
      dyz     :     0.005673
      dx2y2   :     0.006056
      dxy     :     0.009009

  6 C s       :     3.106467  s :     3.106467
      pz      :     0.838859  p :     2.806672
      px      :     1.021925
      py      :     0.945888
      dz2     :     0.010749  d :     0.043961
      dxz     :     0.009389
      dyz     :     0.011505
      dx2y2   :     0.006384
      dxy     :     0.005934

  7 C s       :     3.060910  s :     3.060910
      pz      :     0.845061  p :     2.626912
      px      :     0.924277
      py      :     0.857573
      dz2     :     0.011578  d :     0.059623
      dxz     :     0.015067
      dyz     :     0.017177
      dx2y2   :     0.007892
      dxy     :     0.007908

  8 N s       :     3.664195  s :     3.664195
      pz      :     1.158334  p :     3.991810
      px      :     1.506365
      py      :     1.327111
      dz2     :     0.013067  d :     0.040293
      dxz     :     0.005121
      dyz     :     0.008850
      dx2y2   :     0.008070
      dxy     :     0.005184

  9 C s       :     3.030106  s :     3.030106
      pz      :     0.902693  p :     2.599244
      px      :     0.926718
      py      :     0.769833
      dz2     :     0.012733  d :     0.063236
      dxz     :     0.011578
      dyz     :     0.015879
      dx2y2   :     0.012374
      dxy     :     0.010673

 10 C s       :     3.179393  s :     3.179393
      pz      :     0.945875  p :     2.983237
      px      :     1.034808
      py      :     1.002553
      dz2     :     0.011945  d :     0.035821
      dxz     :     0.004073
      dyz     :     0.007513
      dx2y2   :     0.006474
      dxy     :     0.005816

 11 C s       :     3.198038  s :     3.198038
      pz      :     0.925320  p :     2.909253
      px      :     1.006823
      py      :     0.977110
      dz2     :     0.008890  d :     0.035669
      dxz     :     0.007411
      dyz     :     0.010476
      dx2y2   :     0.003239
      dxy     :     0.005651

 12 C s       :     3.203275  s :     3.203275
      pz      :     0.923440  p :     2.912190
      px      :     1.006054
      py      :     0.982696
      dz2     :     0.008223  d :     0.035647
      dxz     :     0.006857
      dyz     :     0.011554
      dx2y2   :     0.004350
      dxy     :     0.004664

 13 C s       :     3.191148  s :     3.191148
      pz      :     0.966468  p :     2.973821
      px      :     1.004516
      py      :     1.002837
      dz2     :     0.011779  d :     0.036422
      dxz     :     0.004599
      dyz     :     0.008386
      dx2y2   :     0.006232
      dxy     :     0.005426

 14 C s       :     3.104868  s :     3.104868
      pz      :     0.834319  p :     2.747026
      px      :     0.999014
      py      :     0.913693
      dz2     :     0.012706  d :     0.046453
      dxz     :     0.007149
      dyz     :     0.009748
      dx2y2   :     0.009039
      dxy     :     0.007811

 15 C s       :     3.248674  s :     3.248674
      pz      :     0.903402  p :     2.847590
      px      :     0.956552
      py      :     0.987635
      dz2     :     0.011152  d :     0.061043
      dxz     :     0.015680
      dyz     :     0.009185
      dx2y2   :     0.009627
      dxy     :     0.015398

 16 C s       :     3.122083  s :     3.122083
      pz      :     0.932281  p :     2.657665
      px      :     0.842730
      py      :     0.882653
      dz2     :     0.005486  d :     0.039194
      dxz     :     0.006813
      dyz     :     0.005657
      dx2y2   :     0.010048
      dxy     :     0.011189

 17 C s       :     3.205004  s :     3.205004
      pz      :     0.992820  p :     2.941574
      px      :     0.974979
      py      :     0.973775
      dz2     :     0.002955  d :     0.035764
      dxz     :     0.006743
      dyz     :     0.006801
      dx2y2   :     0.009366
      dxy     :     0.009899

 18 C s       :     3.190562  s :     3.190562
      pz      :     0.977452  p :     2.905472
      px      :     0.983020
      py      :     0.945001
      dz2     :     0.004588  d :     0.036244
      dxz     :     0.005594
      dyz     :     0.006124
      dx2y2   :     0.011790
      dxy     :     0.008148

 19 C s       :     3.184346  s :     3.184346
      pz      :     0.977025  p :     2.902548
      px      :     0.955163
      py      :     0.970360
      dz2     :     0.005535  d :     0.036200
      dxz     :     0.006058
      dyz     :     0.004460
      dx2y2   :     0.008377
      dxy     :     0.011769

 20 C s       :     3.188858  s :     3.188858
      pz      :     0.986437  p :     2.904755
      px      :     0.945030
      py      :     0.973288
      dz2     :     0.002971  d :     0.036224
      dxz     :     0.006664
      dyz     :     0.006780
      dx2y2   :     0.009571
      dxy     :     0.010238

 21 C s       :     3.201072  s :     3.201072
      pz      :     1.000063  p :     2.928664
      px      :     0.966600
      py      :     0.962001
      dz2     :     0.004370  d :     0.035911
      dxz     :     0.005491
      dyz     :     0.006070
      dx2y2   :     0.011927
      dxy     :     0.008052

 22 N s       :     3.567326  s :     3.567326
      pz      :     1.012739  p :     3.763325
      px      :     1.032416
      py      :     1.718171
      dz2     :     0.007854  d :     0.034328
      dxz     :     0.010725
      dyz     :     0.005062
      dx2y2   :     0.003991
      dxy     :     0.006696

 23 C s       :     3.267183  s :     3.267183
      pz      :     1.104743  p :     2.938906
      px      :     0.854182
      py      :     0.979982
      dz2     :     0.008737  d :     0.054555
      dxz     :     0.009489
      dyz     :     0.006892
      dx2y2   :     0.014337
      dxy     :     0.015101

 24 C s       :     3.124805  s :     3.124805
      pz      :     0.870969  p :     2.668442
      px      :     0.945836
      py      :     0.851638
      dz2     :     0.009742  d :     0.039837
      dxz     :     0.005857
      dyz     :     0.012274
      dx2y2   :     0.006661
      dxy     :     0.005302

 25 C s       :     3.194747  s :     3.194747
      pz      :     0.966316  p :     2.929804
      px      :     0.998958
      py      :     0.964530
      dz2     :     0.009212  d :     0.036059
      dxz     :     0.003978
      dyz     :     0.011268
      dx2y2   :     0.005421
      dxy     :     0.006179

 26 C s       :     3.185820  s :     3.185820
      pz      :     0.964385  p :     2.901035
      px      :     0.984661
      py      :     0.951990
      dz2     :     0.007694  d :     0.036229
      dxz     :     0.004035
      dyz     :     0.013494
      dx2y2   :     0.005561
      dxy     :     0.005444

 27 C s       :     3.184592  s :     3.184592
      pz      :     0.943314  p :     2.904398
      px      :     0.985814
      py      :     0.975271
      dz2     :     0.010222  d :     0.036192
      dxz     :     0.005770
      dyz     :     0.009379
      dx2y2   :     0.007613
      dxy     :     0.003208

 28 C s       :     3.187948  s :     3.187948
      pz      :     0.969151  p :     2.902273
      px      :     0.991777
      py      :     0.941344
      dz2     :     0.008721  d :     0.036213
      dxz     :     0.004369
      dyz     :     0.011306
      dx2y2   :     0.005476
      dxy     :     0.006340

 29 C s       :     3.204376  s :     3.204376
      pz      :     0.976078  p :     2.942507
      px      :     0.991549
      py      :     0.974880
      dz2     :     0.007519  d :     0.036065
      dxz     :     0.004151
      dyz     :     0.013246
      dx2y2   :     0.005561
      dxy     :     0.005587

 30 H s       :     0.841251  s :     0.841251

 31 H s       :     0.834564  s :     0.834564

 32 H s       :     0.835804  s :     0.835804

 33 H s       :     0.824561  s :     0.824561

 34 H s       :     0.857954  s :     0.857954

 35 H s       :     0.812926  s :     0.812926

 36 H s       :     0.671028  s :     0.671028

 37 H s       :     0.889497  s :     0.889497

 38 H s       :     0.884626  s :     0.884626

 39 H s       :     0.885055  s :     0.885055

 40 H s       :     0.875113  s :     0.875113

 41 H s       :     0.868839  s :     0.868839

 42 H s       :     0.859252  s :     0.859252

 43 H s       :     0.870705  s :     0.870705

 44 H s       :     0.873911  s :     0.873911

 45 H s       :     0.873329  s :     0.873329

 46 H s       :     0.878966  s :     0.878966

 47 H s       :     0.851881  s :     0.851881

 48 H s       :     0.846639  s :     0.846639

 49 H s       :     0.887756  s :     0.887756

 50 H s       :     0.874244  s :     0.874244

 51 H s       :     0.874677  s :     0.874677

 52 H s       :     0.872029  s :     0.872029

 53 H s       :     0.863569  s :     0.863569



                     *******************************
                     * LOEWDIN POPULATION ANALYSIS *
                     *******************************

----------------------
LOEWDIN ATOMIC CHARGES
----------------------
   0 C :   -0.199920
   1 O :   -0.174428
   2 C :    0.186999
   3 O :   -0.258924
   4 C :   -0.067699
   5 C :   -0.224426
   6 C :   -0.080967
   7 C :   -0.011614
   8 N :   -0.117936
   9 C :    0.009789
  10 C :   -0.157719
  11 C :   -0.146030
  12 C :   -0.147315
  13 C :   -0.134644
  14 C :   -0.041266
  15 C :   -0.053124
  16 C :   -0.020630
  17 C :   -0.138902
  18 C :   -0.129393
  19 C :   -0.130591
  20 C :   -0.129603
  21 C :   -0.125734
  22 N :   -0.144917
  23 C :   -0.153437
  24 C :   -0.038857
  25 C :   -0.128810
  26 C :   -0.127814
  27 C :   -0.130486
  28 C :   -0.130558
  29 C :   -0.135047
  30 H :    0.125253
  31 H :    0.133225
  32 H :    0.128216
  33 H :    0.151893
  34 H :    0.130645
  35 H :    0.150215
  36 H :    0.266082
  37 H :    0.124341
  38 H :    0.126691
  39 H :    0.125694
  40 H :    0.132037
  41 H :    0.127053
  42 H :    0.137686
  43 H :    0.131685
  44 H :    0.130400
  45 H :    0.130613
  46 H :    0.128708
  47 H :    0.127024
  48 H :    0.126951
  49 H :    0.123252
  50 H :    0.130424
  51 H :    0.130210
  52 H :    0.131317
  53 H :    0.134392

-------------------------------
LOEWDIN REDUCED ORBITAL CHARGES
-------------------------------
  0 C s       :     2.982103  s :     2.982103
      pz      :     0.968995  p :     3.101640
      px      :     1.038618
      py      :     1.094027
      dz2     :     0.030343  d :     0.116178
      dxz     :     0.032281
      dyz     :     0.015029
      dx2y2   :     0.017800
      dxy     :     0.020724

  1 O s       :     3.476801  s :     3.476801
      pz      :     1.602627  p :     4.636362
      px      :     1.585431
      py      :     1.448304
      dz2     :     0.013430  d :     0.061265
      dxz     :     0.010425
      dyz     :     0.010505
      dx2y2   :     0.014477
      dxy     :     0.012429

  2 C s       :     2.879376  s :     2.879376
      pz      :     0.981161  p :     2.684537
      px      :     0.834890
      py      :     0.868486
      dz2     :     0.059890  d :     0.249088
      dxz     :     0.033456
      dyz     :     0.061982
      dx2y2   :     0.050291
      dxy     :     0.043468

  3 O s       :     3.595327  s :     3.595327
      pz      :     1.507680  p :     4.613665
      px      :     1.493470
      py      :     1.612515
      dz2     :     0.012924  d :     0.049933
      dxz     :     0.007999
      dyz     :     0.018578
      dx2y2   :     0.005200
      dxy     :     0.005233

  4 C s       :     2.897721  s :     2.897721
      pz      :     0.938908  p :     3.045509
      px      :     1.045121
      py      :     1.061480
      dz2     :     0.028062  d :     0.124468
      dxz     :     0.029189
      dyz     :     0.024317
      dx2y2   :     0.013587
      dxy     :     0.029312

  5 C s       :     2.929193  s :     2.929193
      pz      :     1.068889  p :     3.209922
      px      :     1.097147
      py      :     1.043886
      dz2     :     0.016500  d :     0.085311
      dxz     :     0.024418
      dyz     :     0.012944
      dx2y2   :     0.012963
      dxy     :     0.018486

  6 C s       :     2.848673  s :     2.848673
      pz      :     1.025950  p :     3.121778
      px      :     1.051795
      py      :     1.044032
      dz2     :     0.028697  d :     0.110516
      dxz     :     0.021622
      dyz     :     0.031147
      dx2y2   :     0.014520
      dxy     :     0.014529

  7 C s       :     2.852472  s :     2.852472
      pz      :     1.001071  p :     3.014907
      px      :     1.010006
      py      :     1.003831
      dz2     :     0.031442  d :     0.144234
      dxz     :     0.035735
      dyz     :     0.043775
      dx2y2   :     0.015648
      dxy     :     0.017634

  8 N s       :     3.082137  s :     3.082137
      pz      :     1.178865  p :     3.940170
      px      :     1.464911
      py      :     1.296394
      dz2     :     0.027708  d :     0.095629
      dxz     :     0.012584
      dyz     :     0.023758
      dx2y2   :     0.018504
      dxy     :     0.013075

  9 C s       :     2.823667  s :     2.823667
      pz      :     1.034923  p :     3.010643
      px      :     1.000355
      py      :     0.975365
      dz2     :     0.033998  d :     0.155900
      dxz     :     0.027452
      dyz     :     0.041324
      dx2y2   :     0.027485
      dxy     :     0.025642

 10 C s       :     2.911961  s :     2.911961
      pz      :     1.064591  p :     3.162008
      px      :     1.043040
      py      :     1.054377
      dz2     :     0.025271  d :     0.083750
      dxz     :     0.009211
      dyz     :     0.020023
      dx2y2   :     0.014801
      dxy     :     0.014444

 11 C s       :     2.919399  s :     2.919399
      pz      :     1.063708  p :     3.143584
      px      :     1.028695
      py      :     1.051181
      dz2     :     0.023588  d :     0.083047
      dxz     :     0.016835
      dyz     :     0.025945
      dx2y2   :     0.006282
      dxy     :     0.010398

 12 C s       :     2.919785  s :     2.919785
      pz      :     1.062317  p :     3.144372
      px      :     1.027963
      py      :     1.054093
      dz2     :     0.021888  d :     0.083158
      dxz     :     0.016075
      dyz     :     0.026982
      dx2y2   :     0.008579
      dxy     :     0.009633

 13 C s       :     2.911443  s :     2.911443
      pz      :     1.069108  p :     3.138832
      px      :     1.021994
      py      :     1.047730
      dz2     :     0.025144  d :     0.084370
      dxz     :     0.010006
      dyz     :     0.021026
      dx2y2   :     0.014133
      dxy     :     0.014060

 14 C s       :     2.831885  s :     2.831885
      pz      :     1.036923  p :     3.087738
      px      :     1.015984
      py      :     1.034831
      dz2     :     0.036663  d :     0.121643
      dxz     :     0.017764
      dyz     :     0.028075
      dx2y2   :     0.020047
      dxy     :     0.019093

 15 C s       :     2.879427  s :     2.879427
      pz      :     0.983191  p :     3.039451
      px      :     1.022746
      py      :     1.033514
      dz2     :     0.024297  d :     0.134246
      dxz     :     0.034455
      dyz     :     0.019168
      dx2y2   :     0.019568
      dxy     :     0.036759

 16 C s       :     2.883964  s :     2.883964
      pz      :     0.986868  p :     3.038075
      px      :     1.038633
      py      :     1.012575
      dz2     :     0.011827  d :     0.098592
      dxz     :     0.016933
      dyz     :     0.013392
      dx2y2   :     0.026673
      dxy     :     0.029767

 17 C s       :     2.920644  s :     2.920644
      pz      :     1.018272  p :     3.134726
      px      :     1.055309
      py      :     1.061144
      dz2     :     0.006640  d :     0.083532
      dxz     :     0.014792
      dyz     :     0.013102
      dx2y2   :     0.023486
      dxy     :     0.025512

 18 C s       :     2.917513  s :     2.917513
      pz      :     1.008383  p :     3.126433
      px      :     1.062582
      py      :     1.055468
      dz2     :     0.009555  d :     0.085448
      dxz     :     0.011232
      dyz     :     0.015724
      dx2y2   :     0.027650
      dxy     :     0.021287

 19 C s       :     2.917455  s :     2.917455
      pz      :     1.009985  p :     3.127838
      px      :     1.062540
      py      :     1.055313
      dz2     :     0.011148  d :     0.085298
      dxz     :     0.015359
      dyz     :     0.010309
      dx2y2   :     0.021548
      dxy     :     0.026934

 20 C s       :     2.917475  s :     2.917475
      pz      :     1.008838  p :     3.126806
      px      :     1.063323
      py      :     1.054645
      dz2     :     0.006631  d :     0.085323
      dxz     :     0.015129
      dyz     :     0.013022
      dx2y2   :     0.024351
      dxy     :     0.026190

 21 C s       :     2.918457  s :     2.918457
      pz      :     1.013825  p :     3.123193
      px      :     1.059968
      py      :     1.049400
      dz2     :     0.008937  d :     0.084085
      dxz     :     0.010772
      dyz     :     0.015170
      dx2y2   :     0.028080
      dxy     :     0.021125

 22 N s       :     3.155672  s :     3.155672
      pz      :     1.098437  p :     3.907223
      px      :     1.118873
      py      :     1.689912
      dz2     :     0.021091  d :     0.082023
      dxz     :     0.028416
      dyz     :     0.009803
      dx2y2   :     0.009752
      dxy     :     0.012961

 23 C s       :     2.926307  s :     2.926307
      pz      :     1.118238  p :     3.112076
      px      :     0.946899
      py      :     1.046939
      dz2     :     0.018587  d :     0.115055
      dxz     :     0.017982
      dyz     :     0.013245
      dx2y2   :     0.033159
      dxy     :     0.032082

 24 C s       :     2.884288  s :     2.884288
      pz      :     1.056232  p :     3.055157
      px      :     0.966419
      py      :     1.032505
      dz2     :     0.026295  d :     0.099412
      dxz     :     0.013668
      dyz     :     0.032132
      dx2y2   :     0.015763
      dxy     :     0.011553

 25 C s       :     2.917319  s :     2.917319
      pz      :     1.058839  p :     3.126916
      px      :     0.999695
      py      :     1.068382
      dz2     :     0.020748  d :     0.084575
      dxz     :     0.007056
      dyz     :     0.028579
      dx2y2   :     0.014678
      dxy     :     0.013514

 26 C s       :     2.917092  s :     2.917092
      pz      :     1.063623  p :     3.125441
      px      :     0.991522
      py      :     1.070296
      dz2     :     0.018946  d :     0.085280
      dxz     :     0.008542
      dyz     :     0.032159
      dx2y2   :     0.013432
      dxy     :     0.012202

 27 C s       :     2.917361  s :     2.917361
      pz      :     1.062157  p :     3.127975
      px      :     0.994513
      py      :     1.071306
      dz2     :     0.026155  d :     0.085150
      dxz     :     0.013754
      dyz     :     0.024840
      dx2y2   :     0.013965
      dxy     :     0.006435

 28 C s       :     2.917959  s :     2.917959
      pz      :     1.061437  p :     3.127261
      px      :     0.993699
      py      :     1.072125
      dz2     :     0.019718  d :     0.085338
      dxz     :     0.007824
      dyz     :     0.028775
      dx2y2   :     0.014748
      dxy     :     0.014272

 29 C s       :     2.920697  s :     2.920697
      pz      :     1.056822  p :     3.129954
      px      :     1.000065
      py      :     1.073067
      dz2     :     0.018099  d :     0.084395
      dxz     :     0.008477
      dyz     :     0.031601
      dx2y2   :     0.013691
      dxy     :     0.012527

 30 H s       :     0.874747  s :     0.874747

 31 H s       :     0.866775  s :     0.866775

 32 H s       :     0.871784  s :     0.871784

 33 H s       :     0.848107  s :     0.848107

 34 H s       :     0.869355  s :     0.869355

 35 H s       :     0.849785  s :     0.849785

 36 H s       :     0.733918  s :     0.733918

 37 H s       :     0.875659  s :     0.875659

 38 H s       :     0.873309  s :     0.873309

 39 H s       :     0.874306  s :     0.874306

 40 H s       :     0.867963  s :     0.867963

 41 H s       :     0.872947  s :     0.872947

 42 H s       :     0.862314  s :     0.862314

 43 H s       :     0.868315  s :     0.868315

 44 H s       :     0.869600  s :     0.869600

 45 H s       :     0.869387  s :     0.869387

 46 H s       :     0.871292  s :     0.871292

 47 H s       :     0.872976  s :     0.872976

 48 H s       :     0.873049  s :     0.873049

 49 H s       :     0.876748  s :     0.876748

 50 H s       :     0.869576  s :     0.869576

 51 H s       :     0.869790  s :     0.869790

 52 H s       :     0.868683  s :     0.868683

 53 H s       :     0.865608  s :     0.865608



                      *****************************
                      * MAYER POPULATION ANALYSIS *
                      *****************************

  NA   - Mulliken gross atomic population
  ZA   - Total nuclear charge
  QA   - Mulliken gross atomic charge
  VA   - Mayer's total valence
  BVA  - Mayer's bonded valence
  FA   - Mayer's free valence

  ATOM       NA         ZA         QA         VA         BVA        FA
  0 C      6.1977     6.0000    -0.1977     3.7619     3.7619    -0.0000
  1 O      8.4574     8.0000    -0.4574     2.0091     2.0091    -0.0000
  2 C      5.4154     6.0000     0.5846     3.8516     3.8516    -0.0000
  3 O      8.4574     8.0000    -0.4574     2.0382     2.0382     0.0000
  4 C      6.0581     6.0000    -0.0581     3.8415     3.8415    -0.0000
  5 C      6.3338     6.0000    -0.3338     3.7883     3.7883     0.0000
  6 C      5.9571     6.0000     0.0429     3.9225     3.9225     0.0000
  7 C      5.7474     6.0000     0.2526     3.7067     3.7067     0.0000
  8 N      7.6963     7.0000    -0.6963     3.0260     3.0260    -0.0000
  9 C      5.6926     6.0000     0.3074     3.8208     3.8208     0.0000
 10 C      6.1985     6.0000    -0.1985     3.8837     3.8837     0.0000
 11 C      6.1430     6.0000    -0.1430     3.9423     3.9423    -0.0000
 12 C      6.1511     6.0000    -0.1511     3.9278     3.9278    -0.0000
 13 C      6.2014     6.0000    -0.2014     3.8674     3.8674     0.0000
 14 C      5.8983     6.0000     0.1017     4.1166     4.1166    -0.0000
 15 C      6.1573     6.0000    -0.1573     3.8604     3.8604     0.0000
 16 C      5.8189     6.0000     0.1811     3.9110     3.9110     0.0000
 17 C      6.1823     6.0000    -0.1823     3.9166     3.9166    -0.0000
 18 C      6.1323     6.0000    -0.1323     3.9424     3.9424     0.0000
 19 C      6.1231     6.0000    -0.1231     3.9477     3.9477     0.0000
 20 C      6.1298     6.0000    -0.1298     3.9460     3.9460     0.0000
 21 C      6.1656     6.0000    -0.1656     3.9321     3.9321     0.0000
 22 N      7.3650     7.0000    -0.3650     2.9551     2.9551     0.0000
 23 C      6.2606     6.0000    -0.2606     3.8589     3.8589    -0.0000
 24 C      5.8331     6.0000     0.1669     3.8715     3.8715    -0.0000
 25 C      6.1606     6.0000    -0.1606     3.9422     3.9422    -0.0000
 26 C      6.1231     6.0000    -0.1231     3.9525     3.9525    -0.0000
 27 C      6.1252     6.0000    -0.1252     3.9515     3.9515     0.0000
 28 C      6.1264     6.0000    -0.1264     3.9461     3.9461     0.0000
 29 C      6.1829     6.0000    -0.1829     3.9437     3.9437     0.0000
 30 H      0.8413     1.0000     0.1587     0.9331     0.9331    -0.0000
 31 H      0.8346     1.0000     0.1654     0.9307     0.9307    -0.0000
 32 H      0.8358     1.0000     0.1642     0.9318     0.9318     0.0000
 33 H      0.8246     1.0000     0.1754     0.9295     0.9295    -0.0000
 34 H      0.8580     1.0000     0.1420     0.9341     0.9341     0.0000
 35 H      0.8129     1.0000     0.1871     0.9342     0.9342     0.0000
 36 H      0.6710     1.0000     0.3290     0.8677     0.8677    -0.0000
 37 H      0.8895     1.0000     0.1105     0.9390     0.9390     0.0000
 38 H      0.8846     1.0000     0.1154     0.9407     0.9407    -0.0000
 39 H      0.8851     1.0000     0.1149     0.9407     0.9407    -0.0000
 40 H      0.8751     1.0000     0.1249     0.9395     0.9395     0.0000
 41 H      0.8688     1.0000     0.1312     0.9382     0.9382    -0.0000
 42 H      0.8593     1.0000     0.1407     0.9465     0.9465     0.0000
 43 H      0.8707     1.0000     0.1293     0.9369     0.9369     0.0000
 44 H      0.8739     1.0000     0.1261     0.9368     0.9368    -0.0000
 45 H      0.8733     1.0000     0.1267     0.9369     0.9369    -0.0000
 46 H      0.8790     1.0000     0.1210     0.9399     0.9399    -0.0000
 47 H      0.8519     1.0000     0.1481     0.9329     0.9329    -0.0000
 48 H      0.8466     1.0000     0.1534     0.9385     0.9385    -0.0000
 49 H      0.8878     1.0000     0.1122     0.9435     0.9435    -0.0000
 50 H      0.8742     1.0000     0.1258     0.9372     0.9372    -0.0000
 51 H      0.8747     1.0000     0.1253     0.9369     0.9369     0.0000
 52 H      0.8720     1.0000     0.1280     0.9368     0.9368     0.0000
 53 H      0.8636     1.0000     0.1364     0.9490     0.9490     0.0000

  Mayer bond orders larger than 0.100000
B(  0-C ,  1-O ) :   0.8856 B(  0-C , 30-H ) :   0.9362 B(  0-C , 31-H ) :   0.9435 
B(  0-C , 32-H ) :   0.9356 B(  1-O ,  2-C ) :   1.0160 B(  2-C ,  3-O ) :   1.8156 
B(  2-C ,  4-C ) :   0.9557 B(  4-C ,  5-C ) :   0.9586 B(  4-C , 22-N ) :   0.9694 
B(  4-C , 33-H ) :   0.8929 B(  5-C ,  6-C ) :   0.9780 B(  5-C , 34-H ) :   0.9195 
B(  5-C , 35-H ) :   0.9028 B(  6-C ,  7-C ) :   1.5315 B(  6-C , 14-C ) :   1.2640 
B(  7-C ,  8-N ) :   1.0214 B(  7-C , 15-C ) :   0.9434 B(  8-N ,  9-C ) :   0.9974 
B(  8-N , 36-H ) :   0.8391 B(  9-C , 10-C ) :   1.3591 B(  9-C , 14-C ) :   1.3075 
B( 10-C , 11-C ) :   1.4704 B( 10-C , 13-C ) :   0.1017 B( 10-C , 37-H ) :   0.9240 
B( 11-C , 12-C ) :   1.3868 B( 11-C , 38-H ) :   0.9326 B( 12-C , 13-C ) :   1.4608 
B( 12-C , 39-H ) :   0.9325 B( 13-C , 14-C ) :   1.3505 B( 13-C , 40-H ) :   0.9243 
B( 15-C , 16-C ) :   0.9451 B( 15-C , 22-N ) :   0.9677 B( 15-C , 41-H ) :   0.9086 
B( 16-C , 17-C ) :   1.4281 B( 16-C , 21-C ) :   1.4184 B( 17-C , 18-C ) :   1.4287 
B( 17-C , 42-H ) :   0.9119 B( 18-C , 19-C ) :   1.4575 B( 18-C , 43-H ) :   0.9297 
B( 19-C , 20-C ) :   1.4483 B( 19-C , 44-H ) :   0.9305 B( 20-C , 21-C ) :   1.4452 
B( 20-C , 45-H ) :   0.9297 B( 21-C , 46-H ) :   0.9258 B( 22-N , 23-C ) :   0.9801 
B( 23-C , 24-C ) :   0.9308 B( 23-C , 47-H ) :   0.9324 B( 23-C , 48-H ) :   0.9242 
B( 24-C , 25-C ) :   1.4212 B( 24-C , 29-C ) :   1.4267 B( 25-C , 26-C ) :   1.4475 
B( 25-C , 49-H ) :   0.9228 B( 26-C , 27-C ) :   1.4499 B( 26-C , 50-H ) :   0.9299 
B( 27-C , 28-C ) :   1.4564 B( 27-C , 51-H ) :   0.9306 B( 28-C , 29-C ) :   1.4357 
B( 28-C , 52-H ) :   0.9297 B( 29-C , 53-H ) :   0.9156 

-------
TIMINGS
-------

Total SCF time: 0 days 0 hours 8 min 51 sec 

Total time                  ....     531.137 sec
Sum of individual times     ....     530.833 sec  ( 99.9%)

SCF preparation             ....       0.316 sec  (  0.1%)
Fock matrix formation       ....     528.774 sec  ( 99.6%)
  Startup                   ....       0.165 sec  (  0.0% of F)
  Split-RI-J                ....      63.887 sec  ( 12.1% of F)
  Chain of spheres X        ....     418.549 sec  ( 79.2% of F)
  XC integration            ....      45.526 sec  (  8.6% of F)
    Basis function eval.    ....      16.645 sec  ( 36.6% of XC)
    Density eval.           ....      12.173 sec  ( 26.7% of XC)
    XC-Functional eval.     ....       1.900 sec  (  4.2% of XC)
    XC-Potential eval.      ....      12.844 sec  ( 28.2% of XC)
Diagonalization             ....       0.000 sec  (  0.0%)
Density matrix formation    ....       0.261 sec  (  0.0%)
Total Energy calculation    ....       0.059 sec  (  0.0%)
Population analysis         ....       0.061 sec  (  0.0%)
Orbital Transformation      ....       0.157 sec  (  0.0%)
Orbital Orthonormalization  ....       0.000 sec  (  0.0%)
DIIS solution               ....       0.830 sec  (  0.2%)
SOSCF solution              ....       0.375 sec  (  0.1%)
Finished LeanSCF after 531.2 sec

Maximum memory used throughout the entire LEANSCF-calculation: 89.2 MB

-------------------------   --------------------
FINAL SINGLE POINT ENERGY     -1264.338403510031
-------------------------   --------------------


------------------------------------------------------------------------------
                              ORCA PROPERTY CALCULATIONS
------------------------------------------------------------------------------

GBWName                                 ... /home/nmrbox/aojoawo/Documents/ERDOS/inputs/CHEMBL4647444.gbw
Number of atoms                         ...     54
Number of basis functions               ...    468
Max core memory                         ...   1024 MB

Electric properties:
Dipole moment                           ... YES
Quadrupole moment                       ...  NO
Static polarizability (Dipole/Dipole)   ...  NO
Static polarizability (Dipole/Quad.)    ...  NO
Static polarizability (Quad./Quad.)     ...  NO
Static polarizability (Velocity)        ...  NO

Atomic electric properties:
Dipole moment                           ...  NO
Quadrupole moment                       ...  NO
Static polarizability                   ...  NO

Choice of electric origin               ... Center of mass
Position of electric origin             ...    -0.111292    -0.043138     0.000714

General magnetic properties:
Magnetizability                         ...  NO

EPR properties:
g-Tensor (aka g-matrix)                 ...  NO
Zero-Field splitting spin-orbit         ...  NO
Zero-field splitting spin-spin          ...  NO
Hyperfine couplings                     ...  NO (   0 nuclei)
Quadrupole couplings                    ...  NO (   0 nuclei)
Contact density                         ...  NO (   0 nuclei)

NMR properties:
Chemical shifts                         ...  NO (   0 nuclei)
Spin-rotation constants                 ...  NO (   0 nuclei)
Spin-spin couplings                     ...  NO (   0 nuclei,    0 pairs)

Choice of magnetic origin               ... GIAO
Position of magnetic origin             ...     0.000000     0.000000     0.000000

Properties with geometric perturbations:
SCF Hessian                             ...  NO
IR spectrum                             ...  NO
VCD spectrum                            ...  NO
X-ray spectroscopy properties:
SCF XES/XAS/RIXS spectra                ...  NO


-------------
DIPOLE MOMENT
-------------

Method             : SCF
Type of density    : Electron Density
Multiplicity       :   1
Irrep              :   0
Energy             : -1264.3384035100309575 Eh
Relativity type    : 
Basis              : AO
                                X                 Y                 Z
Electronic contribution:     -3.850559811      -1.745427431      -2.745930307
Nuclear contribution   :      4.153990650       2.553111312       1.755808389
                        -----------------------------------------
Total Dipole Moment    :      0.303430838       0.807683881      -0.990121918
                        -----------------------------------------
Magnitude (a.u.)       :      1.313303064
Magnitude (Debye)      :      3.338151101



--------------------
Rotational spectrum 
--------------------
 
Rotational constants in cm-1:             0.006052             0.005218             0.003568 
Rotational constants in MHz :           181.429839           156.427804           106.956510 

Dipole components along the rotational axes: 
x,y,z [a.u.] :    -0.778871    -0.424248    -0.968576 
x,y,z [Debye]:    -1.979733    -1.078352    -2.461923 

 

Dipole moment calculation done in   0.0 sec 

Maximum memory used throughout the entire PROP-calculation: 42.9 MB

--------------------------------
SUGGESTED CITATIONS FOR THIS RUN
--------------------------------

Below you find a list of papers that are relevant to this ORCA run
We neither can nor want to force you to cite these papers, but we appreciate if you do
You receive ORCA, which is the product of decades of hard work by many enthusiastic individuals, for free
The only thing we kindly ask in return is that you cite our papers,
We deeply appreciate it, if you show your appreciation for ORCA by not just citing the generic ORCA reference.

Please note that relegating all ORCA citations to the supporting information does *not* help us.
SI sections are not indexed - citations you put there will not count into any citation statistics
But we need these citations in order to attract the funding resources that allow us to do what we are doing

Therefore, if you are a happy ORCA user, please consider citing a few of the papers listed below in the main body of your paper

In addition to the list printed below, the program has created the file /home/nmrbox/aojoawo/Documents/ERDOS/inputs/CHEMBL4647444.bibtex that contains the list in bibtex format
You can import this file easily into all common literature databanks and citation aid programs


List of essential papers. We consider these as the minimum necessary citations

  1. Neese,F.
     Software update: the ORCA program system, version 5.0
     WIRES Comput. Molec. Sci., 2022 12(1)e1606
     doi.org/10.1002/wcms.1606

List of papers to cite with high priority. The work reported in these papers was absolutely
necessary for this run to complete.
Our perspective: the developers of density functionals and basis sets usually get cited in chemistry papers
Good! But without the algorithms to do something with them, the functionals or basis sets would not do anything.
Hence, in our opinion, the algorithm design and method developments papers are equally worthy of getting cited

  1. Neese,F.
     An improvement of the resolution of the identity approximation for the formation of the Coulomb matrix
     J. Comp. Chem., 2003 24(14)1740-1747
     doi.org/10.1002/jcc.10318
  2. Neese,F.; Wennmohs,F.; Hansen,A.; Becker,U.
     Efficient, approximate and parallel Hartree-Fock and hybrid DFT calculations. A 'chain-of-spheres' algorithm for the Hartree-Fock exchange
     Chem. Phys., 2009 356(1-3)98-109
     doi.org/10.1016/j.chemphys.2008.10.036
  3. Helmich-Paris,B.; de Souza,B.; Neese,F.; Izsák,R.
     An improved chain of spheres for exchange algorithm
     J. Chem. Phys., 2021 155 104109
     doi.org/doi: 10.1063/5.0058766.
  4. Neese,F.
     The SHARK Integral Generation and Digestion System
     J. Comp. Chem., 2022  1-16
     doi.org/10.1002/jcc.26942

List of suggested additional citations. These are papers that are important in the 'surrounding' of 
of this run, or papers that preceded the highly important papers. If you like your results we are grateful for a citation.

  1. Izsak,R.; Neese,F.
     An overlap fitted chain of spheres exchange method
     J. Chem. Phys., 2011 135 144105
     doi.org/10.1063/1.3646921
  2. Izsak,R.; Hansen,A.; Neese,F.
     The resolution of identity and chain of spheres approximations for the LPNO-CCSD singles Fock term
     Molec. Phys., 2012 110 2413-2417
     doi.org/10.1080/00268976.2012.687466
  3. Neese,F.
     The ORCA program system
     WIRES Comput. Molec. Sci., 2012 2(1)73-78
     doi.org/10.1002/wcms.81
  4. Izsak,R.; Neese,F.; Klopper,W.
     Robust fitting techniques in the chain of spheres approximation to the Fock exchange: The role of the complementary space
     J. Chem. Phys., 2013 139 
     doi.org/10.1063/1.4819264
  5. Neese,F.
     Software update: the ORCA program system, version 4.0
     WIRES Comput. Molec. Sci., 2018 8(1)1-6
     doi.org/10.1002/wcms.1327
  6. Neese,F.; Wennmohs,F.; Becker,U.; Riplinger,C.
     The ORCA quantum chemistry program package
     J. Chem. Phys., 2020 152 Art. No. L224108
     doi.org/10.1063/5.0004608

List of optional additional citations

  1. Neese,F.
     Approximate second-order SCF convergence for spin unrestricted wavefunctions
     Chem. Phys. Lett., 2000 325(1-3)93-98
     doi.org/10.1016/s0009-2614(00)00662-x

Timings for individual modules:

Sum of individual times          ...      554.174 sec (=   9.236 min)
Startup calculation              ...       15.077 sec (=   0.251 min)   2.7 %
SCF iterations                   ...      538.898 sec (=   8.982 min)  97.2 %
Property calculations            ...        0.200 sec (=   0.003 min)   0.0 %
                             ****ORCA TERMINATED NORMALLY****
TOTAL RUN TIME: 0 days 0 hours 9 minutes 15 seconds 84 msec
