
                                 *****************
                                 * O   R   C   A *
                                 *****************

                                            #,                                       
                                            ###                                      
                                            ####                                     
                                            #####                                    
                                            ######                                   
                                           ########,                                 
                                     ,,################,,,,,                         
                               ,,#################################,,                 
                          ,,##########################################,,             
                       ,#########################################, ''#####,          
                    ,#############################################,,   '####,        
                  ,##################################################,,,,####,       
                ,###########''''           ''''###############################       
              ,#####''   ,,,,##########,,,,          '''####'''          '####       
            ,##' ,,,,###########################,,,                        '##       
           ' ,,###''''                  '''############,,,                           
         ,,##''                                '''############,,,,        ,,,,,,###''
      ,#''                                            '''#######################'''  
     '                                                          ''''####''''         
             ,#######,   #######,   ,#######,      ##                                
            ,#'     '#,  ##    ##  ,#'     '#,    #''#        ,####,   ,####,        
            ##       ##  ##   ,#'  ##            #'  '#       #'       #'  '#        
            ##       ##  #######   ##           ,######,      #####,   #    #        
            '#,     ,#'  ##    ##  '#,     ,#' ,#      #,     #,   #   #,  ,#        
             '#######'   ##     ##  '#######'  #'      '#     '####' # '####'        



                #########################################################
                #                        -***-                          #
                #          Department of theory and spectroscopy        #
                #                                                       #
                #                      Frank Neese                      #
                #                                                       #
                #     Directorship, Architecture, Infrastructure        #
                #                    SHARK, DRIVERS                     #
                #        Core code/Algorithms in most modules           #
                #                                                       #
                #        Max Planck Institute fuer Kohlenforschung      #
                #                Kaiser Wilhelm Platz 1                 #
                #                 D-45470 Muelheim/Ruhr                 #
                #                      Germany                          #
                #                                                       #
                #                  All rights reserved                  #
                #                        -***-                          #
                #########################################################


                         Program Version 6.0.0  -   RELEASE  -


 With contributions from (in alphabetic order):
   Daniel Aravena         : Magnetic Suceptibility
   Michael Atanasov       : Ab Initio Ligand Field Theory (pilot matlab implementation)
   Alexander A. Auer      : GIAO ZORA, VPT2 properties, NMR spectrum
   Ute Becker             : All parallelization in ORCA, NUMFREQ, NUMCALC
   Giovanni Bistoni       : ED, misc. LED, open-shell LED, HFLD
   Martin Brehm           : Molecular dynamics
   Dmytro Bykov           : pre 5.0 version of the SCF Hessian
   Marcos Casanova-Páez   : Triplet and SCS-CIS(D). UHF-(DLPNO)-IP/EA/STEOM-CCSD. UHF-CVS-IP/STEOM-CCSD
   Vijay G. Chilkuri      : MRCI spin determinant printing, contributions to CSF-ICE
   Pauline Colinet        : FMM embedding
   Dipayan Datta          : RHF DLPNO-CCSD density
   Achintya Kumar Dutta   : EOM-CC, STEOM-CC
   Nicolas Foglia         : Exact transition moments, OPA infrastructure, MCD improvements
   Dmitry Ganyushin       : Spin-Orbit,Spin-Spin,Magnetic field MRCI
   Miquel Garcia          : C-PCM and meta-GGA Hessian, CCSD/C-PCM, Gaussian charge scheme
   Tiago L. C. Gouveia    : GS-ROHF, GS-ROCIS
   Yang Guo               : DLPNO-NEVPT2, F12-NEVPT2, CIM, IAO-localization
   Andreas Hansen         : Spin unrestricted coupled pair/coupled cluster methods
   Ingolf Harden          : AUTO-CI MPn and infrastructure 
   Benjamin Helmich-Paris : MC-RPA, TRAH-(SCF,CASSCF), AVAS, COSX integrals, SCF dyn. polar.
   Lee Huntington         : MR-EOM, pCC
   Robert Izsak           : Overlap fitted RIJCOSX, COSX-SCS-MP3, EOM
   Riya Kayal             : Wick's Theorem for AUTO-CI, AUTO-CI UHF-CCSDT
   Emily Kempfer          : AUTO-CI, RHF CISDT and CCSDT
   Christian Kollmar      : KDIIS, OOCD, Brueckner-CCSD(T), CCSD density, CASPT2, CASPT2-K, improved NEVPT2
   Axel Koslowski         : Symmetry handling
   Simone Kossmann        : Meta GGA functionals, TD-DFT gradient, OOMP2, (MP2 Hessian; deprecated post 5.0)
   Lucas Lang             : DCDCAS
   Marvin Lechner         : AUTO-CI (C++ implementation), FIC-MRCC
   Spencer Leger          : CASSCF response
   Dagmar Lenk            : GEPOL surface, SMD, ORCA-2-JSON
   Dimitrios Liakos       : Extrapolation schemes; Compound Job, initial MDCI parallelization
   Dimitrios Manganas     : Further ROCIS development; embedding schemes. LFT, Crystal Embedding
   Dimitrios Pantazis     : SARC Basis sets
   Anastasios Papadopoulos: AUTO-CI, single reference methods and gradients
   Taras Petrenko         : pre 6.0 DFT Hessian and TD-DFT gradient, (ASA, deprecated), ECA, 1-Electron XAS/XES, NRVS
   Peter Pinski           : DLPNO-MP2, DLPNO-MP2 Gradient
   Christoph Reimann      : Effective Core Potentials
   Marius Retegan         : Local ZFS, SOC
   Christoph Riplinger    : Optimizer, TS searches, QM/MM, DLPNO-CCSD(T), (RO)-DLPNO pert. Triples
   Michael Roemelt        : Original ROCIS implementation
   Masaaki Saitow         : Open-shell DLPNO-CCSD energy and density
   Barbara Sandhoefer     : DKH picture change effects
   Kantharuban Sivalingam : CASSCF convergence/infrastructure, NEVPT2 and variants, FIC-MRCI
   Bernardo de Souza      : ESD, SOC TD-DFT
   Georgi Stoychev        : AutoAux, RI-MP2 NMR, DLPNO-MP2 response, X2C
   Van Anh Tran           : RI-MP2 g-tensors
   Willem Van den Heuvel  : Paramagnetic NMR
   Zikuan Wang            : NOTCH, Electric field optimization 
   Frank Wennmohs         : Technical directorship and infrastructure
   Hang Xu                : AUTO-CI-Response properties 


 We gratefully acknowledge several colleagues who have allowed us to
 interface, adapt or use parts of their codes:
   Stefan Grimme, W. Hujo, H. Kruse, P. Pracht,  : VdW corrections, initial TS optimization,
                  C. Bannwarth, S. Ehlert,         DFT functionals, gCP, sTDA/sTD-DF
                  L. Wittmann, M. Mueller
   Ed Valeev, F. Pavosevic, A. Kumar             : LibInt (2-el integral package), F12 methods
   Garnet Chan, S. Sharma, J. Yang, R. Olivares  : DMRG
   Ulf Ekstrom                                   : XCFun DFT Library
   Mihaly Kallay                                 : mrcc  (arbitrary order and MRCC methods)
   Frank Weinhold                                : gennbo (NPA and NBO analysis)
   Simon Mueller                                 : openCOSMO-RS
   Christopher J. Cramer and Donald G. Truhlar   : smd solvation model
   Lars Goerigk                                  : TD-DFT with DH, B97 family of functionals
   V. Asgeirsson, H. Jonsson                     : NEB implementation
   FAccTs GmbH                                   : IRC, NEB, NEB-TS, DLPNO-Multilevel, CI-OPT
                                                   MM, QMMM, 2- and 3-layer-ONIOM, Crystal-QMMM,
                                                   LR-CPCM, SF, NACMEs, symmetry and pop. for TD-DFT,
                                                   nearIR, NL-DFT gradient (VV10), updates on ESD,
                                                   ML-optimized integration grids, MBIS, APM,
                                                   GOAT, DOCKER, SOLVATOR, interface openCOSMO-RS
   S Lehtola, MJT Oliveira, MAL Marques          : LibXC Library
   Liviu Ungur et al                             : ANISO software


 Your calculation uses the libint2 library for the computation of 2-el integrals
 For citations please refer to: http://libint.valeyev.net

 Your ORCA version has been built with support for libXC version: 6.2.2
 For citations please refer to: https://libxc.gitlab.io

 This ORCA versions uses:
   CBLAS   interface :  Fast vector & matrix operations
   LAPACKE interface :  Fast linear algebra routines
   SCALAPACK package :  Parallel linear algebra routines
   Shared memory     :  Shared parallel matrices
   BLAS/LAPACK       :  OpenBLAS 0.3.27  USE64BITINT DYNAMIC_ARCH NO_AFFINITY SkylakeX SINGLE_THREADED
        Core in use  :  SkylakeX
   Copyright (c) 2011-2014, The OpenBLAS Project


Warning: RI is on but no J-basis has been assigned. Assigning Def2/J (nothing to worry about!)
================================================================================

----- Orbital basis set information -----
Your calculation utilizes the basis: 6-31G*
   H-He, Li-Ne : W. J. Hehre, R. Ditchfield and J.A. Pople, J. Chem. Phys. 56, 2257 (1972).
                 Note: He and Ne are unpublished basis sets taken from the Gaussian program.
                 Note: Li and B from J. D. Dill and J. A. Pople, J. Chem. Phys. 62, 2921 (1975).
   Na - Ar     : M. M. Francl, W. J. Pietro, W. J. Hehre, J. S. Binkley, M. S. Gordon, 
                 D. J. DeFrees and J. A. Pople, J. Chem. Phys. 77, 3654 (1982).
   K - Zn      : V. A. Rassolov, J. A. Pople, M. A. Ratner, and T. L. Windus, J. Chem. Phys. 109, 1223 (1998).

----- AuxJ basis set information -----
Your calculation utilizes the auxiliary basis: def2/J
   F. Weigend, Phys. Chem. Chem. Phys. 8, 1057 (2006).

================================================================================
                                        WARNINGS
                       Please study these warnings very carefully!
================================================================================


================================================================================
                                       INPUT FILE
================================================================================
NAME = /home/nmrbox/aojoawo/Documents/ERDOS/inputs/CHEMBL4245257.inp
|  1> ! B3LYP 6-31G* SP
|  2> 
|  3> * xyz 0 1
|  4> O 1.2621 1.3418 -1.8665
|  5> C 1.3178 0.6489 -0.8134
|  6> N 0.1036 0.1712 -0.2085
|  7> C -1.2037 0.3013 -0.8678
|  8> C -2.1054 -0.9121 -0.6929
|  9> C -3.3956 -0.8879 -1.2539
| 10> C -4.2375 -1.9987 -1.1602
| 11> C -3.8064 -3.1660 -0.5107
| 12> C -4.6980 -4.3805 -0.4506
| 13> F -6.0296 -4.0066 -0.3939
| 14> F -4.4140 -5.1398 0.6714
| 15> F -4.4941 -5.1512 -1.5798
| 16> C -2.4950 -3.2209 -0.0123
| 17> C -1.6511 -2.1107 -0.1067
| 18> C -1.8487 1.6268 -0.4871
| 19> N -1.6769 2.6395 -1.3847
| 20> C -2.1771 3.8857 -1.2040
| 21> C -2.9109 4.1776 -0.0638
| 22> C -3.1099 3.1848 0.8904
| 23> C -2.5618 1.8954 0.7271
| 24> C -2.8692 0.8617 1.8006
| 25> F -3.9748 0.1219 1.4279
| 26> F -3.1510 1.4738 3.0106
| 27> F -1.8068 0.0153 2.0226
| 28> C 2.6381 0.3561 -0.2057
| 29> C 2.8175 -0.7630 0.6298
| 30> C 4.0664 -1.0370 1.1953
| 31> C 5.1570 -0.1998 0.9294
| 32> C 6.4195 -0.4502 1.4828
| 33> C 7.4854 0.4044 1.1932
| 34> C 7.2789 1.5009 0.3523
| 35> N 6.0488 1.7328 -0.1792
| 36> C 4.9907 0.9185 0.0843
| 37> C 3.7394 1.1882 -0.4802
| 38> H 0.1465 -0.1075 0.7940
| 39> H -1.0236 0.3284 -1.9666
| 40> H -3.7531 -0.0019 -1.7643
| 41> H -5.2249 -1.9464 -1.6016
| 42> H -2.1173 -4.1282 0.4424
| 43> H -0.6437 -2.2051 0.2737
| 44> H -2.0105 4.6472 -1.9541
| 45> H -3.3276 5.1663 0.0794
| 46> H -3.7025 3.4332 1.7617
| 47> H 2.0008 -1.4433 0.8315
| 48> H 4.1804 -1.9049 1.8340
| 49> H 6.5805 -1.3006 2.1345
| 50> H 8.4640 0.2187 1.6166
| 51> H 8.0982 2.1687 0.1219
| 52> H 3.6251 2.0530 -1.1233
| 53> *
| 54> 
| 55>                          ****END OF INPUT****
================================================================================

                       ****************************
                       * Single Point Calculation *
                       ****************************

---------------------------------
CARTESIAN COORDINATES (ANGSTROEM)
---------------------------------
  O      1.262100    1.341800   -1.866500
  C      1.317800    0.648900   -0.813400
  N      0.103600    0.171200   -0.208500
  C     -1.203700    0.301300   -0.867800
  C     -2.105400   -0.912100   -0.692900
  C     -3.395600   -0.887900   -1.253900
  C     -4.237500   -1.998700   -1.160200
  C     -3.806400   -3.166000   -0.510700
  C     -4.698000   -4.380500   -0.450600
  F     -6.029600   -4.006600   -0.393900
  F     -4.414000   -5.139800    0.671400
  F     -4.494100   -5.151200   -1.579800
  C     -2.495000   -3.220900   -0.012300
  C     -1.651100   -2.110700   -0.106700
  C     -1.848700    1.626800   -0.487100
  N     -1.676900    2.639500   -1.384700
  C     -2.177100    3.885700   -1.204000
  C     -2.910900    4.177600   -0.063800
  C     -3.109900    3.184800    0.890400
  C     -2.561800    1.895400    0.727100
  C     -2.869200    0.861700    1.800600
  F     -3.974800    0.121900    1.427900
  F     -3.151000    1.473800    3.010600
  F     -1.806800    0.015300    2.022600
  C      2.638100    0.356100   -0.205700
  C      2.817500   -0.763000    0.629800
  C      4.066400   -1.037000    1.195300
  C      5.157000   -0.199800    0.929400
  C      6.419500   -0.450200    1.482800
  C      7.485400    0.404400    1.193200
  C      7.278900    1.500900    0.352300
  N      6.048800    1.732800   -0.179200
  C      4.990700    0.918500    0.084300
  C      3.739400    1.188200   -0.480200
  H      0.146500   -0.107500    0.794000
  H     -1.023600    0.328400   -1.966600
  H     -3.753100   -0.001900   -1.764300
  H     -5.224900   -1.946400   -1.601600
  H     -2.117300   -4.128200    0.442400
  H     -0.643700   -2.205100    0.273700
  H     -2.010500    4.647200   -1.954100
  H     -3.327600    5.166300    0.079400
  H     -3.702500    3.433200    1.761700
  H      2.000800   -1.443300    0.831500
  H      4.180400   -1.904900    1.834000
  H      6.580500   -1.300600    2.134500
  H      8.464000    0.218700    1.616600
  H      8.098200    2.168700    0.121900
  H      3.625100    2.053000   -1.123300

----------------------------
CARTESIAN COORDINATES (A.U.)
----------------------------
  NO LB      ZA    FRAG     MASS         X           Y           Z
   0 O     8.0000    0    15.999    2.385023    2.535635   -3.527174
   1 C     6.0000    0    12.011    2.490281    1.226243   -1.537103
   2 N     7.0000    0    14.007    0.195776    0.323521   -0.394008
   3 C     6.0000    0    12.011   -2.274663    0.569374   -1.639904
   4 C     6.0000    0    12.011   -3.978629   -1.723619   -1.309391
   5 C     6.0000    0    12.011   -6.416754   -1.677888   -2.369528
   6 C     6.0000    0    12.011   -8.007714   -3.776996   -2.192460
   7 C     6.0000    0    12.011   -7.193054   -5.982873   -0.965083
   8 C     6.0000    0    12.011   -8.877933   -8.277945   -0.851511
   9 F     9.0000    0    18.998  -11.394293   -7.571377   -0.744363
  10 F     9.0000    0    18.998   -8.341251   -9.712814    1.268762
  11 F     9.0000    0    18.998   -8.492618   -9.734357   -2.985389
  12 C     6.0000    0    12.011   -4.714867   -6.086619   -0.023244
  13 C     6.0000    0    12.011   -3.120127   -3.988645   -0.201634
  14 C     6.0000    0    12.011   -3.493537    3.074206   -0.920486
  15 N     7.0000    0    14.007   -3.168882    4.987932   -2.616704
  16 C     6.0000    0    12.011   -4.114123    7.342909   -2.275230
  17 C     6.0000    0    12.011   -5.500804    7.894520   -0.120565
  18 C     6.0000    0    12.011   -5.876859    6.018400    1.682612
  19 C     6.0000    0    12.011   -4.841100    3.581787    1.374020
  20 C     6.0000    0    12.011   -5.422002    1.628377    3.402641
  21 F     9.0000    0    18.998   -7.511283    0.230358    2.698340
  22 F     9.0000    0    18.998   -5.954527    2.785078    5.689209
  23 F     9.0000    0    18.998   -3.414357    0.028913    3.822160
  24 C     6.0000    0    12.011    4.985287    0.672931   -0.388717
  25 C     6.0000    0    12.011    5.324303   -1.441861    1.190150
  26 C     6.0000    0    12.011    7.684382   -1.959646    2.258790
  27 C     6.0000    0    12.011    9.745318   -0.377567    1.756311
  28 C     6.0000    0    12.011   12.131097   -0.850755    2.802086
  29 C     6.0000    0    12.011   14.145356    0.764205    2.254821
  30 C     6.0000    0    12.011   13.755128    2.836290    0.665751
  31 N     7.0000    0    14.007   11.430575    3.274517   -0.338639
  32 C     6.0000    0    12.011    9.431056    1.735713    0.159304
  33 C     6.0000    0    12.011    7.066442    2.245373   -0.907446
  34 H     1.0000    0     1.008    0.276845   -0.203146    1.500443
  35 H     1.0000    0     1.008   -1.934324    0.620586   -3.716335
  36 H     1.0000    0     1.008   -7.092331   -0.003590   -3.334044
  37 H     1.0000    0     1.008   -9.873630   -3.678163   -3.026585
  38 H     1.0000    0     1.008   -4.001117   -7.801167    0.836015
  39 H     1.0000    0     1.008   -1.216417   -4.167035    0.517218
  40 H     1.0000    0     1.008   -3.799294    8.781935   -3.692714
  41 H     1.0000    0     1.008   -6.288253    9.762892    0.150044
  42 H     1.0000    0     1.008   -6.996711    6.487808    3.329131
  43 H     1.0000    0     1.008    3.780964   -2.727442    1.571307
  44 H     1.0000    0     1.008    7.899811   -3.599739    3.465758
  45 H     1.0000    0     1.008   12.435343   -2.457778    4.033620
  46 H     1.0000    0     1.008   15.994642    0.413283    3.054931
  47 H     1.0000    0     1.008   15.303380    4.098249    0.230358
  48 H     1.0000    0     1.008    6.850446    3.879608   -2.122729

--------------------------------
INTERNAL COORDINATES (ANGSTROEM)
--------------------------------
 O      0   0   0     0.000000000000     0.00000000     0.00000000
 C      1   0   0     1.261836958565     0.00000000     0.00000000
 N      2   1   0     1.438187380003   119.74544412     0.00000000
 C      3   2   1     1.469910129906   122.19553425     8.56111969
 C      4   3   2     1.521838513115   113.88122006   140.57283625
 C      5   4   3     1.407097253213   118.93061142   178.47582068
 C      6   5   4     1.396943785555   120.80958887   177.59662719
 C      7   6   5     1.403669031503   120.47785638   359.55001712
 C      8   7   6     1.507837133115   120.44173387   182.07606175
 F      9   8   7     1.384259607155   110.66404326   327.44176842
 F      9   8   7     1.384224147311   110.65952042   207.51101629
 F      9   8   7     1.382261313935   109.22680971    87.47437741
 C      8   7   6     1.403989504947   118.92384129   357.06140452
 C     13   8   7     1.397720504965   120.59173462     2.87049004
 C      4   3   2     1.522467648261   109.97975420   270.60453441
 N     15   4   3     1.364097610144   115.36935354    96.92876975
 C     16  15   4     1.354941685092   123.26855996   180.30178420
 C     17  16  15     1.386983810288   119.90167242   359.64777750
 C     18  17  16     1.391312502639   119.29427150     0.76560714
 C     19  18  17     1.410543462641   121.15195636     0.96998224
 C     20  19  18     1.521654592869   117.43939270   181.90698592
 F     21  20  19     1.381506673889   109.58035703    93.79493892
 F     21  20  19     1.384982906032   110.92967190   334.60063686
 F     21  20  19     1.376361406027   112.06206010   215.41639485
 C      2   1   3     1.482640624022   119.32912349   180.91052194
 C     25   2   1     1.408058741672   120.90562235   203.55977958
 C     26  25   2     1.398076342694   120.63638438   179.72461620
 C     27  26  25     1.400362456652   120.11442939   359.70857879
 C     28  27  26     1.401020331758   121.32854875   179.98086417
 C     29  28  27     1.396550081451   119.76846866   179.84826131
 C     30  29  28     1.397164024014   119.48865266   359.96307255
 N     31  30  29     1.359932303462   120.18151192     0.00000000
 C     32  31  30     1.360915996673   121.70596127     0.00000000
 C     33  32  31     1.398981783298   120.12829919   179.99285390
 H      3   2   1     1.041403067981   117.32254336   200.08939837
 H      4   3   2     1.113791659154   107.50778727    26.88224138
 H      6   5   4     1.083194539314   120.30179585   357.39119256
 H      7   6   5     1.082833325124   118.93450677   179.91029165
 H     13   8   7     1.082867798949   120.50527851   183.52095150
 H     14  13   8     1.080958038038   118.00508246   181.14207893
 H     17  16  15     1.081798419300   119.87451137   180.21571648
 H     18  17  16     1.082438367760   120.30852915   181.02713343
 H     19  18  17     1.082608428750   117.80933309   181.17122687
 H     26  25   2     1.081891801429   120.94455297     1.14546812
 H     27  26  25     1.083597757473   119.29882625   180.08355425
 H     29  28  27     1.083426993387   120.78338657   359.84592567
 H     30  29  28     1.082316963740   120.26380407   179.98047943
 H     31  30  29     1.081801039933   120.04701636   180.00205091
 H     34  33  32     1.083753265278   119.18360038   359.73144428

---------------------------
INTERNAL COORDINATES (A.U.)
---------------------------
 O      0   0   0     0.000000000000     0.00000000     0.00000000
 C      1   0   0     2.384526277348     0.00000000     0.00000000
 N      2   1   0     2.717780277467   119.74544412     0.00000000
 C      3   2   1     2.777727586999   122.19553425     8.56111969
 C      4   3   2     2.875858009841   113.88122006   140.57283625
 C      5   4   3     2.659028452366   118.93061142   178.47582068
 C      6   5   4     2.639841179182   120.80958887   177.59662719
 C      7   6   5     2.652550052207   120.47785638   359.55001712
 C      8   7   6     2.849399236144   120.44173387   182.07606175
 F      9   8   7     2.615871555772   110.66404326   327.44176842
 F      9   8   7     2.615804546379   110.65952042   207.51101629
 F      9   8   7     2.612095328850   109.22680971    87.47437741
 C      8   7   6     2.653155659249   118.92384129   357.06140452
 C     13   8   7     2.641308966150   120.59173462     2.87049004
 C      4   3   2     2.877046902968   109.97975420   270.60453441
 N     15   4   3     2.577770903108   115.36935354    96.92876975
 C     16  15   4     2.560468712258   123.26855996   180.30178420
 C     17  16  15     2.621019553626   119.90167242   359.64777750
 C     18  17  16     2.629199596689   119.29427150     0.76560714
 C     19  18  17     2.665540844385   121.15195636     0.96998224
 C     20  19  18     2.875510450946   117.43939270   181.90698592
 F     21  20  19     2.610669265835   109.58035703    93.79493892
 F     21  20  19     2.617238392562   110.92967190   334.60063686
 F     21  20  19     2.600946118689   112.06206010   215.41639485
 C      2   1   3     2.801784734427   119.32912349   180.91052194
 C     25   2   1     2.660845402235   120.90562235   203.55977958
 C     26  25   2     2.641981402005   120.63638438   179.72461620
 C     27  26  25     2.646301531297   120.11442939   359.70857879
 C     28  27  26     2.647544735079   121.32854875   179.98086417
 C     29  28  27     2.639097186247   119.76846866   179.84826131
 C     30  29  28     2.640257369555   119.48865266   359.96307255
 N     31  30  29     2.569899614216   120.18151192     0.00000000
 C     32  31  30     2.571758524984   121.70596127     0.00000000
 C     33  32  31     2.643692436778   120.12829919   179.99285390
 H      3   2   1     1.967966593509   117.32254336   200.08939837
 H      4   3   2     2.104761206046   107.50778727    26.88224138
 H      6   5   4     2.046941029063   120.30179585   357.39119256
 H      7   6   5     2.046258433168   118.93450677   179.91029165
 H     13   8   7     2.046323579255   120.50527851   183.52095150
 H     14  13   8     2.042714654154   118.00508246   181.14207893
 H     17  16  15     2.044302744586   119.87451137   180.21571648
 H     18  17  16     2.045512071916   120.30852915   181.02713343
 H     19  18  17     2.045833440612   117.80933309   181.17122687
 H     26  25   2     2.044479211236   120.94455297     1.14546812
 H     27  26  25     2.047703000955   119.29882625   180.08355425
 H     29  28  27     2.047380303599   120.78338657   359.84592567
 H     30  29  28     2.045282651566   120.26380407   179.98047943
 H     31  30  29     2.044307696864   120.04701636   180.00205091
 H     34  33  32     2.047996868118   119.18360038   359.73144428

---------------------
BASIS SET INFORMATION
---------------------
There are 5 groups of distinct atoms

 Group   1 Type O   : 10s4p1d contracted to 3s2p1d pattern {631/31/1}
 Group   2 Type C   : 10s4p1d contracted to 3s2p1d pattern {631/31/1}
 Group   3 Type N   : 10s4p1d contracted to 3s2p1d pattern {631/31/1}
 Group   4 Type F   : 10s4p1d contracted to 3s2p1d pattern {631/31/1}
 Group   5 Type H   : 4s contracted to 2s pattern {31}

Atom   0O    basis set group =>   1
Atom   1C    basis set group =>   2
Atom   2N    basis set group =>   3
Atom   3C    basis set group =>   2
Atom   4C    basis set group =>   2
Atom   5C    basis set group =>   2
Atom   6C    basis set group =>   2
Atom   7C    basis set group =>   2
Atom   8C    basis set group =>   2
Atom   9F    basis set group =>   4
Atom  10F    basis set group =>   4
Atom  11F    basis set group =>   4
Atom  12C    basis set group =>   2
Atom  13C    basis set group =>   2
Atom  14C    basis set group =>   2
Atom  15N    basis set group =>   3
Atom  16C    basis set group =>   2
Atom  17C    basis set group =>   2
Atom  18C    basis set group =>   2
Atom  19C    basis set group =>   2
Atom  20C    basis set group =>   2
Atom  21F    basis set group =>   4
Atom  22F    basis set group =>   4
Atom  23F    basis set group =>   4
Atom  24C    basis set group =>   2
Atom  25C    basis set group =>   2
Atom  26C    basis set group =>   2
Atom  27C    basis set group =>   2
Atom  28C    basis set group =>   2
Atom  29C    basis set group =>   2
Atom  30C    basis set group =>   2
Atom  31N    basis set group =>   3
Atom  32C    basis set group =>   2
Atom  33C    basis set group =>   2
Atom  34H    basis set group =>   5
Atom  35H    basis set group =>   5
Atom  36H    basis set group =>   5
Atom  37H    basis set group =>   5
Atom  38H    basis set group =>   5
Atom  39H    basis set group =>   5
Atom  40H    basis set group =>   5
Atom  41H    basis set group =>   5
Atom  42H    basis set group =>   5
Atom  43H    basis set group =>   5
Atom  44H    basis set group =>   5
Atom  45H    basis set group =>   5
Atom  46H    basis set group =>   5
Atom  47H    basis set group =>   5
Atom  48H    basis set group =>   5
---------------------------------
AUXILIARY/J BASIS SET INFORMATION
---------------------------------
There are 5 groups of distinct atoms

 Group   1 Type O   : 12s5p4d2f1g contracted to 6s4p3d1f1g pattern {711111/2111/211/2/1}
 Group   2 Type C   : 12s5p4d2f1g contracted to 6s4p3d1f1g pattern {711111/2111/211/2/1}
 Group   3 Type N   : 12s5p4d2f1g contracted to 6s4p3d1f1g pattern {711111/2111/211/2/1}
 Group   4 Type F   : 12s5p4d2f1g contracted to 6s4p3d1f1g pattern {711111/2111/211/2/1}
 Group   5 Type H   : 5s2p1d contracted to 3s1p1d pattern {311/2/1}

Atom   0O    basis set group =>   1
Atom   1C    basis set group =>   2
Atom   2N    basis set group =>   3
Atom   3C    basis set group =>   2
Atom   4C    basis set group =>   2
Atom   5C    basis set group =>   2
Atom   6C    basis set group =>   2
Atom   7C    basis set group =>   2
Atom   8C    basis set group =>   2
Atom   9F    basis set group =>   4
Atom  10F    basis set group =>   4
Atom  11F    basis set group =>   4
Atom  12C    basis set group =>   2
Atom  13C    basis set group =>   2
Atom  14C    basis set group =>   2
Atom  15N    basis set group =>   3
Atom  16C    basis set group =>   2
Atom  17C    basis set group =>   2
Atom  18C    basis set group =>   2
Atom  19C    basis set group =>   2
Atom  20C    basis set group =>   2
Atom  21F    basis set group =>   4
Atom  22F    basis set group =>   4
Atom  23F    basis set group =>   4
Atom  24C    basis set group =>   2
Atom  25C    basis set group =>   2
Atom  26C    basis set group =>   2
Atom  27C    basis set group =>   2
Atom  28C    basis set group =>   2
Atom  29C    basis set group =>   2
Atom  30C    basis set group =>   2
Atom  31N    basis set group =>   3
Atom  32C    basis set group =>   2
Atom  33C    basis set group =>   2
Atom  34H    basis set group =>   5
Atom  35H    basis set group =>   5
Atom  36H    basis set group =>   5
Atom  37H    basis set group =>   5
Atom  38H    basis set group =>   5
Atom  39H    basis set group =>   5
Atom  40H    basis set group =>   5
Atom  41H    basis set group =>   5
Atom  42H    basis set group =>   5
Atom  43H    basis set group =>   5
Atom  44H    basis set group =>   5
Atom  45H    basis set group =>   5
Atom  46H    basis set group =>   5
Atom  47H    basis set group =>   5
Atom  48H    basis set group =>   5
------------------------------------------------------------------------------
                             ORCA STARTUP CALCULATIONS
                           -- RI-GTO INTEGRALS CHOSEN --
------------------------------------------------------------------------------
------------------------------------------------------------------------------
                   ___                                                        
                  /   \      - P O W E R E D   B Y -                         
                 /     \                                                     
                 |  |  |   _    _      __       _____    __    __             
                 |  |  |  | |  | |    /  \     |  _  \  |  |  /  |          
                  \  \/   | |  | |   /    \    | | | |  |  | /  /          
                 / \  \   | |__| |  /  /\  \   | |_| |  |  |/  /          
                |  |  |   |  __  | /  /__\  \  |    /   |      \           
                |  |  |   | |  | | |   __   |  |    \   |  |\   \          
                \     /   | |  | | |  |  |  |  | |\  \  |  | \   \       
                 \___/    |_|  |_| |__|  |__|  |_| \__\ |__|  \__/        
                                                                              
                      - O R C A' S   B I G   F R I E N D -                    
                                      &                                       
                       - I N T E G R A L  F E E D E R -                       
                                                                              
 v1 FN, 2020, v2 2021, v3 2022-2024                                           
------------------------------------------------------------------------------


----------------------
SHARK INTEGRAL PACKAGE
----------------------

Number of atoms                             ...     49
Number of basis functions                   ...    506
Number of shells                            ...    234
Maximum angular momentum                    ...      2
Integral batch strategy                     ... SHARK/LIBINT Hybrid
RI-J (if used) integral strategy            ... SPLIT-RIJ (Revised 2003 algorithm where possible)
Printlevel                                  ...      1
Contraction scheme used                     ... SEGMENTED contraction
Prescreening option                         ... SCHWARTZ
   Thresh                                   ... 1.000e-10
   Tcut                                     ... 1.000e-11
   Tpresel                                  ... 1.000e-11 
Coulomb Range Separation                    ... NOT USED
Exchange Range Separation                   ... NOT USED
Multipole approximations                    ... NOT USED
Finite Nucleus Model                        ... NOT USED
CABS basis                                  ... NOT available
Auxiliary Coulomb fitting basis             ... AVAILABLE
   # of basis functions in Aux-J            ...   1831
   # of shells in Aux-J                     ...    585
   Maximum angular momentum in Aux-J        ...      4
Auxiliary J/K fitting basis                 ... NOT available
Auxiliary Correlation fitting basis         ... NOT available
Auxiliary 'external' fitting basis          ... NOT available

Checking pre-screening integrals            ... done (  0.0 sec) Dimension = 234
Check shell pair data                       ... done (  0.0 sec)
Shell pair information
Shell pair cut-off parameter TPreSel        ...   1.0e-11
Total number of shell pairs                 ...     27495
Shell pairs after pre-screening             ...     14552
Total number of primitive shell pairs       ...    163494
Primitive shell pairs kept                  ...     45045
          la=0 lb=0:   4323 shell pairs
          la=1 lb=0:   5141 shell pairs
          la=1 lb=1:   1533 shell pairs
          la=2 lb=0:   2038 shell pairs
          la=2 lb=1:   1270 shell pairs
          la=2 lb=2:    247 shell pairs

Calculating one electron integrals          ... done (  0.2 sec)
Calculating RI/J V-Matrix + Cholesky decomp.... done (  0.4 sec)
Calculating Nuclear repulsion               ... done (  0.0 sec) ENN=   3421.594734863846 Eh

Diagonalization of the overlap matrix:
Smallest eigenvalue                        ... 3.637e-04
Time for diagonalization                   ...    0.045 sec
Threshold for overlap eigenvalues          ... 1.000e-07
Number of eigenvalues below threshold      ... 0
Time for construction of square roots      ...    0.035 sec
Total time needed                          ...    0.090 sec

-------------------
DFT GRID GENERATION
-------------------

General Integration Accuracy     IntAcc      ... 4.388
Radial Grid Type                 RadialGrid  ... OptM3 with GC (2021)
Angular Grid (max. ang.)         AngularGrid ... 4 (Lebedev-302)
Angular grid pruning method      GridPruning ... 4 (adaptive)
Weight generation scheme         WeightScheme... mBecke (2022)
Basis function cutoff            BFCut       ... 1.0000e-10
Integration weight cutoff        WCut        ... 1.0000e-14
Partially contracted basis set               ... off
Rotationally invariant grid construction     ... off
Angular grids for H and He will be reduced by one unit

Total number of grid points                  ...   251356
Total number of batches                      ...     3953
Average number of points per batch           ...       63
Average number of grid points per atom       ...     5130

--------------------
COSX GRID GENERATION
--------------------

GRIDX 1
-------
General Integration Accuracy     IntAcc      ... 3.816
Radial Grid Type                 RadialGrid  ... OptM3 with GC (2021)
Angular Grid (max. ang.)         AngularGrid ... 1 (Lebedev-50)
Angular grid pruning method      GridPruning ... 4 (adaptive)
Weight generation scheme         WeightScheme... mBecke (2022)
Basis function cutoff            BFCut       ... 1.0000e-10
Integration weight cutoff        WCut        ... 1.0000e-14
Partially contracted basis set               ... on
Rotationally invariant grid construction     ... off
Angular grids for H and He will be reduced by one unit

Total number of grid points                  ...    31794
Total number of batches                      ...      272
Average number of points per batch           ...      116
Average number of grid points per atom       ...      649
UseSFitting                                  ... on

GRIDX 2
-------
General Integration Accuracy     IntAcc      ... 4.020
Radial Grid Type                 RadialGrid  ... OptM3 with GC (2021)
Angular Grid (max. ang.)         AngularGrid ... 2 (Lebedev-110)
Angular grid pruning method      GridPruning ... 4 (adaptive)
Weight generation scheme         WeightScheme... mBecke (2022)
Basis function cutoff            BFCut       ... 1.0000e-10
Integration weight cutoff        WCut        ... 1.0000e-14
Partially contracted basis set               ... on
Rotationally invariant grid construction     ... off
Angular grids for H and He will be reduced by one unit

Total number of grid points                  ...    70868
Total number of batches                      ...      578
Average number of points per batch           ...      122
Average number of grid points per atom       ...     1446
UseSFitting                                  ... on

GRIDX 3
-------
General Integration Accuracy     IntAcc      ... 4.338
Radial Grid Type                 RadialGrid  ... OptM3 with GC (2021)
Angular Grid (max. ang.)         AngularGrid ... 3 (Lebedev-194)
Angular grid pruning method      GridPruning ... 4 (adaptive)
Weight generation scheme         WeightScheme... mBecke (2022)
Basis function cutoff            BFCut       ... 1.0000e-10
Integration weight cutoff        WCut        ... 1.0000e-14
Partially contracted basis set               ... on
Rotationally invariant grid construction     ... off
Angular grids for H and He will be reduced by one unit

Total number of grid points                  ...   155559
Total number of batches                      ...     1241
Average number of points per batch           ...      125
Average number of grid points per atom       ...     3175
UseSFitting                                  ... on
Initializing property integral containers    ... done (  0.0 sec)

SHARK setup successfully completed in  13.7 seconds

Maximum memory used throughout the entire STARTUP-calculation: 108.0 MB
-------------------------------------------------------------------------------
                                 ORCA GUESS
                   Start orbitals & Density for SCF / CASSCF
-------------------------------------------------------------------------------

------------
SCF SETTINGS
------------
Hamiltonian:
 Density Functional     Method          .... DFT(GTOs)
 Exchange Functional    Exchange        .... B88
   X-Alpha parameter    XAlpha          ....  0.666667
   Becke's b parameter  XBeta           ....  0.004200
 Correlation Functional Correlation     .... LYP
 LDA part of GGA corr.  LDAOpt          .... VWN-5
 Gradients option       PostSCFGGA      .... off
 Hybrid DFT is turned on
   Fraction HF Exchange ScalHFX         ....  0.200000
   Scaling of DF-GGA-X  ScalDFX         ....  0.720000
   Scaling of DF-GGA-C  ScalDFC         ....  0.810000
   Scaling of DF-LDA-C  ScalLDAC        ....  1.000000
   Perturbative correction              ....  0.000000
   NL short-range parameter             ....  4.800000
 RI-approximation to the Coulomb term is turned on
   Number of AuxJ basis functions       .... 1831
   RIJ-COSX (HFX calculated with COS-X)).... on


General Settings:
 Integral files         IntName         .... /home/nmrbox/aojoawo/Documents/ERDOS/inputs/CHEMBL4245257
 Hartree-Fock type      HFTyp           .... RHF
 Total Charge           Charge          ....    0
 Multiplicity           Mult            ....    1
 Number of Electrons    NEL             ....  242
 Basis Dimension        Dim             ....  506
 Nuclear Repulsion      ENuc            ....   3421.5947348638 Eh

Convergence Acceleration:
 AO-DIIS                CNVDIIS         .... on
   Start iteration      DIISMaxIt       ....    12
   Startup error        DIISStart       ....  0.200000
   # of expansion vecs  DIISMaxEq       ....     5
   Bias factor          DIISBfac        ....   1.050
   Max. coefficient     DIISMaxC        ....  10.000
 MO-DIIS                CNVKDIIS        .... off
 Trust-Rad. Augm. Hess. CNVTRAH         .... auto
   Auto Start mean grad. ratio tolernc. ....  1.125000
   Auto Start start iteration           ....    50
   Auto Start num. interpolation iter.  ....    10
   Max. Number of Micro iterations      ....    24
   Max. Number of Macro iterations      .... Maxiter - #DIIS iter
   Number of Davidson start vectors     ....     2
   Converg. threshold    (grad. norm)   ....   5.000e-05
   Grad. Scal. Fac. for Micro threshold ....   0.100
   Minimum threshold for Micro iter.    ....   1.000e-02
   NR start threshold (gradient norm)   ....   1.000e-04
   Initial trust radius                 ....   0.400
   Minimum AH scaling param. (alpha)    ....   1.000
   Maximum AH scaling param. (alpha)    .... 1000.000
   Quad. conv. algorithm                .... NR
   White noise on init. David. guess    .... on
   Maximum white noise                  ....   0.010
   Pseudo random numbers                .... off
   Inactive MOs                         .... canonical
   Orbital update algorithm             .... Taylor
   Preconditioner                       .... Diag
   Full preconditioner red. dimension   ....   250
 SOSCF                  CNVSOSCF        .... on
   Start iteration      SOSCFMaxIt      ....   150
   Startup grad/error   SOSCFStart      ....  0.003300
   Hessian update       SOSCFHessUp     .... L-BFGS
 Level Shifting         CNVShift        .... on
   Level shift para.    LevelShift      ....    0.2500
   Turn off err/grad.   ShiftErr        ....    0.0010
 Zerner damping         CNVZerner       .... off
 Static damping         CNVDamp         .... on
   Fraction old density DampFac         ....    0.7000
   Max. Damping (<1)    DampMax         ....    0.9800
   Min. Damping (>=0)   DampMin         ....    0.0000
   Turn off err/grad.   DampErr         ....    0.1000

SCF Procedure:
 Maximum # iterations   MaxIter         ....   125
 SCF integral mode      SCFMode         .... Direct
   Integral package                     .... SHARK and LIBINT hybrid scheme
 Reset frequency        DirectResetFreq ....    20
 Integral Threshold     Thresh          ....  1.000e-10 Eh
 Primitive CutOff       TCut            ....  1.000e-11 Eh

Convergence Tolerance:
 Convergence Check Mode ConvCheckMode   .... Total+1el-Energy
 Convergence forced     ConvForced      .... 0
 Energy Change          TolE            ....  1.000e-06 Eh
 1-El. energy change                    ....  1.000e-03 Eh
 Orbital Gradient       TolG            ....  5.000e-05
 Orbital Rotation angle TolX            ....  5.000e-05
 DIIS Error             TolErr          ....  1.000e-06

------------------------------
INITIAL GUESS: MODEL POTENTIAL
------------------------------
Loading Hartree-Fock densities                     ... done
Calculating cut-offs                               ... done
Initializing the effective Hamiltonian             ... done
Setting up the integral package (SHARK)            ... done
Starting the Coulomb interaction                   ... done (   3.6 sec)
Making the grid                                    ... done (   1.9 sec)
Mapping shells                                     ... done
Starting the XC term evaluation                    ... done (   1.2 sec)
  promolecular density results
     # of electrons  =    241.992339385
     EX              =   -215.999930741
     EC              =     -8.513015405
     EX+EC           =   -224.512946146
Transforming the Hamiltonian                       ... done (   0.0 sec)
Diagonalizing the Hamiltonian                      ... done (   0.0 sec)
Back transforming the eigenvectors                 ... done (   0.0 sec)
Now organizing SCF variables                       ... done
                      ------------------
                      INITIAL GUESS DONE (   6.8 sec)
                      ------------------
             **** ENERGY FILE WAS UPDATED (/home/nmrbox/aojoawo/Documents/ERDOS/inputs/CHEMBL4245257.en.tmp) ****
Finished Guess after   7.1 sec
Maximum memory used throughout the entire GUESS-calculation: 59.3 MB

-------------------------------------------------------------------------------------------
                                      ORCA LEAN-SCF
                              memory conserving SCF solver
-------------------------------------------------------------------------------------------

----------------------------------------D-I-I-S--------------------------------------------
Iteration    Energy (Eh)           Delta-E    RMSDP     MaxDP     DIISErr   Damp  Time(sec)
-------------------------------------------------------------------------------------------
               ***  Starting incremental Fock matrix formation  ***
    1    -1760.4772219799024242     0.00e+00  2.02e-03  1.05e-01  2.71e-01  0.700  68.8
    2    -1760.8086381488601546    -3.31e-01  1.31e-03  5.65e-02  9.26e-02  0.700  29.5
                               ***Turning on AO-DIIS***
    3    -1760.9318481641839753    -1.23e-01  5.39e-04  1.56e-02  3.77e-02  0.700  28.6
    4    -1761.0101590055219276    -7.83e-02  9.16e-04  2.74e-02  1.63e-02  0.000  26.0
    5    -1761.1836747850738902    -1.74e-01  2.04e-04  8.13e-03  6.23e-03  0.000  27.0
    6    -1761.1847515756471694    -1.08e-03  7.10e-05  3.21e-03  3.31e-03  0.000  23.6
                              *** Initializing SOSCF ***
---------------------------------------S-O-S-C-F--------------------------------------
Iteration    Energy (Eh)           Delta-E    RMSDP     MaxDP     MaxGrad    Time(sec)
--------------------------------------------------------------------------------------
    7    -1761.1848050126591261    -5.34e-05  2.25e-05  1.34e-03  2.49e-03    20.3
               *** Restarting incremental Fock matrix formation ***
    8    -1761.1848428594284997    -3.78e-05  1.74e-05  7.74e-04  1.48e-04    68.7
    9    -1761.1848414962232710     1.36e-06  8.81e-06  4.98e-04  2.94e-04    33.7
   10    -1761.1848448604823716    -3.36e-06  4.14e-06  2.16e-04  3.46e-05    27.2
   11    -1761.1848447023367044     1.58e-07  2.21e-06  1.45e-04  4.57e-05    25.0
                 **** Energy Check signals convergence ****

               *****************************************************
               *                     SUCCESS                       *
               *           SCF CONVERGED AFTER  11 CYCLES          *
               *****************************************************

Recomputing exchange energy using gridx3       ... done (  120.587 sec)
Old exchange energy                            :    -43.627772757 Eh
New exchange energy                            :    -43.627883829 Eh
Exchange energy change after final integration :     -0.000111072 Eh
Total energy after final integration           :  -1761.184955774 Eh
             **** ENERGY FILE WAS UPDATED (/home/nmrbox/aojoawo/Documents/ERDOS/inputs/CHEMBL4245257.en.tmp) ****

----------------
TOTAL SCF ENERGY
----------------

Total Energy       :      -1761.18495577449744 Eh          -47924.27907 eV

Components:
Nuclear Repulsion  :       3421.59473486384559 Eh           93106.32617 eV
Electronic Energy  :      -5182.77957956618229 Eh         -141030.60222 eV
One Electron Energy:      -9223.43210978721254 Eh         -250982.34740 eV
Two Electron Energy:       4040.65253022103070 Eh          109951.74519 eV

Virial components:
Potential Energy   :      -3511.83111637661932 Eh          -95561.78294 eV
Kinetic Energy     :       1750.64616060212165 Eh           47637.50387 eV
Virial Ratio       :          2.00601994589743

DFT components:
N(Alpha)           :      121.000011950563 electrons
N(Beta)            :      121.000011950563 electrons
N(Total)           :      242.000023901127 electrons
E(X)               :     -173.482782810129 Eh       
E(C)               :       -9.996581114836 Eh       
E(XC)              :     -183.479363924965 Eh       

---------------
SCF CONVERGENCE
---------------

  Last Energy change         ...   -1.5815e-07  Tolerance :   1.0000e-06
  Last MAX-Density change    ...    1.4504e-04  Tolerance :   1.0000e-05
  Last RMS-Density change    ...    2.2115e-06  Tolerance :   1.0000e-06
  Last DIIS Error            ...    2.4874e-03  Tolerance :   1.0000e-06
  Last Orbital Gradient      ...    4.5729e-05  Tolerance :   5.0000e-05
  Last Orbital Rotation      ...    8.7496e-05  Tolerance :   5.0000e-05


----------------
ORBITAL ENERGIES
----------------

  NO   OCC          E(Eh)            E(eV) 
   0   2.0000     -24.739427      -673.1940 
   1   2.0000     -24.730076      -672.9396 
   2   2.0000     -24.725656      -672.8193 
   3   2.0000     -24.715443      -672.5414 
   4   2.0000     -24.715232      -672.5357 
   5   2.0000     -24.711458      -672.4329 
   6   2.0000     -19.111279      -520.0443 
   7   2.0000     -14.362896      -390.8343 
   8   2.0000     -14.339489      -390.1973 
   9   2.0000     -14.328930      -389.9100 
  10   2.0000     -10.449451      -284.3440 
  11   2.0000     -10.430360      -283.8245 
  12   2.0000     -10.293401      -280.0977 
  13   2.0000     -10.254255      -279.0325 
  14   2.0000     -10.244419      -278.7648 
  15   2.0000     -10.234534      -278.4958 
  16   2.0000     -10.231867      -278.4233 
  17   2.0000     -10.226805      -278.2855 
  18   2.0000     -10.224581      -278.2250 
  19   2.0000     -10.221660      -278.1455 
  20   2.0000     -10.211254      -277.8623 
  21   2.0000     -10.209986      -277.8278 
  22   2.0000     -10.209529      -277.8154 
  23   2.0000     -10.207500      -277.7602 
  24   2.0000     -10.206031      -277.7202 
  25   2.0000     -10.202805      -277.6324 
  26   2.0000     -10.202341      -277.6198 
  27   2.0000     -10.200438      -277.5680 
  28   2.0000     -10.200139      -277.5599 
  29   2.0000     -10.199111      -277.5319 
  30   2.0000     -10.198991      -277.5286 
  31   2.0000     -10.196633      -277.4645 
  32   2.0000     -10.196122      -277.4506 
  33   2.0000     -10.195273      -277.4275 
  34   2.0000      -1.295720       -35.2583 
  35   2.0000      -1.275092       -34.6970 
  36   2.0000      -1.222077       -33.2544 
  37   2.0000      -1.213629       -33.0245 
  38   2.0000      -1.200739       -32.6738 
  39   2.0000      -1.199309       -32.6349 
  40   2.0000      -1.012082       -27.5401 
  41   2.0000      -0.949283       -25.8313 
  42   2.0000      -0.939212       -25.5573 
  43   2.0000      -0.912714       -24.8362 
  44   2.0000      -0.868755       -23.6400 
  45   2.0000      -0.857903       -23.3447 
  46   2.0000      -0.827328       -22.5127 
  47   2.0000      -0.813872       -22.1466 
  48   2.0000      -0.806429       -21.9440 
  49   2.0000      -0.785018       -21.3614 
  50   2.0000      -0.770138       -20.9565 
  51   2.0000      -0.758113       -20.6293 
  52   2.0000      -0.746014       -20.3001 
  53   2.0000      -0.730421       -19.8758 
  54   2.0000      -0.708951       -19.2915 
  55   2.0000      -0.680536       -18.5183 
  56   2.0000      -0.665254       -18.1025 
  57   2.0000      -0.644447       -17.5363 
  58   2.0000      -0.641441       -17.4545 
  59   2.0000      -0.632036       -17.1986 
  60   2.0000      -0.623643       -16.9702 
  61   2.0000      -0.612829       -16.6759 
  62   2.0000      -0.602534       -16.3958 
  63   2.0000      -0.585294       -15.9267 
  64   2.0000      -0.582885       -15.8611 
  65   2.0000      -0.579440       -15.7674 
  66   2.0000      -0.567095       -15.4314 
  67   2.0000      -0.565993       -15.4015 
  68   2.0000      -0.562217       -15.2987 
  69   2.0000      -0.558833       -15.2066 
  70   2.0000      -0.547162       -14.8890 
  71   2.0000      -0.528352       -14.3772 
  72   2.0000      -0.520669       -14.1681 
  73   2.0000      -0.517850       -14.0914 
  74   2.0000      -0.500631       -13.6229 
  75   2.0000      -0.497545       -13.5389 
  76   2.0000      -0.476848       -12.9757 
  77   2.0000      -0.475842       -12.9483 
  78   2.0000      -0.468228       -12.7411 
  79   2.0000      -0.462386       -12.5822 
  80   2.0000      -0.461919       -12.5694 
  81   2.0000      -0.453588       -12.3427 
  82   2.0000      -0.450314       -12.2537 
  83   2.0000      -0.444814       -12.1040 
  84   2.0000      -0.442458       -12.0399 
  85   2.0000      -0.441501       -12.0138 
  86   2.0000      -0.436130       -11.8677 
  87   2.0000      -0.435266       -11.8442 
  88   2.0000      -0.433417       -11.7939 
  89   2.0000      -0.432138       -11.7591 
  90   2.0000      -0.430469       -11.7136 
  91   2.0000      -0.423646       -11.5280 
  92   2.0000      -0.416973       -11.3464 
  93   2.0000      -0.416144       -11.3239 
  94   2.0000      -0.413749       -11.2587 
  95   2.0000      -0.411881       -11.2079 
  96   2.0000      -0.409363       -11.1393 
  97   2.0000      -0.406197       -11.0532 
  98   2.0000      -0.404398       -11.0042 
  99   2.0000      -0.397021       -10.8035 
 100   2.0000      -0.393800       -10.7159 
 101   2.0000      -0.390310       -10.6209 
 102   2.0000      -0.385445       -10.4885 
 103   2.0000      -0.375884       -10.2283 
 104   2.0000      -0.366528        -9.9737 
 105   2.0000      -0.365567        -9.9476 
 106   2.0000      -0.361589        -9.8393 
 107   2.0000      -0.356108        -9.6902 
 108   2.0000      -0.350650        -9.5417 
 109   2.0000      -0.337934        -9.1957 
 110   2.0000      -0.308339        -8.3903 
 111   2.0000      -0.298047        -8.1103 
 112   2.0000      -0.285034        -7.7562 
 113   2.0000      -0.264472        -7.1966 
 114   2.0000      -0.263474        -7.1695 
 115   2.0000      -0.261403        -7.1131 
 116   2.0000      -0.256787        -6.9875 
 117   2.0000      -0.252952        -6.8832 
 118   2.0000      -0.249115        -6.7788 
 119   2.0000      -0.240440        -6.5427 
 120   2.0000      -0.230485        -6.2718 
 121   0.0000      -0.071975        -1.9585 
 122   0.0000      -0.047121        -1.2822 
 123   0.0000      -0.040799        -1.1102 
 124   0.0000      -0.035348        -0.9619 
 125   0.0000      -0.026831        -0.7301 
 126   0.0000      -0.012470        -0.3393 
 127   0.0000       0.010224         0.2782 
 128   0.0000       0.031809         0.8656 
 129   0.0000       0.062933         1.7125 
 130   0.0000       0.091948         2.5020 
 131   0.0000       0.095056         2.5866 
*Only the first 10 virtual orbitals were printed.

                    ********************************
                    * MULLIKEN POPULATION ANALYSIS *
                    ********************************

-----------------------
MULLIKEN ATOMIC CHARGES
-----------------------
   0 O :   -0.460366
   1 C :    0.501917
   2 N :   -0.646659
   3 C :   -0.059857
   4 C :    0.112754
   5 C :   -0.161936
   6 C :   -0.161416
   7 C :   -0.010780
   8 C :    0.893516
   9 F :   -0.306121
  10 F :   -0.306477
  11 F :   -0.296995
  12 C :   -0.161313
  13 C :   -0.167045
  14 C :    0.235859
  15 N :   -0.387469
  16 C :    0.028864
  17 C :   -0.133619
  18 C :   -0.128535
  19 C :   -0.076248
  20 C :    0.918917
  21 F :   -0.288278
  22 F :   -0.304766
  23 F :   -0.304207
  24 C :    0.071808
  25 C :   -0.181772
  26 C :   -0.207516
  27 C :    0.173375
  28 C :   -0.153133
  29 C :   -0.144641
  30 C :    0.016304
  31 N :   -0.428019
  32 C :    0.210016
  33 C :   -0.170959
  34 H :    0.328918
  35 H :    0.217988
  36 H :    0.145785
  37 H :    0.152935
  38 H :    0.150340
  39 H :    0.130114
  40 H :    0.163159
  41 H :    0.145912
  42 H :    0.166035
  43 H :    0.135315
  44 H :    0.136621
  45 H :    0.143716
  46 H :    0.137700
  47 H :    0.153904
  48 H :    0.176355
Sum of atomic charges:   -0.0000000

--------------------------------
MULLIKEN REDUCED ORBITAL CHARGES
--------------------------------
  0 O s       :     3.891696  s :     3.891696
      pz      :     1.372487  p :     4.542994
      px      :     1.798642
      py      :     1.371865
      dz2     :     0.008979  d :     0.025677
      dxz     :     0.004166
      dyz     :     0.007739
      dx2y2   :     0.002872
      dxy     :     0.001921

  1 C s       :     3.024087  s :     3.024087
      pz      :     0.781832  p :     2.374663
      px      :     0.804837
      py      :     0.787994
      dz2     :     0.019818  d :     0.099333
      dxz     :     0.031963
      dyz     :     0.014767
      dx2y2   :     0.014260
      dxy     :     0.018525

  2 N s       :     3.602131  s :     3.602131
      pz      :     1.231671  p :     4.015763
      px      :     1.126779
      py      :     1.657313
      dz2     :     0.010270  d :     0.028765
      dxz     :     0.005804
      dyz     :     0.002427
      dx2y2   :     0.005082
      dxy     :     0.005182

  3 C s       :     3.217041  s :     3.217041
      pz      :     1.048422  p :     2.784658
      px      :     0.802740
      py      :     0.933496
      dz2     :     0.013013  d :     0.058158
      dxz     :     0.009867
      dyz     :     0.005386
      dx2y2   :     0.012444
      dxy     :     0.017449

  4 C s       :     3.161699  s :     3.161699
      pz      :     0.935644  p :     2.685934
      px      :     0.861655
      py      :     0.888636
      dz2     :     0.005380  d :     0.039612
      dxz     :     0.006435
      dyz     :     0.006233
      dx2y2   :     0.010134
      dxy     :     0.011430

  5 C s       :     3.199146  s :     3.199146
      pz      :     0.992964  p :     2.927162
      px      :     0.954451
      py      :     0.979748
      dz2     :     0.003144  d :     0.035628
      dxz     :     0.006085
      dyz     :     0.006392
      dx2y2   :     0.010346
      dxy     :     0.009661

  6 C s       :     3.206444  s :     3.206444
      pz      :     0.973874  p :     2.918799
      px      :     0.993587
      py      :     0.951338
      dz2     :     0.003824  d :     0.036174
      dxz     :     0.005631
      dyz     :     0.006642
      dx2y2   :     0.011701
      dxy     :     0.008377

  7 C s       :     3.157419  s :     3.157419
      pz      :     0.995664  p :     2.815300
      px      :     0.917520
      py      :     0.902116
      dz2     :     0.005684  d :     0.038061
      dxz     :     0.005370
      dyz     :     0.005264
      dx2y2   :     0.009153
      dxy     :     0.012590

  8 C s       :     2.805151  s :     2.805151
      pz      :     0.623851  p :     2.163352
      px      :     0.723335
      py      :     0.816166
      dz2     :     0.031102  d :     0.137981
      dxz     :     0.022317
      dyz     :     0.033414
      dx2y2   :     0.025264
      dxy     :     0.025885

  9 F s       :     3.980184  s :     3.980184
      pz      :     1.902422  p :     5.309639
      px      :     1.524317
      py      :     1.882900
      dz2     :     0.002276  d :     0.016297
      dxz     :     0.003247
      dyz     :     0.000505
      dx2y2   :     0.005524
      dxy     :     0.004745

 10 F s       :     3.980079  s :     3.980079
      pz      :     1.630589  p :     5.310113
      px      :     1.890270
      py      :     1.789255
      dz2     :     0.004560  d :     0.016284
      dxz     :     0.002828
      dyz     :     0.005665
      dx2y2   :     0.001661
      dxy     :     0.001569

 11 F s       :     3.976246  s :     3.976246
      pz      :     1.622529  p :     5.304421
      px      :     1.899222
      py      :     1.782670
      dz2     :     0.004724  d :     0.016329
      dxz     :     0.002684
      dyz     :     0.005742
      dx2y2   :     0.001607
      dxy     :     0.001572

 12 C s       :     3.205697  s :     3.205697
      pz      :     0.978473  p :     2.919442
      px      :     0.947723
      py      :     0.993247
      dz2     :     0.003185  d :     0.036174
      dxz     :     0.006439
      dyz     :     0.005731
      dx2y2   :     0.010936
      dxy     :     0.009883

 13 C s       :     3.201668  s :     3.201668
      pz      :     1.006215  p :     2.929850
      px      :     0.971632
      py      :     0.952003
      dz2     :     0.003577  d :     0.035526
      dxz     :     0.004919
      dyz     :     0.006081
      dx2y2   :     0.012124
      dxy     :     0.008824

 14 C s       :     3.101286  s :     3.101286
      pz      :     0.861255  p :     2.606404
      px      :     0.918183
      py      :     0.826967
      dz2     :     0.014341  d :     0.056451
      dxz     :     0.008362
      dyz     :     0.015016
      dx2y2   :     0.009804
      dxy     :     0.008927

 15 N s       :     3.701507  s :     3.701507
      pz      :     1.430317  p :     3.650559
      px      :     1.219066
      py      :     1.001176
      dz2     :     0.006889  d :     0.035404
      dxz     :     0.004782
      dyz     :     0.010115
      dx2y2   :     0.005722
      dxy     :     0.007894

 16 C s       :     3.143195  s :     3.143195
      pz      :     0.963007  p :     2.773793
      px      :     0.920832
      py      :     0.889954
      dz2     :     0.008863  d :     0.054148
      dxz     :     0.005722
      dyz     :     0.019226
      dx2y2   :     0.010910
      dxy     :     0.009427

 17 C s       :     3.193235  s :     3.193235
      pz      :     0.932918  p :     2.905169
      px      :     0.981938
      py      :     0.990313
      dz2     :     0.008874  d :     0.035215
      dxz     :     0.005487
      dyz     :     0.008388
      dx2y2   :     0.006246
      dxy     :     0.006219

 18 C s       :     3.201047  s :     3.201047
      pz      :     0.987000  p :     2.891238
      px      :     0.956908
      py      :     0.947330
      dz2     :     0.007118  d :     0.036250
      dxz     :     0.006742
      dyz     :     0.008778
      dx2y2   :     0.006525
      dxy     :     0.007086

 19 C s       :     3.176448  s :     3.176448
      pz      :     0.938036  p :     2.863966
      px      :     1.002845
      py      :     0.923085
      dz2     :     0.007089  d :     0.035835
      dxz     :     0.004692
      dyz     :     0.011728
      dx2y2   :     0.006014
      dxy     :     0.006313

 20 C s       :     2.806061  s :     2.806061
      pz      :     0.758001  p :     2.135823
      px      :     0.635370
      py      :     0.742453
      dz2     :     0.027725  d :     0.139198
      dxz     :     0.023708
      dyz     :     0.029449
      dx2y2   :     0.022560
      dxy     :     0.035756

 21 F s       :     3.981154  s :     3.981154
      pz      :     1.878647  p :     5.290409
      px      :     1.628566
      py      :     1.783197
      dz2     :     0.002149  d :     0.016714
      dxz     :     0.003334
      dyz     :     0.001936
      dx2y2   :     0.003827
      dxy     :     0.005469

 22 F s       :     3.982417  s :     3.982417
      pz      :     1.587608  p :     5.306089
      px      :     1.888701
      py      :     1.829779
      dz2     :     0.005626  d :     0.016260
      dxz     :     0.003203
      dyz     :     0.005384
      dx2y2   :     0.000950
      dxy     :     0.001097

 23 F s       :     3.981987  s :     3.981987
      pz      :     1.899782  p :     5.306074
      px      :     1.654019
      py      :     1.752274
      dz2     :     0.002223  d :     0.016146
      dxz     :     0.002381
      dyz     :     0.002088
      dx2y2   :     0.003705
      dxy     :     0.005750

 24 C s       :     3.164716  s :     3.164716
      pz      :     0.939967  p :     2.724715
      px      :     0.887876
      py      :     0.896872
      dz2     :     0.005764  d :     0.038761
      dxz     :     0.007338
      dyz     :     0.006035
      dx2y2   :     0.010733
      dxy     :     0.008890

 25 C s       :     3.203592  s :     3.203592
      pz      :     0.983855  p :     2.942119
      px      :     0.989249
      py      :     0.969015
      dz2     :     0.006419  d :     0.036061
      dxz     :     0.005881
      dyz     :     0.005071
      dx2y2   :     0.007269
      dxy     :     0.011421

 26 C s       :     3.209412  s :     3.209412
      pz      :     0.990933  p :     2.961836
      px      :     0.973982
      py      :     0.996921
      dz2     :     0.003428  d :     0.036268
      dxz     :     0.007138
      dyz     :     0.006877
      dx2y2   :     0.009816
      dxy     :     0.009009

 27 C s       :     3.112165  s :     3.112165
      pz      :     0.911957  p :     2.672481
      px      :     0.873856
      py      :     0.886668
      dz2     :     0.005808  d :     0.041979
      dxz     :     0.008521
      dyz     :     0.006205
      dx2y2   :     0.011072
      dxy     :     0.010373

 28 C s       :     3.195071  s :     3.195071
      pz      :     0.967201  p :     2.921546
      px      :     0.985022
      py      :     0.969323
      dz2     :     0.003251  d :     0.036517
      dxz     :     0.007466
      dyz     :     0.007071
      dx2y2   :     0.010242
      dxy     :     0.008487

 29 C s       :     3.202927  s :     3.202927
      pz      :     0.970652  p :     2.906667
      px      :     0.994978
      py      :     0.941037
      dz2     :     0.004562  d :     0.035047
      dxz     :     0.006877
      dyz     :     0.005419
      dx2y2   :     0.010572
      dxy     :     0.007618

 30 C s       :     3.148876  s :     3.148876
      pz      :     0.929606  p :     2.781380
      px      :     0.897620
      py      :     0.954153
      dz2     :     0.008197  d :     0.053440
      dxz     :     0.010218
      dyz     :     0.006027
      dx2y2   :     0.011808
      dxy     :     0.017191

 31 N s       :     3.698816  s :     3.698816
      pz      :     1.284824  p :     3.693503
      px      :     0.996523
      py      :     1.412155
      dz2     :     0.005613  d :     0.035700
      dxz     :     0.008749
      dyz     :     0.004512
      dx2y2   :     0.006275
      dxy     :     0.010551

 32 C s       :     3.075273  s :     3.075273
      pz      :     0.937617  p :     2.654880
      px      :     0.821543
      py      :     0.895720
      dz2     :     0.007258  d :     0.059832
      dxz     :     0.011624
      dyz     :     0.008472
      dx2y2   :     0.017373
      dxy     :     0.015105

 33 C s       :     3.254323  s :     3.254323
      pz      :     0.944718  p :     2.882106
      px      :     0.962414
      py      :     0.974974
      dz2     :     0.003380  d :     0.034531
      dxz     :     0.007277
      dyz     :     0.006386
      dx2y2   :     0.009391
      dxy     :     0.008097

 34 H s       :     0.671082  s :     0.671082

 35 H s       :     0.782012  s :     0.782012

 36 H s       :     0.854215  s :     0.854215

 37 H s       :     0.847065  s :     0.847065

 38 H s       :     0.849660  s :     0.849660

 39 H s       :     0.869886  s :     0.869886

 40 H s       :     0.836841  s :     0.836841

 41 H s       :     0.854088  s :     0.854088

 42 H s       :     0.833965  s :     0.833965

 43 H s       :     0.864685  s :     0.864685

 44 H s       :     0.863379  s :     0.863379

 45 H s       :     0.856284  s :     0.856284

 46 H s       :     0.862300  s :     0.862300

 47 H s       :     0.846096  s :     0.846096

 48 H s       :     0.823645  s :     0.823645



                     *******************************
                     * LOEWDIN POPULATION ANALYSIS *
                     *******************************

----------------------
LOEWDIN ATOMIC CHARGES
----------------------
   0 O :   -0.270710
   1 C :    0.143789
   2 N :   -0.234906
   3 C :   -0.053125
   4 C :   -0.015614
   5 C :   -0.125613
   6 C :   -0.109097
   7 C :   -0.071177
   8 C :    0.309701
   9 F :   -0.114198
  10 F :   -0.114539
  11 F :   -0.114477
  12 C :   -0.111123
  13 C :   -0.131920
  14 C :    0.045269
  15 N :   -0.113398
  16 C :   -0.051581
  17 C :   -0.143074
  18 C :   -0.089681
  19 C :   -0.085625
  20 C :    0.308835
  21 F :   -0.102307
  22 F :   -0.111190
  23 F :   -0.104132
  24 C :   -0.049480
  25 C :   -0.129399
  26 C :   -0.120026
  27 C :   -0.022257
  28 C :   -0.093298
  29 C :   -0.144681
  30 C :   -0.060933
  31 N :   -0.124125
  32 C :    0.013073
  33 C :   -0.073827
  34 H :    0.248620
  35 H :    0.178886
  36 H :    0.140186
  37 H :    0.144120
  38 H :    0.142647
  39 H :    0.132380
  40 H :    0.142130
  41 H :    0.141517
  42 H :    0.149346
  43 H :    0.132318
  44 H :    0.135114
  45 H :    0.138846
  46 H :    0.137463
  47 H :    0.137707
  48 H :    0.163562

-------------------------------
LOEWDIN REDUCED ORBITAL CHARGES
-------------------------------
  0 O s       :     3.590622  s :     3.590622
      pz      :     1.433848  p :     4.629687
      px      :     1.794526
      py      :     1.401313
      dz2     :     0.015986  d :     0.050401
      dxz     :     0.007621
      dyz     :     0.018465
      dx2y2   :     0.004888
      dxy     :     0.003441

  1 C s       :     2.863021  s :     2.863021
      pz      :     0.938518  p :     2.763119
      px      :     0.960578
      py      :     0.864024
      dz2     :     0.043123  d :     0.230070
      dxz     :     0.076955
      dyz     :     0.035826
      dx2y2   :     0.031751
      dxy     :     0.042415

  2 N s       :     3.162146  s :     3.162146
      pz      :     1.242838  p :     4.004835
      px      :     1.155269
      py      :     1.606727
      dz2     :     0.021155  d :     0.067925
      dxz     :     0.017460
      dyz     :     0.004978
      dx2y2   :     0.012496
      dxy     :     0.011836

  3 C s       :     2.881977  s :     2.881977
      pz      :     1.092773  p :     3.042769
      px      :     0.929761
      py      :     1.020236
      dz2     :     0.027431  d :     0.128379
      dxz     :     0.021842
      dyz     :     0.010787
      dx2y2   :     0.028024
      dxy     :     0.040295

  4 C s       :     2.885272  s :     2.885272
      pz      :     0.975614  p :     3.031708
      px      :     1.034166
      py      :     1.021928
      dz2     :     0.011035  d :     0.098633
      dxz     :     0.015894
      dyz     :     0.014312
      dx2y2   :     0.026976
      dxy     :     0.030416

  5 C s       :     2.916022  s :     2.916022
      pz      :     1.011796  p :     3.126113
      px      :     1.048057
      py      :     1.066260
      dz2     :     0.006700  d :     0.083477
      dxz     :     0.013609
      dyz     :     0.012326
      dx2y2   :     0.025759
      dxy     :     0.025083

  6 C s       :     2.916210  s :     2.916210
      pz      :     0.992296  p :     3.108187
      px      :     1.068880
      py      :     1.047011
      dz2     :     0.007887  d :     0.084700
      dxz     :     0.010514
      dyz     :     0.015855
      dx2y2   :     0.028265
      dxy     :     0.022178

  7 C s       :     2.887348  s :     2.887348
      pz      :     1.022799  p :     3.087062
      px      :     1.043989
      py      :     1.020273
      dz2     :     0.012053  d :     0.096768
      dxz     :     0.013222
      dyz     :     0.012523
      dx2y2   :     0.025372
      dxy     :     0.033597

  8 C s       :     2.850418  s :     2.850418
      pz      :     0.770096  p :     2.510575
      px      :     0.836232
      py      :     0.904247
      dz2     :     0.077579  d :     0.329306
      dxz     :     0.047707
      dyz     :     0.082198
      dx2y2   :     0.057212
      dxy     :     0.064610

  9 F s       :     3.759251  s :     3.759251
      pz      :     1.899335  p :     5.323992
      px      :     1.545586
      py      :     1.879071
      dz2     :     0.004663  d :     0.030954
      dxz     :     0.004967
      dyz     :     0.000847
      dx2y2   :     0.011931
      dxy     :     0.008547

 10 F s       :     3.759194  s :     3.759194
      pz      :     1.644876  p :     5.324400
      px      :     1.885863
      py      :     1.793661
      dz2     :     0.008213  d :     0.030945
      dxz     :     0.004927
      dyz     :     0.011972
      dx2y2   :     0.003228
      dxy     :     0.002606

 11 F s       :     3.761677  s :     3.761677
      pz      :     1.638848  p :     5.321542
      px      :     1.894542
      py      :     1.788152
      dz2     :     0.008549  d :     0.031258
      dxz     :     0.004508
      dyz     :     0.012568
      dx2y2   :     0.003082
      dxy     :     0.002551

 12 C s       :     2.916715  s :     2.916715
      pz      :     0.991401  p :     3.109682
      px      :     1.047466
      py      :     1.070815
      dz2     :     0.006502  d :     0.084727
      dxz     :     0.014299
      dyz     :     0.010970
      dx2y2   :     0.027187
      dxy     :     0.025768

 13 C s       :     2.916435  s :     2.916435
      pz      :     1.010569  p :     3.132152
      px      :     1.068254
      py      :     1.053329
      dz2     :     0.007179  d :     0.083333
      dxz     :     0.009047
      dyz     :     0.014446
      dx2y2   :     0.029300
      dxy     :     0.023361

 14 C s       :     2.886680  s :     2.886680
      pz      :     0.997407  p :     2.934093
      px      :     0.939976
      py      :     0.996710
      dz2     :     0.035046  d :     0.133958
      dxz     :     0.019318
      dyz     :     0.037606
      dx2y2   :     0.022690
      dxy     :     0.019299

 15 N s       :     3.243309  s :     3.243309
      pz      :     1.442313  p :     3.791079
      px      :     1.221130
      py      :     1.127637
      dz2     :     0.013358  d :     0.079010
      dxz     :     0.006642
      dyz     :     0.025001
      dx2y2   :     0.015280
      dxy     :     0.018728

 16 C s       :     2.915298  s :     2.915298
      pz      :     1.043256  p :     3.011698
      px      :     0.952108
      py      :     1.016334
      dz2     :     0.020733  d :     0.124584
      dxz     :     0.014743
      dyz     :     0.043153
      dx2y2   :     0.024121
      dxy     :     0.021835

 17 C s       :     2.923272  s :     2.923272
      pz      :     1.054403  p :     3.134595
      px      :     1.011425
      py      :     1.068768
      dz2     :     0.022247  d :     0.085207
      dxz     :     0.014479
      dyz     :     0.022714
      dx2y2   :     0.012876
      dxy     :     0.012890

 18 C s       :     2.921297  s :     2.921297
      pz      :     1.056053  p :     3.083441
      px      :     0.979586
      py      :     1.047802
      dz2     :     0.016359  d :     0.084943
      dxz     :     0.012215
      dyz     :     0.022975
      dx2y2   :     0.016861
      dxy     :     0.016534

 19 C s       :     2.900313  s :     2.900313
      pz      :     1.026574  p :     3.093745
      px      :     1.033714
      py      :     1.033457
      dz2     :     0.018931  d :     0.091566
      dxz     :     0.011693
      dyz     :     0.030757
      dx2y2   :     0.014556
      dxy     :     0.015629

 20 C s       :     2.853999  s :     2.853999
      pz      :     0.869455  p :     2.506466
      px      :     0.781230
      py      :     0.855781
      dz2     :     0.064582  d :     0.330700
      dxz     :     0.052146
      dyz     :     0.074756
      dx2y2   :     0.050292
      dxy     :     0.088924

 21 F s       :     3.761529  s :     3.761529
      pz      :     1.873496  p :     5.308947
      px      :     1.645158
      py      :     1.790293
      dz2     :     0.004548  d :     0.031831
      dxz     :     0.005906
      dyz     :     0.003414
      dx2y2   :     0.006123
      dxy     :     0.011840

 22 F s       :     3.758294  s :     3.758294
      pz      :     1.603794  p :     5.321745
      px      :     1.887530
      py      :     1.830421
      dz2     :     0.011278  d :     0.031151
      dxz     :     0.005612
      dyz     :     0.010515
      dx2y2   :     0.001724
      dxy     :     0.002021

 23 F s       :     3.753630  s :     3.753630
      pz      :     1.890855  p :     5.319232
      px      :     1.668947
      py      :     1.759430
      dz2     :     0.004403  d :     0.031270
      dxz     :     0.004381
      dyz     :     0.003617
      dx2y2   :     0.006348
      dxy     :     0.012521

 24 C s       :     2.879887  s :     2.879887
      pz      :     1.002008  p :     3.070117
      px      :     1.027631
      py      :     1.040477
      dz2     :     0.012703  d :     0.099476
      dxz     :     0.018599
      dyz     :     0.015643
      dx2y2   :     0.028347
      dxy     :     0.024184

 25 C s       :     2.917665  s :     2.917665
      pz      :     1.010805  p :     3.127138
      px      :     1.073321
      py      :     1.043012
      dz2     :     0.013265  d :     0.084596
      dxz     :     0.014944
      dyz     :     0.011951
      dx2y2   :     0.018637
      dxy     :     0.025799

 26 C s       :     2.915960  s :     2.915960
      pz      :     1.017879  p :     3.119108
      px      :     1.057294
      py      :     1.043934
      dz2     :     0.007508  d :     0.084958
      dxz     :     0.017425
      dyz     :     0.012524
      dx2y2   :     0.025001
      dxy     :     0.022499

 27 C s       :     2.856956  s :     2.856956
      pz      :     0.989835  p :     3.055657
      px      :     1.042526
      py      :     1.023296
      dz2     :     0.013306  d :     0.109644
      dxz     :     0.021790
      dyz     :     0.015972
      dx2y2   :     0.029492
      dxy     :     0.029084

 28 C s       :     2.919414  s :     2.919414
      pz      :     0.994427  p :     3.089196
      px      :     1.057493
      py      :     1.037276
      dz2     :     0.007418  d :     0.084689
      dxz     :     0.017426
      dyz     :     0.012625
      dx2y2   :     0.024968
      dxy     :     0.022253

 29 C s       :     2.926739  s :     2.926739
      pz      :     1.016349  p :     3.133947
      px      :     1.071627
      py      :     1.045971
      dz2     :     0.009926  d :     0.083995
      dxz     :     0.014848
      dyz     :     0.014294
      dx2y2   :     0.024584
      dxy     :     0.020344

 30 C s       :     2.917868  s :     2.917868
      pz      :     0.971951  p :     3.020683
      px      :     1.022047
      py      :     1.026685
      dz2     :     0.016857  d :     0.122382
      dxz     :     0.023700
      dyz     :     0.015537
      dx2y2   :     0.028608
      dxy     :     0.037680

 31 N s       :     3.241849  s :     3.241849
      pz      :     1.279442  p :     3.803581
      px      :     1.116450
      py      :     1.407689
      dz2     :     0.009441  d :     0.078695
      dxz     :     0.020754
      dyz     :     0.006285
      dx2y2   :     0.017461
      dxy     :     0.024755

 32 C s       :     2.845495  s :     2.845495
      pz      :     0.985355  p :     2.993115
      px      :     1.008158
      py      :     0.999602
      dz2     :     0.016403  d :     0.148317
      dxz     :     0.027585
      dyz     :     0.021192
      dx2y2   :     0.044116
      dxy     :     0.039021

 33 C s       :     2.925039  s :     2.925039
      pz      :     0.988302  p :     3.068046
      px      :     1.034208
      py      :     1.045536
      dz2     :     0.007332  d :     0.080742
      dxz     :     0.017391
      dyz     :     0.011476
      dx2y2   :     0.023336
      dxy     :     0.021207

 34 H s       :     0.751380  s :     0.751380

 35 H s       :     0.821114  s :     0.821114

 36 H s       :     0.859814  s :     0.859814

 37 H s       :     0.855880  s :     0.855880

 38 H s       :     0.857353  s :     0.857353

 39 H s       :     0.867620  s :     0.867620

 40 H s       :     0.857870  s :     0.857870

 41 H s       :     0.858483  s :     0.858483

 42 H s       :     0.850654  s :     0.850654

 43 H s       :     0.867682  s :     0.867682

 44 H s       :     0.864886  s :     0.864886

 45 H s       :     0.861154  s :     0.861154

 46 H s       :     0.862537  s :     0.862537

 47 H s       :     0.862293  s :     0.862293

 48 H s       :     0.836438  s :     0.836438



                      *****************************
                      * MAYER POPULATION ANALYSIS *
                      *****************************

  NA   - Mulliken gross atomic population
  ZA   - Total nuclear charge
  QA   - Mulliken gross atomic charge
  VA   - Mayer's total valence
  BVA  - Mayer's bonded valence
  FA   - Mayer's free valence

  ATOM       NA         ZA         QA         VA         BVA        FA
  0 O      8.4604     8.0000    -0.4604     2.0667     2.0667    -0.0000
  1 C      5.4981     6.0000     0.5019     3.9059     3.9059    -0.0000
  2 N      7.6467     7.0000    -0.6467     2.9061     2.9061    -0.0000
  3 C      6.0599     6.0000    -0.0599     3.7867     3.7867     0.0000
  4 C      5.8872     6.0000     0.1128     3.9501     3.9501     0.0000
  5 C      6.1619     6.0000    -0.1619     3.9114     3.9114    -0.0000
  6 C      6.1614     6.0000    -0.1614     3.9358     3.9358    -0.0000
  7 C      6.0108     6.0000    -0.0108     3.9624     3.9624     0.0000
  8 C      5.1065     6.0000     0.8935     3.9145     3.9145     0.0000
  9 F      9.3061     9.0000    -0.3061     1.0536     1.0536    -0.0000
 10 F      9.3065     9.0000    -0.3065     1.0532     1.0532     0.0000
 11 F      9.2970     9.0000    -0.2970     1.0555     1.0555     0.0000
 12 C      6.1613     6.0000    -0.1613     3.9308     3.9308     0.0000
 13 C      6.1670     6.0000    -0.1670     3.9232     3.9232     0.0000
 14 C      5.7641     6.0000     0.2359     3.8493     3.8493    -0.0000
 15 N      7.3875     7.0000    -0.3875     2.9959     2.9959    -0.0000
 16 C      5.9711     6.0000     0.0289     3.9057     3.9057    -0.0000
 17 C      6.1336     6.0000    -0.1336     3.9066     3.9066     0.0000
 18 C      6.1285     6.0000    -0.1285     3.9143     3.9143    -0.0000
 19 C      6.0762     6.0000    -0.0762     3.9283     3.9283    -0.0000
 20 C      5.0811     6.0000     0.9189     3.8614     3.8614    -0.0000
 21 F      9.2883     9.0000    -0.2883     1.0687     1.0687    -0.0000
 22 F      9.3048     9.0000    -0.3048     1.0579     1.0579     0.0000
 23 F      9.3042     9.0000    -0.3042     1.0572     1.0572     0.0000
 24 C      5.9282     6.0000     0.0718     3.8678     3.8678     0.0000
 25 C      6.1818     6.0000    -0.1818     3.8879     3.8879     0.0000
 26 C      6.2075     6.0000    -0.2075     3.8996     3.8996     0.0000
 27 C      5.8266     6.0000     0.1734     3.9926     3.9926     0.0000
 28 C      6.1531     6.0000    -0.1531     3.8885     3.8885     0.0000
 29 C      6.1446     6.0000    -0.1446     3.9097     3.9097    -0.0000
 30 C      5.9837     6.0000     0.0163     3.9108     3.9108     0.0000
 31 N      7.4280     7.0000    -0.4280     2.9603     2.9603    -0.0000
 32 C      5.7900     6.0000     0.2100     3.9231     3.9231    -0.0000
 33 C      6.1710     6.0000    -0.1710     3.8428     3.8428    -0.0000
 34 H      0.6711     1.0000     0.3289     0.8799     0.8799    -0.0000
 35 H      0.7820     1.0000     0.2180     0.9323     0.9323    -0.0000
 36 H      0.8542     1.0000     0.1458     0.9401     0.9401    -0.0000
 37 H      0.8471     1.0000     0.1529     0.9406     0.9406     0.0000
 38 H      0.8497     1.0000     0.1503     0.9412     0.9412     0.0000
 39 H      0.8699     1.0000     0.1301     0.9487     0.9487     0.0000
 40 H      0.8368     1.0000     0.1632     0.9278     0.9278     0.0000
 41 H      0.8541     1.0000     0.1459     0.9360     0.9360    -0.0000
 42 H      0.8340     1.0000     0.1660     0.9389     0.9389    -0.0000
 43 H      0.8647     1.0000     0.1353     0.9434     0.9434    -0.0000
 44 H      0.8634     1.0000     0.1366     0.9379     0.9379     0.0000
 45 H      0.8563     1.0000     0.1437     0.9340     0.9340    -0.0000
 46 H      0.8623     1.0000     0.1377     0.9378     0.9378     0.0000
 47 H      0.8461     1.0000     0.1539     0.9309     0.9309     0.0000
 48 H      0.8236     1.0000     0.1764     0.9469     0.9469    -0.0000

  Mayer bond orders larger than 0.100000
B(  0-O ,  1-C ) :   1.8207 B(  1-C ,  2-N ) :   1.0205 B(  1-C , 24-C ) :   0.9839 
B(  2-N ,  3-C ) :   0.9282 B(  2-N , 34-H ) :   0.8019 B(  3-C ,  4-C ) :   0.9606 
B(  3-C , 14-C ) :   0.9387 B(  3-C , 35-H ) :   0.8838 B(  4-C ,  5-C ) :   1.4121 
B(  4-C , 13-C ) :   1.4259 B(  5-C ,  6-C ) :   1.4302 B(  5-C , 36-H ) :   0.9196 
B(  6-C ,  7-C ) :   1.4089 B(  6-C , 37-H ) :   0.9196 B(  7-C ,  8-C ) :   0.9798 
B(  7-C , 12-C ) :   1.4147 B(  8-C ,  9-F ) :   0.9476 B(  8-C , 10-F ) :   0.9472 
B(  8-C , 11-F ) :   0.9863 B( 12-C , 13-C ) :   1.4229 B( 12-C , 38-H ) :   0.9201 
B( 13-C , 39-H ) :   0.9142 B( 14-C , 15-N ) :   1.3943 B( 14-C , 19-C ) :   1.3410 
B( 15-N , 16-C ) :   1.4183 B( 16-C , 17-C ) :   1.4182 B( 16-C , 40-H ) :   0.9263 
B( 17-C , 18-C ) :   1.4380 B( 17-C , 41-H ) :   0.9232 B( 18-C , 19-C ) :   1.4053 
B( 18-C , 42-H ) :   0.9169 B( 19-C , 20-C ) :   0.9706 B( 20-C , 21-F ) :   0.9769 
B( 20-C , 22-F ) :   0.9410 B( 20-C , 23-F ) :   0.9127 B( 24-C , 25-C ) :   1.2996 
B( 24-C , 33-C ) :   1.4508 B( 25-C , 26-C ) :   1.5027 B( 25-C , 43-H ) :   0.9189 
B( 26-C , 27-C ) :   1.2866 B( 26-C , 33-C ) :   0.1017 B( 26-C , 44-H ) :   0.9233 
B( 27-C , 28-C ) :   1.3026 B( 27-C , 32-C ) :   1.2503 B( 28-C , 29-C ) :   1.5143 
B( 28-C , 45-H ) :   0.9240 B( 29-C , 30-C ) :   1.3204 B( 29-C , 46-H ) :   0.9245 
B( 30-C , 31-N ) :   1.5171 B( 30-C , 47-H ) :   0.9294 B( 31-N , 32-C ) :   1.2430 
B( 32-C , 33-C ) :   1.2684 B( 33-C , 48-H ) :   0.9041 

-------
TIMINGS
-------

Total SCF time: 0 days 0 hours 8 min 19 sec 

Total time                  ....     499.618 sec
Sum of individual times     ....     499.358 sec  ( 99.9%)

SCF preparation             ....       0.352 sec  (  0.1%)
Fock matrix formation       ....     496.620 sec  ( 99.4%)
  Startup                   ....       0.080 sec  (  0.0% of F)
  Split-RI-J                ....      64.425 sec  ( 13.0% of F)
  Chain of spheres X        ....     389.319 sec  ( 78.4% of F)
  XC integration            ....      42.015 sec  (  8.5% of F)
    XC Preparation          ....       0.000 sec  (  0.0% of XC)
    Basis function eval.    ....      15.881 sec  ( 37.8% of XC)
    Density eval.           ....      10.574 sec  ( 25.2% of XC)
    XC-Functional eval.     ....       2.123 sec  (  5.1% of XC)
    XC-Potential eval.      ....      11.591 sec  ( 27.6% of XC)
Diagonalization             ....       0.000 sec  (  0.0%)
Density matrix formation    ....       0.298 sec  (  0.1%)
Total Energy calculation    ....       0.125 sec  (  0.0%)
Population analysis         ....       0.074 sec  (  0.0%)
Orbital Transformation      ....       0.230 sec  (  0.0%)
Orbital Orthonormalization  ....       0.000 sec  (  0.0%)
DIIS solution               ....       1.226 sec  (  0.2%)
SOSCF solution              ....       0.432 sec  (  0.1%)
Finished LeanSCF after 499.7 sec

Maximum memory used throughout the entire LEANSCF-calculation: 81.4 MB

-------------------------   --------------------
FINAL SINGLE POINT ENERGY     -1761.184955774497
-------------------------   --------------------


------------------------------------------------------------------------------
                              ORCA PROPERTY CALCULATIONS
------------------------------------------------------------------------------

GBWName                                 ... /home/nmrbox/aojoawo/Documents/ERDOS/inputs/CHEMBL4245257.gbw
Number of atoms                         ...     49
Number of basis functions               ...    506
Max core memory                         ...   1024 MB

Electric properties:
Dipole moment                           ... YES
Quadrupole moment                       ...  NO
Static polarizability (Dipole/Dipole)   ...  NO
Static polarizability (Dipole/Quad.)    ...  NO
Static polarizability (Quad./Quad.)     ...  NO
Static polarizability (Velocity)        ...  NO

Atomic electric properties:
Dipole moment                           ...  NO
Quadrupole moment                       ...  NO
Static polarizability                   ...  NO

Choice of electric origin               ... Center of mass
Position of electric origin             ...    -1.101357    -0.512756     0.224719

General magnetic properties:
Magnetizability                         ...  NO

EPR properties:
g-Tensor (aka g-matrix)                 ...  NO
Zero-Field splitting spin-orbit         ...  NO
Zero-field splitting spin-spin          ...  NO
Hyperfine couplings                     ...  NO (   0 nuclei)
Quadrupole couplings                    ...  NO (   0 nuclei)
Contact density                         ...  NO (   0 nuclei)

NMR properties:
Chemical shifts                         ...  NO (   0 nuclei)
Spin-rotation constants                 ...  NO (   0 nuclei)
Spin-spin couplings                     ...  NO (   0 nuclei,    0 pairs)

Choice of magnetic origin               ... GIAO
Position of magnetic origin             ...     0.000000     0.000000     0.000000

Properties with geometric perturbations:
SCF Hessian                             ...  NO
IR spectrum                             ...  NO
VCD spectrum                            ...  NO
X-ray spectroscopy properties:
SCF XES/XAS/RIXS spectra                ...  NO


-------------
DIPOLE MOMENT
-------------

Method             : SCF
Type of density    : Electron Density
Multiplicity       :   1
Irrep              :   0
Energy             : -1761.1849557744974391 Eh
Relativity type    : 
Basis              : AO
                                X                 Y                 Z
Electronic contribution:    -37.123038192     -18.277279927       5.864560595
Nuclear contribution   :     37.734111919      18.787816914      -4.444964637
                        -----------------------------------------
Total Dipole Moment    :      0.611073727       0.510536987       1.419595958
                        -----------------------------------------
Magnitude (a.u.)       :      1.627670667
Magnitude (Debye)      :      4.137210045



--------------------
Rotational spectrum 
--------------------
 
Rotational constants in cm-1:             0.005658             0.002012             0.001678 
Rotational constants in MHz :           169.615863            60.325463            50.297880 

Dipole components along the rotational axes: 
x,y,z [a.u.] :     0.809350    -0.346882     1.368919 
x,y,z [Debye]:     2.057203    -0.881703     3.479515 

 

Dipole moment calculation done in   0.0 sec 

Maximum memory used throughout the entire PROP-calculation: 40.3 MB

--------------------------------
SUGGESTED CITATIONS FOR THIS RUN
--------------------------------

Below you find a list of papers that are relevant to this ORCA run
We neither can nor want to force you to cite these papers, but we appreciate if you do
You receive ORCA, which is the product of decades of hard work by many enthusiastic individuals, for free
The only thing we kindly ask in return is that you cite our papers,
We deeply appreciate it, if you show your appreciation for ORCA by not just citing the generic ORCA reference.

Please note that relegating all ORCA citations to the supporting information does *not* help us.
SI sections are not indexed - citations you put there will not count into any citation statistics
But we need these citations in order to attract the funding resources that allow us to do what we are doing

Therefore, if you are a happy ORCA user, please consider citing a few of the papers listed below in the main body of your paper

In addition to the list printed below, the program has created the file /home/nmrbox/aojoawo/Documents/ERDOS/inputs/CHEMBL4245257.bibtex that contains the list in bibtex format
You can import this file easily into all common literature databanks and citation aid programs


List of essential papers. We consider these as the minimum necessary citations

  1. Neese,F.
     Software update: the ORCA program system, version 5.0
     WIRES Comput. Molec. Sci., 2022 12(1)e1606
     doi.org/10.1002/wcms.1606

List of papers to cite with high priority. The work reported in these papers was absolutely
necessary for this run to complete.
Our perspective: the developers of density functionals and basis sets usually get cited in chemistry papers
Good! But without the algorithms to do something with them, the functionals or basis sets would not do anything.
Hence, in our opinion, the algorithm design and method developments papers are equally worthy of getting cited

  1. Neese,F.
     An improvement of the resolution of the identity approximation for the formation of the Coulomb matrix
     J. Comp. Chem., 2003 24(14)1740-1747
     doi.org/10.1002/jcc.10318
  2. Neese,F.; Wennmohs,F.; Hansen,A.; Becker,U.
     Efficient, approximate and parallel Hartree-Fock and hybrid DFT calculations. A 'chain-of-spheres' algorithm for the Hartree-Fock exchange
     Chem. Phys., 2009 356(1-3)98-109
     doi.org/10.1016/j.chemphys.2008.10.036
  3. Helmich-Paris,B.; de Souza,B.; Neese,F.; Izsák,R.
     An improved chain of spheres for exchange algorithm
     J. Chem. Phys., 2021 155 104109
     doi.org/doi: 10.1063/5.0058766.
  4. Neese,F.
     The SHARK Integral Generation and Digestion System
     J. Comp. Chem., 2022  1-16
     doi.org/10.1002/jcc.26942

List of suggested additional citations. These are papers that are important in the 'surrounding' of 
of this run, or papers that preceded the highly important papers. If you like your results we are grateful for a citation.

  1. Izsak,R.; Neese,F.
     An overlap fitted chain of spheres exchange method
     J. Chem. Phys., 2011 135 144105
     doi.org/10.1063/1.3646921
  2. Izsak,R.; Hansen,A.; Neese,F.
     The resolution of identity and chain of spheres approximations for the LPNO-CCSD singles Fock term
     Molec. Phys., 2012 110 2413-2417
     doi.org/10.1080/00268976.2012.687466
  3. Neese,F.
     The ORCA program system
     WIRES Comput. Molec. Sci., 2012 2(1)73-78
     doi.org/10.1002/wcms.81
  4. Izsak,R.; Neese,F.; Klopper,W.
     Robust fitting techniques in the chain of spheres approximation to the Fock exchange: The role of the complementary space
     J. Chem. Phys., 2013 139 
     doi.org/10.1063/1.4819264
  5. Neese,F.
     Software update: the ORCA program system, version 4.0
     WIRES Comput. Molec. Sci., 2018 8(1)1-6
     doi.org/10.1002/wcms.1327
  6. Neese,F.; Wennmohs,F.; Becker,U.; Riplinger,C.
     The ORCA quantum chemistry program package
     J. Chem. Phys., 2020 152 Art. No. L224108
     doi.org/10.1063/5.0004608

List of optional additional citations

  1. Neese,F.
     Approximate second-order SCF convergence for spin unrestricted wavefunctions
     Chem. Phys. Lett., 2000 325(1-3)93-98
     doi.org/10.1016/s0009-2614(00)00662-x

Timings for individual modules:

Sum of individual times          ...      520.807 sec (=   8.680 min)
Startup calculation              ...       13.799 sec (=   0.230 min)   2.6 %
SCF iterations                   ...      506.830 sec (=   8.447 min)  97.3 %
Property calculations            ...        0.178 sec (=   0.003 min)   0.0 %
                             ****ORCA TERMINATED NORMALLY****
TOTAL RUN TIME: 0 days 0 hours 8 minutes 41 seconds 404 msec
