
                                 *****************
                                 * O   R   C   A *
                                 *****************

                                            #,                                       
                                            ###                                      
                                            ####                                     
                                            #####                                    
                                            ######                                   
                                           ########,                                 
                                     ,,################,,,,,                         
                               ,,#################################,,                 
                          ,,##########################################,,             
                       ,#########################################, ''#####,          
                    ,#############################################,,   '####,        
                  ,##################################################,,,,####,       
                ,###########''''           ''''###############################       
              ,#####''   ,,,,##########,,,,          '''####'''          '####       
            ,##' ,,,,###########################,,,                        '##       
           ' ,,###''''                  '''############,,,                           
         ,,##''                                '''############,,,,        ,,,,,,###''
      ,#''                                            '''#######################'''  
     '                                                          ''''####''''         
             ,#######,   #######,   ,#######,      ##                                
            ,#'     '#,  ##    ##  ,#'     '#,    #''#        ,####,   ,####,        
            ##       ##  ##   ,#'  ##            #'  '#       #'       #'  '#        
            ##       ##  #######   ##           ,######,      #####,   #    #        
            '#,     ,#'  ##    ##  '#,     ,#' ,#      #,     #,   #   #,  ,#        
             '#######'   ##     ##  '#######'  #'      '#     '####' # '####'        



                #########################################################
                #                        -***-                          #
                #          Department of theory and spectroscopy        #
                #                                                       #
                #                      Frank Neese                      #
                #                                                       #
                #     Directorship, Architecture, Infrastructure        #
                #                    SHARK, DRIVERS                     #
                #        Core code/Algorithms in most modules           #
                #                                                       #
                #        Max Planck Institute fuer Kohlenforschung      #
                #                Kaiser Wilhelm Platz 1                 #
                #                 D-45470 Muelheim/Ruhr                 #
                #                      Germany                          #
                #                                                       #
                #                  All rights reserved                  #
                #                        -***-                          #
                #########################################################


                         Program Version 6.0.0  -   RELEASE  -


 With contributions from (in alphabetic order):
   Daniel Aravena         : Magnetic Suceptibility
   Michael Atanasov       : Ab Initio Ligand Field Theory (pilot matlab implementation)
   Alexander A. Auer      : GIAO ZORA, VPT2 properties, NMR spectrum
   Ute Becker             : All parallelization in ORCA, NUMFREQ, NUMCALC
   Giovanni Bistoni       : ED, misc. LED, open-shell LED, HFLD
   Martin Brehm           : Molecular dynamics
   Dmytro Bykov           : pre 5.0 version of the SCF Hessian
   Marcos Casanova-Páez   : Triplet and SCS-CIS(D). UHF-(DLPNO)-IP/EA/STEOM-CCSD. UHF-CVS-IP/STEOM-CCSD
   Vijay G. Chilkuri      : MRCI spin determinant printing, contributions to CSF-ICE
   Pauline Colinet        : FMM embedding
   Dipayan Datta          : RHF DLPNO-CCSD density
   Achintya Kumar Dutta   : EOM-CC, STEOM-CC
   Nicolas Foglia         : Exact transition moments, OPA infrastructure, MCD improvements
   Dmitry Ganyushin       : Spin-Orbit,Spin-Spin,Magnetic field MRCI
   Miquel Garcia          : C-PCM and meta-GGA Hessian, CCSD/C-PCM, Gaussian charge scheme
   Tiago L. C. Gouveia    : GS-ROHF, GS-ROCIS
   Yang Guo               : DLPNO-NEVPT2, F12-NEVPT2, CIM, IAO-localization
   Andreas Hansen         : Spin unrestricted coupled pair/coupled cluster methods
   Ingolf Harden          : AUTO-CI MPn and infrastructure 
   Benjamin Helmich-Paris : MC-RPA, TRAH-(SCF,CASSCF), AVAS, COSX integrals, SCF dyn. polar.
   Lee Huntington         : MR-EOM, pCC
   Robert Izsak           : Overlap fitted RIJCOSX, COSX-SCS-MP3, EOM
   Riya Kayal             : Wick's Theorem for AUTO-CI, AUTO-CI UHF-CCSDT
   Emily Kempfer          : AUTO-CI, RHF CISDT and CCSDT
   Christian Kollmar      : KDIIS, OOCD, Brueckner-CCSD(T), CCSD density, CASPT2, CASPT2-K, improved NEVPT2
   Axel Koslowski         : Symmetry handling
   Simone Kossmann        : Meta GGA functionals, TD-DFT gradient, OOMP2, (MP2 Hessian; deprecated post 5.0)
   Lucas Lang             : DCDCAS
   Marvin Lechner         : AUTO-CI (C++ implementation), FIC-MRCC
   Spencer Leger          : CASSCF response
   Dagmar Lenk            : GEPOL surface, SMD, ORCA-2-JSON
   Dimitrios Liakos       : Extrapolation schemes; Compound Job, initial MDCI parallelization
   Dimitrios Manganas     : Further ROCIS development; embedding schemes. LFT, Crystal Embedding
   Dimitrios Pantazis     : SARC Basis sets
   Anastasios Papadopoulos: AUTO-CI, single reference methods and gradients
   Taras Petrenko         : pre 6.0 DFT Hessian and TD-DFT gradient, (ASA, deprecated), ECA, 1-Electron XAS/XES, NRVS
   Peter Pinski           : DLPNO-MP2, DLPNO-MP2 Gradient
   Christoph Reimann      : Effective Core Potentials
   Marius Retegan         : Local ZFS, SOC
   Christoph Riplinger    : Optimizer, TS searches, QM/MM, DLPNO-CCSD(T), (RO)-DLPNO pert. Triples
   Michael Roemelt        : Original ROCIS implementation
   Masaaki Saitow         : Open-shell DLPNO-CCSD energy and density
   Barbara Sandhoefer     : DKH picture change effects
   Kantharuban Sivalingam : CASSCF convergence/infrastructure, NEVPT2 and variants, FIC-MRCI
   Bernardo de Souza      : ESD, SOC TD-DFT
   Georgi Stoychev        : AutoAux, RI-MP2 NMR, DLPNO-MP2 response, X2C
   Van Anh Tran           : RI-MP2 g-tensors
   Willem Van den Heuvel  : Paramagnetic NMR
   Zikuan Wang            : NOTCH, Electric field optimization 
   Frank Wennmohs         : Technical directorship and infrastructure
   Hang Xu                : AUTO-CI-Response properties 


 We gratefully acknowledge several colleagues who have allowed us to
 interface, adapt or use parts of their codes:
   Stefan Grimme, W. Hujo, H. Kruse, P. Pracht,  : VdW corrections, initial TS optimization,
                  C. Bannwarth, S. Ehlert,         DFT functionals, gCP, sTDA/sTD-DF
                  L. Wittmann, M. Mueller
   Ed Valeev, F. Pavosevic, A. Kumar             : LibInt (2-el integral package), F12 methods
   Garnet Chan, S. Sharma, J. Yang, R. Olivares  : DMRG
   Ulf Ekstrom                                   : XCFun DFT Library
   Mihaly Kallay                                 : mrcc  (arbitrary order and MRCC methods)
   Frank Weinhold                                : gennbo (NPA and NBO analysis)
   Simon Mueller                                 : openCOSMO-RS
   Christopher J. Cramer and Donald G. Truhlar   : smd solvation model
   Lars Goerigk                                  : TD-DFT with DH, B97 family of functionals
   V. Asgeirsson, H. Jonsson                     : NEB implementation
   FAccTs GmbH                                   : IRC, NEB, NEB-TS, DLPNO-Multilevel, CI-OPT
                                                   MM, QMMM, 2- and 3-layer-ONIOM, Crystal-QMMM,
                                                   LR-CPCM, SF, NACMEs, symmetry and pop. for TD-DFT,
                                                   nearIR, NL-DFT gradient (VV10), updates on ESD,
                                                   ML-optimized integration grids, MBIS, APM,
                                                   GOAT, DOCKER, SOLVATOR, interface openCOSMO-RS
   S Lehtola, MJT Oliveira, MAL Marques          : LibXC Library
   Liviu Ungur et al                             : ANISO software


 Your calculation uses the libint2 library for the computation of 2-el integrals
 For citations please refer to: http://libint.valeyev.net

 Your ORCA version has been built with support for libXC version: 6.2.2
 For citations please refer to: https://libxc.gitlab.io

 This ORCA versions uses:
   CBLAS   interface :  Fast vector & matrix operations
   LAPACKE interface :  Fast linear algebra routines
   SCALAPACK package :  Parallel linear algebra routines
   Shared memory     :  Shared parallel matrices
   BLAS/LAPACK       :  OpenBLAS 0.3.27  USE64BITINT DYNAMIC_ARCH NO_AFFINITY SkylakeX SINGLE_THREADED
        Core in use  :  SkylakeX
   Copyright (c) 2011-2014, The OpenBLAS Project


Warning: RI is on but no J-basis has been assigned. Assigning Def2/J (nothing to worry about!)
================================================================================

----- Orbital basis set information -----
Your calculation utilizes the basis: 6-31G*
   H-He, Li-Ne : W. J. Hehre, R. Ditchfield and J.A. Pople, J. Chem. Phys. 56, 2257 (1972).
                 Note: He and Ne are unpublished basis sets taken from the Gaussian program.
                 Note: Li and B from J. D. Dill and J. A. Pople, J. Chem. Phys. 62, 2921 (1975).
   Na - Ar     : M. M. Francl, W. J. Pietro, W. J. Hehre, J. S. Binkley, M. S. Gordon, 
                 D. J. DeFrees and J. A. Pople, J. Chem. Phys. 77, 3654 (1982).
   K - Zn      : V. A. Rassolov, J. A. Pople, M. A. Ratner, and T. L. Windus, J. Chem. Phys. 109, 1223 (1998).

----- AuxJ basis set information -----
Your calculation utilizes the auxiliary basis: def2/J
   F. Weigend, Phys. Chem. Chem. Phys. 8, 1057 (2006).

================================================================================
                                        WARNINGS
                       Please study these warnings very carefully!
================================================================================


================================================================================
                                       INPUT FILE
================================================================================
NAME = /home/nmrbox/aojoawo/Documents/ERDOS/inputs/CHEMBL3687375.inp
|  1> ! B3LYP 6-31G* SP
|  2> 
|  3> * xyz 0 1
|  4> C 0.6790 2.9805 0.7706
|  5> C -0.7846 2.7439 0.5152
|  6> C -1.6998 3.7721 0.7995
|  7> C -3.0594 3.6161 0.4946
|  8> C -3.9882 4.6308 0.7627
|  9> C -5.3331 4.4519 0.4199
| 10> C -5.7629 3.2637 -0.1908
| 11> C -4.8454 2.2464 -0.4528
| 12> C -3.4920 2.4184 -0.1097
| 13> N -2.5990 1.4256 -0.3458
| 14> C -1.2698 1.5336 -0.0448
| 15> N -0.4115 0.3965 -0.2846
| 16> C 0.2357 -0.2664 0.8583
| 17> C 1.7502 -0.2362 0.8099
| 18> C 2.4740 0.2653 -0.2886
| 19> C 3.8700 0.2945 -0.2642
| 20> C 4.5788 -0.1756 0.8555
| 21> C 6.0918 -0.1555 0.8685
| 22> F 6.5377 0.2202 2.1238
| 23> F 6.5704 0.7866 -0.0340
| 24> C 6.6236 -1.5705 0.5643
| 25> C 8.0222 -1.6497 -0.0345
| 26> C 6.8025 -1.9256 -0.9061
| 27> C 3.8567 -0.7244 1.9321
| 28> F 4.5032 -1.2487 3.0013
| 29> C 2.4595 -0.7478 1.9085
| 30> S -0.6998 -0.5530 -1.7214
| 31> O -0.9607 0.3612 -2.8854
| 32> O 0.5072 -1.3854 -2.0432
| 33> C -2.0869 -1.6128 -1.4687
| 34> C -1.9178 -2.8405 -0.8179
| 35> C -3.0221 -3.6460 -0.5312
| 36> C -4.3179 -3.2346 -0.8974
| 37> C -5.4891 -4.0679 -0.5531
| 38> O -6.6499 -3.6871 -0.8444
| 39> O -5.3211 -5.2775 0.1102
| 40> C -4.4814 -2.0108 -1.5752
| 41> C -3.3723 -1.2121 -1.8639
| 42> H 0.8887 4.0495 0.9938
| 43> H 1.0217 2.3810 1.6369
| 44> H 1.2611 2.7228 -0.1310
| 45> H -1.3559 4.6997 1.2439
| 46> H -3.6713 5.5584 1.2315
| 47> H -6.0454 5.2364 0.6222
| 48> H -6.8097 3.1344 -0.4590
| 49> H -5.1846 1.3270 -0.9223
| 50> H -0.0918 -1.3251 0.9033
| 51> H -0.1026 0.2015 1.8111
| 52> H 1.9694 0.6484 -1.1678
| 53> H 4.3943 0.6883 -1.1266
| 54> H 6.3489 -2.4215 1.2274
| 55> H 8.5268 -0.6853 -0.2737
| 56> H 8.5916 -2.5630 0.2394
| 57> H 6.5780 -1.1241 -1.6465
| 58> H 6.6607 -3.0021 -1.1418
| 59> H 1.9244 -1.1675 2.7516
| 60> H -0.9313 -3.1679 -0.5198
| 61> H -2.8622 -4.5820 -0.0063
| 62> H -6.1229 -5.8507 0.3469
| 63> H -5.4651 -1.6642 -1.8711
| 64> H -3.5203 -0.2727 -2.3791
| 65> *
| 66> 
| 67>                          ****END OF INPUT****
================================================================================

                       ****************************
                       * Single Point Calculation *
                       ****************************

---------------------------------
CARTESIAN COORDINATES (ANGSTROEM)
---------------------------------
  C      0.679000    2.980500    0.770600
  C     -0.784600    2.743900    0.515200
  C     -1.699800    3.772100    0.799500
  C     -3.059400    3.616100    0.494600
  C     -3.988200    4.630800    0.762700
  C     -5.333100    4.451900    0.419900
  C     -5.762900    3.263700   -0.190800
  C     -4.845400    2.246400   -0.452800
  C     -3.492000    2.418400   -0.109700
  N     -2.599000    1.425600   -0.345800
  C     -1.269800    1.533600   -0.044800
  N     -0.411500    0.396500   -0.284600
  C      0.235700   -0.266400    0.858300
  C      1.750200   -0.236200    0.809900
  C      2.474000    0.265300   -0.288600
  C      3.870000    0.294500   -0.264200
  C      4.578800   -0.175600    0.855500
  C      6.091800   -0.155500    0.868500
  F      6.537700    0.220200    2.123800
  F      6.570400    0.786600   -0.034000
  C      6.623600   -1.570500    0.564300
  C      8.022200   -1.649700   -0.034500
  C      6.802500   -1.925600   -0.906100
  C      3.856700   -0.724400    1.932100
  F      4.503200   -1.248700    3.001300
  C      2.459500   -0.747800    1.908500
  S     -0.699800   -0.553000   -1.721400
  O     -0.960700    0.361200   -2.885400
  O      0.507200   -1.385400   -2.043200
  C     -2.086900   -1.612800   -1.468700
  C     -1.917800   -2.840500   -0.817900
  C     -3.022100   -3.646000   -0.531200
  C     -4.317900   -3.234600   -0.897400
  C     -5.489100   -4.067900   -0.553100
  O     -6.649900   -3.687100   -0.844400
  O     -5.321100   -5.277500    0.110200
  C     -4.481400   -2.010800   -1.575200
  C     -3.372300   -1.212100   -1.863900
  H      0.888700    4.049500    0.993800
  H      1.021700    2.381000    1.636900
  H      1.261100    2.722800   -0.131000
  H     -1.355900    4.699700    1.243900
  H     -3.671300    5.558400    1.231500
  H     -6.045400    5.236400    0.622200
  H     -6.809700    3.134400   -0.459000
  H     -5.184600    1.327000   -0.922300
  H     -0.091800   -1.325100    0.903300
  H     -0.102600    0.201500    1.811100
  H      1.969400    0.648400   -1.167800
  H      4.394300    0.688300   -1.126600
  H      6.348900   -2.421500    1.227400
  H      8.526800   -0.685300   -0.273700
  H      8.591600   -2.563000    0.239400
  H      6.578000   -1.124100   -1.646500
  H      6.660700   -3.002100   -1.141800
  H      1.924400   -1.167500    2.751600
  H     -0.931300   -3.167900   -0.519800
  H     -2.862200   -4.582000   -0.006300
  H     -6.122900   -5.850700    0.346900
  H     -5.465100   -1.664200   -1.871100
  H     -3.520300   -0.272700   -2.379100

----------------------------
CARTESIAN COORDINATES (A.U.)
----------------------------
  NO LB      ZA    FRAG     MASS         X           Y           Z
   0 C     6.0000    0    12.011    1.283124    5.632329    1.456223
   1 C     6.0000    0    12.011   -1.482679    5.185220    0.973587
   2 C     6.0000    0    12.011   -3.212156    7.128236    1.510836
   3 C     6.0000    0    12.011   -5.781428    6.833439    0.934659
   4 C     6.0000    0    12.011   -7.536606    8.750944    1.441294
   5 C     6.0000    0    12.011  -10.078098    8.412872    0.793496
   6 C     6.0000    0    12.011  -10.890303    6.167499   -0.360560
   7 C     6.0000    0    12.011   -9.156479    4.245081   -0.855668
   8 C     6.0000    0    12.011   -6.598924    4.570114   -0.207303
   9 N     7.0000    0    14.007   -4.911398    2.693994   -0.653467
  10 C     6.0000    0    12.011   -2.399574    2.898084   -0.084660
  11 N     7.0000    0    14.007   -0.777622    0.749276   -0.537816
  12 C     6.0000    0    12.011    0.445408   -0.503423    1.621952
  13 C     6.0000    0    12.011    3.307399   -0.446353    1.530489
  14 C     6.0000    0    12.011    4.675182    0.501344   -0.545375
  15 C     6.0000    0    12.011    7.313240    0.556524   -0.499266
  16 C     6.0000    0    12.011    8.652678   -0.331836    1.616661
  17 C     6.0000    0    12.011   11.511834   -0.293852    1.641227
  18 F     9.0000    0    18.998   12.354463    0.416118    4.013400
  19 F     9.0000    0    18.998   12.416257    1.486459   -0.064251
  20 C     6.0000    0    12.011   12.516790   -2.967815    1.066372
  21 C     6.0000    0    12.011   15.159761   -3.117481   -0.065196
  22 C     6.0000    0    12.011   12.854862   -3.638857   -1.712281
  23 C     6.0000    0    12.011    7.288107   -1.368918    3.651140
  24 F     9.0000    0    18.998    8.509815   -2.359701    5.671635
  25 C     6.0000    0    12.011    4.647781   -1.413137    3.606542
  26 S    16.0000    0    32.060   -1.322430   -1.045019   -3.252975
  27 O     8.0000    0    15.999   -1.815460    0.682569   -5.452616
  28 O     8.0000    0    15.999    0.958469   -2.618027   -3.861088
  29 C     6.0000    0    12.011   -3.943669   -3.047750   -2.775441
  30 C     6.0000    0    12.011   -3.624117   -5.367767   -1.545607
  31 C     6.0000    0    12.011   -5.710941   -6.889941   -1.003823
  32 C     6.0000    0    12.011   -8.159648   -6.112508   -1.695840
  33 C     6.0000    0    12.011  -10.372896   -7.687217   -1.045208
  34 O     8.0000    0    15.999  -12.566490   -6.967609   -1.595685
  35 O     8.0000    0    15.999  -10.055422   -9.973030    0.208248
  36 C     6.0000    0    12.011   -8.468619   -3.799861   -2.976697
  37 C     6.0000    0    12.011   -6.372723   -2.290537   -3.522261
  38 H     1.0000    0     1.008    1.679400    7.652446    1.878010
  39 H     1.0000    0     1.008    1.930733    4.499438    3.093293
  40 H     1.0000    0     1.008    2.383134    5.145346   -0.247554
  41 H     1.0000    0     1.008   -2.562280    8.881146    2.350630
  42 H     1.0000    0     1.008   -6.937752   10.503854    2.327198
  43 H     1.0000    0     1.008  -11.424150    9.895362    1.175788
  44 H     1.0000    0     1.008  -12.868468    5.923158   -0.867384
  45 H     1.0000    0     1.008   -9.797474    2.507667   -1.742894
  46 H     1.0000    0     1.008   -0.173477   -2.504076    1.706990
  47 H     1.0000    0     1.008   -0.193886    0.380780    3.422483
  48 H     1.0000    0     1.008    3.721627    1.225298   -2.206822
  49 H     1.0000    0     1.008    8.304024    1.300698   -2.128965
  50 H     1.0000    0     1.008   11.997682   -4.575972    2.319450
  51 H     1.0000    0     1.008   16.113317   -1.295029   -0.517218
  52 H     1.0000    0     1.008   16.235771   -4.843368    0.452400
  53 H     1.0000    0     1.008   12.430619   -2.124241   -3.111434
  54 H     1.0000    0     1.008   12.586899   -5.673147   -2.157689
  55 H     1.0000    0     1.008    3.636589   -2.206255    5.199770
  56 H     1.0000    0     1.008   -1.759902   -5.986463   -0.982280
  57 H     1.0000    0     1.008   -5.408774   -8.658725   -0.011905
  58 H     1.0000    0     1.008  -11.570604  -11.056221    0.655546
  59 H     1.0000    0     1.008  -10.327542   -3.144882   -3.535867
  60 H     1.0000    0     1.008   -6.652403   -0.515328   -4.495847

--------------------------------
INTERNAL COORDINATES (ANGSTROEM)
--------------------------------
 C      0   0   0     0.000000000000     0.00000000     0.00000000
 C      1   0   0     1.504437994734     0.00000000     0.00000000
 C      2   1   0     1.405564929130   118.95146893     0.00000000
 C      3   2   1     1.402074238405   120.39931518   175.95346085
 C      4   3   2     1.401486047023   121.36523664   180.34685510
 C      5   4   3     1.399383099798   119.83486349   178.68114342
 C      6   5   4     1.403389386450   120.60877970     0.00000000
 C      7   6   5     1.394757878630   119.85556180     0.38255072
 C      8   7   6     1.406766920993   119.85939385   359.69058962
 N      9   8   7     1.356039840860   120.10419258   179.11611364
 C     10   9   8     1.367127514170   122.96286289   179.52436092
 N     11  10   9     1.444707354449   118.61327875   177.43406984
 C     12  11  10     1.471232360982   119.14634725   244.51503239
 C     13  12  11     1.515574099145   113.94158325   241.10986790
 C     14  13  12     1.407867515074   123.07676393   354.21527582
 C     15  14  13     1.396518528341   120.51310305   178.58475799
 C     16  15  14     1.406100828533   120.71876983     0.00000000
 C     17  16  15     1.513189350346   120.42607520   179.29891428
 F     18  17  16     1.384108156901   109.48218695   140.24479939
 F     18  17  16     1.389646221166   110.35201048    22.60654812
 C     18  17  16     1.541938351556   109.32722664   258.95025960
 C     21  18  17     1.523455296358   116.22361020   155.06572967
 C     21  18  17     1.523212847897   116.41597217    87.20596402
 C     17  16  15     1.407720643452   118.73572533     2.41038477
 F     24  17  16     1.355006044267   120.63552118   176.73591160
 C     24  17  16     1.397595206059   120.42598510   357.32925066
 S     12  11  10     1.746156172855   117.80582275    38.45999553
 O     27  12  11     1.502906001718   109.58357709    42.97796674
 O     27  12  11     1.501097598426   110.19229711   161.82005813
 C     27  12  11     1.763825314480   109.79639860   282.21260026
 C     30  27  12     1.399779532641   119.90710602   276.65008286
 C     31  30  27     1.396605037224   120.38282004   175.61590812
 C     32  31  30     1.407995042605   120.38339240     0.21146895
 C     33  32  31     1.478053050469   120.26080514   182.02600012
 O     34  33  32     1.255914395968   120.49162347   177.99337842
 O     34  33  32     1.389720493481   120.40446705   358.66778637
 C     33  32  31     1.408485544832   119.06937001     1.01259848
 C     37  33  32     1.396915240807   120.27020079   359.24678556
 H      1   2   3     1.112004195136   111.63672237   349.41213137
 H      1   2   3     1.107844406945   110.40102178   109.24801595
 H      1   2   3     1.103690291703   109.73653873   231.20979097
 H      3   2   1     1.084527699047   120.13797738   356.86125542
 H      5   4   3     1.086572965797   120.48673957   358.93939394
 H      6   5   4     1.078766346342   119.71436376   180.33628251
 H      7   6   5     1.088319792157   120.15911884   180.31724525
 H      8   7   6     1.086638509349   119.53399998   179.76061015
 H     13  12  11     1.109110878136   109.37310766   119.64895906
 H     13  12  11     1.114093864986   109.97152023     3.56622457
 H     15  14  13     1.083687874805   121.30315566   359.30340991
 H     16  15  14     1.083375599688   118.51981987   180.07398308
 H     21  18  17     1.113266679641   119.92565191   300.64531710
 H     22  21  18     1.114407986332   117.06908224   355.85587442
 H     22  21  18     1.110564928314   114.61419366   148.96314768
 H     23  21  18     1.113999398564   116.75586983     2.53828809
 H     23  21  18     1.111086846291   114.56082646   210.47508825
 H     26  24  17     1.083188677009   119.15728713   180.50572173
 H     31  30  27     1.081312452532   120.26129776   356.47704861
 H     32  31  30     1.084981115043   118.70781801   181.33990058
 H     36  34  33     1.013641144587   120.53235842   180.02699089
 H     37  33  32     1.084137472833   120.96087593   180.03122811
 H     38  37  33     1.081576349593   119.10435957   180.42091574

---------------------------
INTERNAL COORDINATES (A.U.)
---------------------------
 C      0   0   0     0.000000000000     0.00000000     0.00000000
 C      1   0   0     2.842975795513     0.00000000     0.00000000
 C      2   1   0     2.656132779500   118.95146893     0.00000000
 C      3   2   1     2.649536330012   120.39931518   175.95346085
 C      4   3   2     2.648424809385   121.36523664   180.34685510
 C      5   4   3     2.644450815056   119.83486349   178.68114342
 C      6   5   4     2.652021599642   120.60877970     0.00000000
 C      7   6   5     2.635710413739   119.85556180     0.38255072
 C      8   7   6     2.658404214936   119.85939385   359.69058962
 N      9   8   7     2.562543925912   120.10419258   179.11611364
 C     10   9   8     2.583496591929   122.96286289   179.52436092
 N     11  10   9     2.730101243571   118.61327875   177.43406984
 C     12  11  10     2.780226241618   119.14634725   244.51503239
 C     13  12  11     2.864019983049   113.94158325   241.10986790
 C     14  13  12     2.660484036334   123.07676393   354.21527582
 C     15  14  13     2.639037559511   120.51310305   178.58475799
 C     16  15  14     2.657145482606   120.71876983     0.00000000
 C     17  16  15     2.859513460920   120.42607520   179.29891428
 F     18  17  16     2.615585356269   109.48218695   140.24479939
 F     18  17  16     2.626050781042   110.35201048    22.60654812
 C     18  17  16     2.913841199831   109.32722664   258.95025960
 C     21  18  17     2.878913287388   116.22361020   155.06572967
 C     21  18  17     2.878455126197   116.41597217    87.20596402
 C     17  16  15     2.660206489191   118.73572533     2.41038477
 F     24  17  16     2.560590333473   120.63552118   176.73591160
 C     24  17  16     2.641072185533   120.42598510   357.32925066
 S     12  11  10     3.299756953752   117.80582275    38.45999553
 O     27  12  11     2.840080748274   109.58357709    42.97796674
 O     27  12  11     2.836663361312   110.19229711   161.82005813
 C     27  12  11     3.333146792444   109.79639860   282.21260026
 C     30  27  12     2.645199964559   119.90710602   276.65008286
 C     31  30  27     2.639201037609   120.38282004   175.61590812
 C     32  31  30     2.660725028442   120.38339240     0.21146895
 C     33  32  31     2.793115476793   120.26080514   182.02600012
 O     34  33  32     2.373334256029   120.49162347   177.99337842
 O     34  33  32     2.626191135376   120.40446705   358.66778637
 C     33  32  31     2.661651943319   119.06937001     1.01259848
 C     37  33  32     2.639787237427   120.27020079   359.24678556
 H      1   2   3     2.101383388579   111.63672237   349.41213137
 H      1   2   3     2.093522528123   110.40102178   109.24801595
 H      1   2   3     2.085672387987   109.73653873   231.20979097
 H      3   2   1     2.049460335850   120.13797738   356.86125542
 H      5   4   3     2.053325329878   120.48673957   358.93939394
 H      6   5   4     2.038572957077   119.71436376   180.33628251
 H      7   6   5     2.056626353302   120.15911884   180.31724525
 H      8   7   6     2.053449189242   119.53399998   179.76061015
 H     13  12  11     2.095915811830   109.37310766   119.64895906
 H     13  12  11     2.105332292306   109.97152023     3.56622457
 H     15  14  13     2.047873298033   121.30315566   359.30340991
 H     16  15  14     2.047283183584   118.51981987   180.07398308
 H     21  18  17     2.103769138542   119.92565191   300.64531710
 H     22  21  18     2.105925895622   117.06908224   355.85587442
 H     22  21  18     2.098663568450   114.61419366   148.96314768
 H     23  21  18     2.105153776638   116.75586983     2.53828809
 H     23  21  18     2.099649850491   114.56082646   210.47508825
 H     26  24  17     2.046929950911   119.15728713   180.50572173
 H     31  30  27     2.043384400484   120.26129776   356.47704861
 H     32  31  30     2.050317167908   118.70781801   181.33990058
 H     36  34  33     1.915504161344   120.53235842   180.02699089
 H     37  33  32     2.048722915175   120.96087593   180.03122811
 H     38  37  33     2.043883093658   119.10435957   180.42091574

---------------------
BASIS SET INFORMATION
---------------------
There are 6 groups of distinct atoms

 Group   1 Type C   : 10s4p1d contracted to 3s2p1d pattern {631/31/1}
 Group   2 Type N   : 10s4p1d contracted to 3s2p1d pattern {631/31/1}
 Group   3 Type F   : 10s4p1d contracted to 3s2p1d pattern {631/31/1}
 Group   4 Type S   : 16s10p1d contracted to 4s3p1d pattern {6631/631/1}
 Group   5 Type O   : 10s4p1d contracted to 3s2p1d pattern {631/31/1}
 Group   6 Type H   : 4s contracted to 2s pattern {31}

Atom   0C    basis set group =>   1
Atom   1C    basis set group =>   1
Atom   2C    basis set group =>   1
Atom   3C    basis set group =>   1
Atom   4C    basis set group =>   1
Atom   5C    basis set group =>   1
Atom   6C    basis set group =>   1
Atom   7C    basis set group =>   1
Atom   8C    basis set group =>   1
Atom   9N    basis set group =>   2
Atom  10C    basis set group =>   1
Atom  11N    basis set group =>   2
Atom  12C    basis set group =>   1
Atom  13C    basis set group =>   1
Atom  14C    basis set group =>   1
Atom  15C    basis set group =>   1
Atom  16C    basis set group =>   1
Atom  17C    basis set group =>   1
Atom  18F    basis set group =>   3
Atom  19F    basis set group =>   3
Atom  20C    basis set group =>   1
Atom  21C    basis set group =>   1
Atom  22C    basis set group =>   1
Atom  23C    basis set group =>   1
Atom  24F    basis set group =>   3
Atom  25C    basis set group =>   1
Atom  26S    basis set group =>   4
Atom  27O    basis set group =>   5
Atom  28O    basis set group =>   5
Atom  29C    basis set group =>   1
Atom  30C    basis set group =>   1
Atom  31C    basis set group =>   1
Atom  32C    basis set group =>   1
Atom  33C    basis set group =>   1
Atom  34O    basis set group =>   5
Atom  35O    basis set group =>   5
Atom  36C    basis set group =>   1
Atom  37C    basis set group =>   1
Atom  38H    basis set group =>   6
Atom  39H    basis set group =>   6
Atom  40H    basis set group =>   6
Atom  41H    basis set group =>   6
Atom  42H    basis set group =>   6
Atom  43H    basis set group =>   6
Atom  44H    basis set group =>   6
Atom  45H    basis set group =>   6
Atom  46H    basis set group =>   6
Atom  47H    basis set group =>   6
Atom  48H    basis set group =>   6
Atom  49H    basis set group =>   6
Atom  50H    basis set group =>   6
Atom  51H    basis set group =>   6
Atom  52H    basis set group =>   6
Atom  53H    basis set group =>   6
Atom  54H    basis set group =>   6
Atom  55H    basis set group =>   6
Atom  56H    basis set group =>   6
Atom  57H    basis set group =>   6
Atom  58H    basis set group =>   6
Atom  59H    basis set group =>   6
Atom  60H    basis set group =>   6
---------------------------------
AUXILIARY/J BASIS SET INFORMATION
---------------------------------
There are 6 groups of distinct atoms

 Group   1 Type C   : 12s5p4d2f1g contracted to 6s4p3d1f1g pattern {711111/2111/211/2/1}
 Group   2 Type N   : 12s5p4d2f1g contracted to 6s4p3d1f1g pattern {711111/2111/211/2/1}
 Group   3 Type F   : 12s5p4d2f1g contracted to 6s4p3d1f1g pattern {711111/2111/211/2/1}
 Group   4 Type S   : 14s5p5d2f1g contracted to 8s4p3d1f1g pattern {71111111/2111/311/2/1}
 Group   5 Type O   : 12s5p4d2f1g contracted to 6s4p3d1f1g pattern {711111/2111/211/2/1}
 Group   6 Type H   : 5s2p1d contracted to 3s1p1d pattern {311/2/1}

Atom   0C    basis set group =>   1
Atom   1C    basis set group =>   1
Atom   2C    basis set group =>   1
Atom   3C    basis set group =>   1
Atom   4C    basis set group =>   1
Atom   5C    basis set group =>   1
Atom   6C    basis set group =>   1
Atom   7C    basis set group =>   1
Atom   8C    basis set group =>   1
Atom   9N    basis set group =>   2
Atom  10C    basis set group =>   1
Atom  11N    basis set group =>   2
Atom  12C    basis set group =>   1
Atom  13C    basis set group =>   1
Atom  14C    basis set group =>   1
Atom  15C    basis set group =>   1
Atom  16C    basis set group =>   1
Atom  17C    basis set group =>   1
Atom  18F    basis set group =>   3
Atom  19F    basis set group =>   3
Atom  20C    basis set group =>   1
Atom  21C    basis set group =>   1
Atom  22C    basis set group =>   1
Atom  23C    basis set group =>   1
Atom  24F    basis set group =>   3
Atom  25C    basis set group =>   1
Atom  26S    basis set group =>   4
Atom  27O    basis set group =>   5
Atom  28O    basis set group =>   5
Atom  29C    basis set group =>   1
Atom  30C    basis set group =>   1
Atom  31C    basis set group =>   1
Atom  32C    basis set group =>   1
Atom  33C    basis set group =>   1
Atom  34O    basis set group =>   5
Atom  35O    basis set group =>   5
Atom  36C    basis set group =>   1
Atom  37C    basis set group =>   1
Atom  38H    basis set group =>   6
Atom  39H    basis set group =>   6
Atom  40H    basis set group =>   6
Atom  41H    basis set group =>   6
Atom  42H    basis set group =>   6
Atom  43H    basis set group =>   6
Atom  44H    basis set group =>   6
Atom  45H    basis set group =>   6
Atom  46H    basis set group =>   6
Atom  47H    basis set group =>   6
Atom  48H    basis set group =>   6
Atom  49H    basis set group =>   6
Atom  50H    basis set group =>   6
Atom  51H    basis set group =>   6
Atom  52H    basis set group =>   6
Atom  53H    basis set group =>   6
Atom  54H    basis set group =>   6
Atom  55H    basis set group =>   6
Atom  56H    basis set group =>   6
Atom  57H    basis set group =>   6
Atom  58H    basis set group =>   6
Atom  59H    basis set group =>   6
Atom  60H    basis set group =>   6
------------------------------------------------------------------------------
                             ORCA STARTUP CALCULATIONS
                           -- RI-GTO INTEGRALS CHOSEN --
------------------------------------------------------------------------------
------------------------------------------------------------------------------
                   ___                                                        
                  /   \      - P O W E R E D   B Y -                         
                 /     \                                                     
                 |  |  |   _    _      __       _____    __    __             
                 |  |  |  | |  | |    /  \     |  _  \  |  |  /  |          
                  \  \/   | |  | |   /    \    | | | |  |  | /  /          
                 / \  \   | |__| |  /  /\  \   | |_| |  |  |/  /          
                |  |  |   |  __  | /  /__\  \  |    /   |      \           
                |  |  |   | |  | | |   __   |  |    \   |  |\   \          
                \     /   | |  | | |  |  |  |  | |\  \  |  | \   \       
                 \___/    |_|  |_| |__|  |__|  |_| \__\ |__|  \__/        
                                                                              
                      - O R C A' S   B I G   F R I E N D -                    
                                      &                                       
                       - I N T E G R A L  F E E D E R -                       
                                                                              
 v1 FN, 2020, v2 2021, v3 2022-2024                                           
------------------------------------------------------------------------------


----------------------
SHARK INTEGRAL PACKAGE
----------------------

Number of atoms                             ...     61
Number of basis functions                   ...    582
Number of shells                            ...    276
Maximum angular momentum                    ...      2
Integral batch strategy                     ... SHARK/LIBINT Hybrid
RI-J (if used) integral strategy            ... SPLIT-RIJ (Revised 2003 algorithm where possible)
Printlevel                                  ...      1
Contraction scheme used                     ... SEGMENTED contraction
Prescreening option                         ... SCHWARTZ
   Thresh                                   ... 1.000e-10
   Tcut                                     ... 1.000e-11
   Tpresel                                  ... 1.000e-11 
Coulomb Range Separation                    ... NOT USED
Exchange Range Separation                   ... NOT USED
Multipole approximations                    ... NOT USED
Finite Nucleus Model                        ... NOT USED
CABS basis                                  ... NOT available
Auxiliary Coulomb fitting basis             ... AVAILABLE
   # of basis functions in Aux-J            ...   2117
   # of shells in Aux-J                     ...    687
   Maximum angular momentum in Aux-J        ...      4
Auxiliary J/K fitting basis                 ... NOT available
Auxiliary Correlation fitting basis         ... NOT available
Auxiliary 'external' fitting basis          ... NOT available

Checking pre-screening integrals            ... done (  0.0 sec) Dimension = 276
Check shell pair data                       ... done (  0.0 sec)
Shell pair information
Shell pair cut-off parameter TPreSel        ...   1.0e-11
Total number of shell pairs                 ...     38226
Shell pairs after pre-screening             ...     19021
Total number of primitive shell pairs       ...    228372
Primitive shell pairs kept                  ...     58082
          la=0 lb=0:   6055 shell pairs
          la=1 lb=0:   6759 shell pairs
          la=1 lb=1:   1881 shell pairs
          la=2 lb=0:   2546 shell pairs
          la=2 lb=1:   1501 shell pairs
          la=2 lb=2:    279 shell pairs

Calculating one electron integrals          ... done (  0.3 sec)
Calculating RI/J V-Matrix + Cholesky decomp.... done (  0.6 sec)
Calculating Nuclear repulsion               ... done (  0.0 sec) ENN=   4333.059595613421 Eh

Diagonalization of the overlap matrix:
Smallest eigenvalue                        ... 3.906e-04
Time for diagonalization                   ...    0.063 sec
Threshold for overlap eigenvalues          ... 1.000e-07
Number of eigenvalues below threshold      ... 0
Time for construction of square roots      ...    0.050 sec
Total time needed                          ...    0.123 sec

-------------------
DFT GRID GENERATION
-------------------

General Integration Accuracy     IntAcc      ... 4.388
Radial Grid Type                 RadialGrid  ... OptM3 with GC (2021)
Angular Grid (max. ang.)         AngularGrid ... 4 (Lebedev-302)
Angular grid pruning method      GridPruning ... 4 (adaptive)
Weight generation scheme         WeightScheme... mBecke (2022)
Basis function cutoff            BFCut       ... 1.0000e-10
Integration weight cutoff        WCut        ... 1.0000e-14
Partially contracted basis set               ... off
Rotationally invariant grid construction     ... off
Angular grids for H and He will be reduced by one unit

Total number of grid points                  ...   301181
Total number of batches                      ...     4736
Average number of points per batch           ...       63
Average number of grid points per atom       ...     4937

--------------------
COSX GRID GENERATION
--------------------

GRIDX 1
-------
General Integration Accuracy     IntAcc      ... 3.816
Radial Grid Type                 RadialGrid  ... OptM3 with GC (2021)
Angular Grid (max. ang.)         AngularGrid ... 1 (Lebedev-50)
Angular grid pruning method      GridPruning ... 4 (adaptive)
Weight generation scheme         WeightScheme... mBecke (2022)
Basis function cutoff            BFCut       ... 1.0000e-10
Integration weight cutoff        WCut        ... 1.0000e-14
Partially contracted basis set               ... on
Rotationally invariant grid construction     ... off
Angular grids for H and He will be reduced by one unit

Total number of grid points                  ...    39142
Total number of batches                      ...      339
Average number of points per batch           ...      115
Average number of grid points per atom       ...      642
UseSFitting                                  ... on

GRIDX 2
-------
General Integration Accuracy     IntAcc      ... 4.020
Radial Grid Type                 RadialGrid  ... OptM3 with GC (2021)
Angular Grid (max. ang.)         AngularGrid ... 2 (Lebedev-110)
Angular grid pruning method      GridPruning ... 4 (adaptive)
Weight generation scheme         WeightScheme... mBecke (2022)
Basis function cutoff            BFCut       ... 1.0000e-10
Integration weight cutoff        WCut        ... 1.0000e-14
Partially contracted basis set               ... on
Rotationally invariant grid construction     ... off
Angular grids for H and He will be reduced by one unit

Total number of grid points                  ...    83368
Total number of batches                      ...      683
Average number of points per batch           ...      122
Average number of grid points per atom       ...     1367
UseSFitting                                  ... on

GRIDX 3
-------
General Integration Accuracy     IntAcc      ... 4.338
Radial Grid Type                 RadialGrid  ... OptM3 with GC (2021)
Angular Grid (max. ang.)         AngularGrid ... 3 (Lebedev-194)
Angular grid pruning method      GridPruning ... 4 (adaptive)
Weight generation scheme         WeightScheme... mBecke (2022)
Basis function cutoff            BFCut       ... 1.0000e-10
Integration weight cutoff        WCut        ... 1.0000e-14
Partially contracted basis set               ... on
Rotationally invariant grid construction     ... off
Angular grids for H and He will be reduced by one unit

Total number of grid points                  ...   182747
Total number of batches                      ...     1456
Average number of points per batch           ...      125
Average number of grid points per atom       ...     2996
UseSFitting                                  ... on
Initializing property integral containers    ... done (  0.0 sec)

SHARK setup successfully completed in  17.6 seconds

Maximum memory used throughout the entire STARTUP-calculation: 130.8 MB
-------------------------------------------------------------------------------
                                 ORCA GUESS
                   Start orbitals & Density for SCF / CASSCF
-------------------------------------------------------------------------------

------------
SCF SETTINGS
------------
Hamiltonian:
 Density Functional     Method          .... DFT(GTOs)
 Exchange Functional    Exchange        .... B88
   X-Alpha parameter    XAlpha          ....  0.666667
   Becke's b parameter  XBeta           ....  0.004200
 Correlation Functional Correlation     .... LYP
 LDA part of GGA corr.  LDAOpt          .... VWN-5
 Gradients option       PostSCFGGA      .... off
 Hybrid DFT is turned on
   Fraction HF Exchange ScalHFX         ....  0.200000
   Scaling of DF-GGA-X  ScalDFX         ....  0.720000
   Scaling of DF-GGA-C  ScalDFC         ....  0.810000
   Scaling of DF-LDA-C  ScalLDAC        ....  1.000000
   Perturbative correction              ....  0.000000
   NL short-range parameter             ....  4.800000
 RI-approximation to the Coulomb term is turned on
   Number of AuxJ basis functions       .... 2117
   RIJ-COSX (HFX calculated with COS-X)).... on


General Settings:
 Integral files         IntName         .... /home/nmrbox/aojoawo/Documents/ERDOS/inputs/CHEMBL3687375
 Hartree-Fock type      HFTyp           .... RHF
 Total Charge           Charge          ....    0
 Multiplicity           Mult            ....    1
 Number of Electrons    NEL             ....  280
 Basis Dimension        Dim             ....  582
 Nuclear Repulsion      ENuc            ....   4333.0595956134 Eh

Convergence Acceleration:
 AO-DIIS                CNVDIIS         .... on
   Start iteration      DIISMaxIt       ....    12
   Startup error        DIISStart       ....  0.200000
   # of expansion vecs  DIISMaxEq       ....     5
   Bias factor          DIISBfac        ....   1.050
   Max. coefficient     DIISMaxC        ....  10.000
 MO-DIIS                CNVKDIIS        .... off
 Trust-Rad. Augm. Hess. CNVTRAH         .... auto
   Auto Start mean grad. ratio tolernc. ....  1.125000
   Auto Start start iteration           ....    50
   Auto Start num. interpolation iter.  ....    10
   Max. Number of Micro iterations      ....    24
   Max. Number of Macro iterations      .... Maxiter - #DIIS iter
   Number of Davidson start vectors     ....     2
   Converg. threshold    (grad. norm)   ....   5.000e-05
   Grad. Scal. Fac. for Micro threshold ....   0.100
   Minimum threshold for Micro iter.    ....   1.000e-02
   NR start threshold (gradient norm)   ....   1.000e-04
   Initial trust radius                 ....   0.400
   Minimum AH scaling param. (alpha)    ....   1.000
   Maximum AH scaling param. (alpha)    .... 1000.000
   Quad. conv. algorithm                .... NR
   White noise on init. David. guess    .... on
   Maximum white noise                  ....   0.010
   Pseudo random numbers                .... off
   Inactive MOs                         .... canonical
   Orbital update algorithm             .... Taylor
   Preconditioner                       .... Diag
   Full preconditioner red. dimension   ....   250
 SOSCF                  CNVSOSCF        .... on
   Start iteration      SOSCFMaxIt      ....   150
   Startup grad/error   SOSCFStart      ....  0.003300
   Hessian update       SOSCFHessUp     .... L-BFGS
 Level Shifting         CNVShift        .... on
   Level shift para.    LevelShift      ....    0.2500
   Turn off err/grad.   ShiftErr        ....    0.0010
 Zerner damping         CNVZerner       .... off
 Static damping         CNVDamp         .... on
   Fraction old density DampFac         ....    0.7000
   Max. Damping (<1)    DampMax         ....    0.9800
   Min. Damping (>=0)   DampMin         ....    0.0000
   Turn off err/grad.   DampErr         ....    0.1000

SCF Procedure:
 Maximum # iterations   MaxIter         ....   125
 SCF integral mode      SCFMode         .... Direct
   Integral package                     .... SHARK and LIBINT hybrid scheme
 Reset frequency        DirectResetFreq ....    20
 Integral Threshold     Thresh          ....  1.000e-10 Eh
 Primitive CutOff       TCut            ....  1.000e-11 Eh

Convergence Tolerance:
 Convergence Check Mode ConvCheckMode   .... Total+1el-Energy
 Convergence forced     ConvForced      .... 0
 Energy Change          TolE            ....  1.000e-06 Eh
 1-El. energy change                    ....  1.000e-03 Eh
 Orbital Gradient       TolG            ....  5.000e-05
 Orbital Rotation angle TolX            ....  5.000e-05
 DIIS Error             TolErr          ....  1.000e-06

------------------------------
INITIAL GUESS: MODEL POTENTIAL
------------------------------
Loading Hartree-Fock densities                     ... done
Calculating cut-offs                               ... done
Initializing the effective Hamiltonian             ... done
Setting up the integral package (SHARK)            ... done
Starting the Coulomb interaction                   ... done (   5.8 sec)
Making the grid                                    ... done (   2.2 sec)
Mapping shells                                     ... done
Starting the XC term evaluation                    ... done (   1.6 sec)
  promolecular density results
     # of electrons  =    279.996789259
     EX              =   -251.912965540
     EC              =     -9.820756270
     EX+EC           =   -261.733721810
Transforming the Hamiltonian                       ... done (   0.0 sec)
Diagonalizing the Hamiltonian                      ... done (   0.1 sec)
Back transforming the eigenvectors                 ... done (   0.0 sec)
Now organizing SCF variables                       ... done
                      ------------------
                      INITIAL GUESS DONE (   9.7 sec)
                      ------------------
             **** ENERGY FILE WAS UPDATED (/home/nmrbox/aojoawo/Documents/ERDOS/inputs/CHEMBL3687375.en.tmp) ****
Finished Guess after  10.1 sec
Maximum memory used throughout the entire GUESS-calculation: 71.9 MB

-------------------------------------------------------------------------------------------
                                      ORCA LEAN-SCF
                              memory conserving SCF solver
-------------------------------------------------------------------------------------------

----------------------------------------D-I-I-S--------------------------------------------
Iteration    Energy (Eh)           Delta-E    RMSDP     MaxDP     DIISErr   Damp  Time(sec)
-------------------------------------------------------------------------------------------
               ***  Starting incremental Fock matrix formation  ***
    1    -2186.7022986960919297     0.00e+00  2.29e-03  1.92e-01  3.00e-01  0.700  95.0
    2    -2187.2005080123490188    -4.98e-01  1.38e-03  7.81e-02  9.82e-02  0.700  41.1
                               ***Turning on AO-DIIS***
    3    -2187.3710175242995319    -1.71e-01  5.46e-04  1.80e-02  3.59e-02  0.700  40.0
    4    -2187.4838357727958282    -1.13e-01  9.20e-04  3.38e-02  1.54e-02  0.000  37.7
    5    -2187.7368491231027292    -2.53e-01  2.20e-04  8.24e-03  8.03e-03  0.000  39.5
                              *** Initializing SOSCF ***
---------------------------------------S-O-S-C-F--------------------------------------
Iteration    Energy (Eh)           Delta-E    RMSDP     MaxDP     MaxGrad    Time(sec)
--------------------------------------------------------------------------------------
    6    -2187.7387789577633157    -1.93e-03  7.06e-05  2.49e-03  2.38e-03    34.0
               *** Restarting incremental Fock matrix formation ***
    7    -2187.7387806583728889    -1.70e-06  6.04e-05  2.93e-03  5.67e-04    91.8
    8    -2187.7387344079206741     4.63e-05  3.67e-05  2.21e-03  9.38e-04    45.2
    9    -2187.7388087101671772    -7.43e-05  1.38e-05  8.85e-04  1.17e-04    39.9
   10    -2187.7388054330949672     3.28e-06  8.65e-06  5.84e-04  3.03e-04    33.8
   11    -2187.7388101334845487    -4.70e-06  2.69e-06  1.29e-04  3.37e-05    30.8
   12    -2187.7388101946462484    -6.12e-08  1.57e-06  8.72e-05  4.42e-05    24.3
                 **** Energy Check signals convergence ****

               *****************************************************
               *                     SUCCESS                       *
               *           SCF CONVERGED AFTER  12 CYCLES          *
               *****************************************************

Recomputing exchange energy using gridx3       ... done (  140.991 sec)
Old exchange energy                            :    -50.930953255 Eh
New exchange energy                            :    -50.930988041 Eh
Exchange energy change after final integration :     -0.000034786 Eh
Total energy after final integration           :  -2187.738844981 Eh
             **** ENERGY FILE WAS UPDATED (/home/nmrbox/aojoawo/Documents/ERDOS/inputs/CHEMBL3687375.en.tmp) ****

----------------
TOTAL SCF ENERGY
----------------

Total Energy       :      -2187.73884498073539 Eh          -59531.40049 eV

Components:
Nuclear Repulsion  :       4333.05959561342115 Eh          117908.54595 eV
Electronic Energy  :      -6520.79840580806740 Eh         -177439.94549 eV
One Electron Energy:     -11620.09039474821111 Eh         -316198.73487 eV
Two Electron Energy:       5099.29198894014371 Eh          138758.78938 eV

Virial components:
Potential Energy   :      -4363.15639008231665 Eh         -118727.52136 eV
Kinetic Energy     :       2175.41754510158080 Eh           59196.12087 eV
Virial Ratio       :          2.00566387814004

DFT components:
N(Alpha)           :      140.000012892748 electrons
N(Beta)            :      140.000012892748 electrons
N(Total)           :      280.000025785496 electrons
E(X)               :     -202.431956230502 Eh       
E(C)               :      -11.536453370495 Eh       
E(XC)              :     -213.968409600997 Eh       

---------------
SCF CONVERGENCE
---------------

  Last Energy change         ...    6.1162e-08  Tolerance :   1.0000e-06
  Last MAX-Density change    ...    8.7161e-05  Tolerance :   1.0000e-05
  Last RMS-Density change    ...    1.5749e-06  Tolerance :   1.0000e-06
  Last DIIS Error            ...    2.3837e-03  Tolerance :   1.0000e-06
  Last Orbital Gradient      ...    4.4203e-05  Tolerance :   5.0000e-05
  Last Orbital Rotation      ...    8.5766e-05  Tolerance :   5.0000e-05


----------------
ORBITAL ENERGIES
----------------

  NO   OCC          E(Eh)            E(eV) 
   0   2.0000     -89.102367     -2424.5987 
   1   2.0000     -24.704855      -672.2533 
   2   2.0000     -24.699204      -672.0995 
   3   2.0000     -24.679438      -671.5616 
   4   2.0000     -19.195775      -522.3436 
   5   2.0000     -19.137099      -520.7469 
   6   2.0000     -19.133783      -520.6567 
   7   2.0000     -19.127715      -520.4916 
   8   2.0000     -14.391174      -391.6038 
   9   2.0000     -14.335344      -390.0846 
  10   2.0000     -10.347416      -281.5675 
  11   2.0000     -10.333894      -281.1995 
  12   2.0000     -10.278727      -279.6984 
  13   2.0000     -10.277847      -279.6744 
  14   2.0000     -10.251963      -278.9701 
  15   2.0000     -10.240310      -278.6530 
  16   2.0000     -10.230577      -278.3882 
  17   2.0000     -10.227395      -278.3016 
  18   2.0000     -10.220011      -278.1006 
  19   2.0000     -10.216376      -278.0017 
  20   2.0000     -10.215766      -277.9851 
  21   2.0000     -10.215378      -277.9746 
  22   2.0000     -10.214489      -277.9504 
  23   2.0000     -10.208864      -277.7973 
  24   2.0000     -10.207692      -277.7654 
  25   2.0000     -10.202748      -277.6309 
  26   2.0000     -10.200136      -277.5598 
  27   2.0000     -10.197868      -277.4981 
  28   2.0000     -10.196785      -277.4686 
  29   2.0000     -10.196425      -277.4588 
  30   2.0000     -10.195840      -277.4429 
  31   2.0000     -10.194756      -277.4134 
  32   2.0000     -10.194550      -277.4078 
  33   2.0000     -10.192264      -277.3456 
  34   2.0000     -10.187076      -277.2044 
  35   2.0000     -10.185634      -277.1652 
  36   2.0000     -10.185245      -277.1546 
  37   2.0000     -10.183141      -277.0974 
  38   2.0000      -8.138230      -221.4525 
  39   2.0000      -6.103420      -166.0825 
  40   2.0000      -6.101207      -166.0223 
  41   2.0000      -6.100705      -166.0086 
  42   2.0000      -1.229918       -33.4678 
  43   2.0000      -1.218144       -33.1474 
  44   2.0000      -1.173374       -31.9291 
  45   2.0000      -1.089336       -29.6424 
  46   2.0000      -1.082346       -29.4521 
  47   2.0000      -0.996092       -27.1051 
  48   2.0000      -0.973451       -26.4890 
  49   2.0000      -0.966544       -26.3010 
  50   2.0000      -0.925863       -25.1940 
  51   2.0000      -0.887984       -24.1633 
  52   2.0000      -0.869217       -23.6526 
  53   2.0000      -0.854374       -23.2487 
  54   2.0000      -0.850440       -23.1417 
  55   2.0000      -0.824479       -22.4352 
  56   2.0000      -0.805744       -21.9254 
  57   2.0000      -0.794343       -21.6152 
  58   2.0000      -0.774701       -21.0807 
  59   2.0000      -0.771773       -21.0010 
  60   2.0000      -0.752910       -20.4877 
  61   2.0000      -0.748422       -20.3656 
  62   2.0000      -0.732291       -19.9266 
  63   2.0000      -0.708987       -19.2925 
  64   2.0000      -0.696906       -18.9638 
  65   2.0000      -0.676307       -18.4032 
  66   2.0000      -0.667061       -18.1516 
  67   2.0000      -0.639189       -17.3932 
  68   2.0000      -0.627396       -17.0723 
  69   2.0000      -0.622360       -16.9353 
  70   2.0000      -0.618872       -16.8404 
  71   2.0000      -0.610050       -16.6003 
  72   2.0000      -0.607722       -16.5369 
  73   2.0000      -0.594047       -16.1648 
  74   2.0000      -0.586220       -15.9518 
  75   2.0000      -0.583368       -15.8742 
  76   2.0000      -0.563688       -15.3387 
  77   2.0000      -0.547600       -14.9009 
  78   2.0000      -0.542553       -14.7636 
  79   2.0000      -0.541037       -14.7224 
  80   2.0000      -0.531981       -14.4759 
  81   2.0000      -0.522775       -14.2254 
  82   2.0000      -0.517175       -14.0731 
  83   2.0000      -0.506891       -13.7932 
  84   2.0000      -0.498931       -13.5766 
  85   2.0000      -0.493019       -13.4157 
  86   2.0000      -0.486537       -13.2394 
  87   2.0000      -0.480285       -13.0692 
  88   2.0000      -0.475054       -12.9269 
  89   2.0000      -0.472053       -12.8452 
  90   2.0000      -0.467832       -12.7304 
  91   2.0000      -0.465568       -12.6687 
  92   2.0000      -0.460690       -12.5360 
  93   2.0000      -0.456993       -12.4354 
  94   2.0000      -0.453148       -12.3308 
  95   2.0000      -0.450008       -12.2453 
  96   2.0000      -0.446950       -12.1621 
  97   2.0000      -0.445140       -12.1129 
  98   2.0000      -0.442323       -12.0362 
  99   2.0000      -0.442006       -12.0276 
 100   2.0000      -0.430031       -11.7018 
 101   2.0000      -0.427055       -11.6207 
 102   2.0000      -0.421352       -11.4656 
 103   2.0000      -0.418245       -11.3810 
 104   2.0000      -0.416412       -11.3311 
 105   2.0000      -0.409798       -11.1512 
 106   2.0000      -0.408892       -11.1265 
 107   2.0000      -0.405544       -11.0354 
 108   2.0000      -0.400063       -10.8863 
 109   2.0000      -0.396824       -10.7981 
 110   2.0000      -0.390463       -10.6250 
 111   2.0000      -0.389614       -10.6019 
 112   2.0000      -0.385420       -10.4878 
 113   2.0000      -0.383682       -10.4405 
 114   2.0000      -0.372638       -10.1400 
 115   2.0000      -0.367676       -10.0050 
 116   2.0000      -0.367038        -9.9876 
 117   2.0000      -0.364933        -9.9303 
 118   2.0000      -0.361550        -9.8383 
 119   2.0000      -0.358305        -9.7500 
 120   2.0000      -0.350740        -9.5441 
 121   2.0000      -0.345658        -9.4058 
 122   2.0000      -0.331136        -9.0107 
 123   2.0000      -0.327530        -8.9125 
 124   2.0000      -0.321329        -8.7438 
 125   2.0000      -0.309423        -8.4198 
 126   2.0000      -0.306808        -8.3487 
 127   2.0000      -0.297188        -8.0869 
 128   2.0000      -0.296560        -8.0698 
 129   2.0000      -0.292795        -7.9674 
 130   2.0000      -0.283854        -7.7240 
 131   2.0000      -0.282229        -7.6799 
 132   2.0000      -0.277517        -7.5516 
 133   2.0000      -0.274638        -7.4733 
 134   2.0000      -0.272862        -7.4249 
 135   2.0000      -0.256965        -6.9924 
 136   2.0000      -0.255964        -6.9651 
 137   2.0000      -0.244782        -6.6609 
 138   2.0000      -0.240387        -6.5413 
 139   2.0000      -0.229516        -6.2455 
 140   0.0000      -0.081615        -2.2209 
 141   0.0000      -0.066052        -1.7974 
 142   0.0000      -0.029391        -0.7998 
 143   0.0000      -0.021662        -0.5894 
 144   0.0000      -0.020509        -0.5581 
 145   0.0000      -0.004173        -0.1135 
 146   0.0000       0.004611         0.1255 
 147   0.0000       0.013934         0.3792 
 148   0.0000       0.036141         0.9835 
 149   0.0000       0.041352         1.1252 
 150   0.0000       0.048277         1.3137 
*Only the first 10 virtual orbitals were printed.

                    ********************************
                    * MULLIKEN POPULATION ANALYSIS *
                    ********************************

-----------------------
MULLIKEN ATOMIC CHARGES
-----------------------
   0 C :   -0.530109
   1 C :    0.129194
   2 C :   -0.211243
   3 C :    0.175492
   4 C :   -0.207177
   5 C :   -0.130699
   6 C :   -0.131049
   7 C :   -0.147295
   8 C :    0.221119
   9 N :   -0.489243
  10 C :    0.371258
  11 N :   -0.617431
  12 C :   -0.236162
  13 C :    0.169772
  14 C :   -0.146797
  15 C :   -0.165732
  16 C :   -0.061592
  17 C :    0.695070
  18 F :   -0.332454
  19 F :   -0.338426
  20 C :   -0.180405
  21 C :   -0.314745
  22 C :   -0.308495
  23 C :    0.379259
  24 F :   -0.309612
  25 C :   -0.262769
  26 S :    1.235177
  27 O :   -0.540017
  28 O :   -0.544886
  29 C :   -0.123283
  30 C :   -0.158574
  31 C :   -0.147750
  32 C :    0.081042
  33 C :    0.525643
  34 O :   -0.443066
  35 O :   -0.623092
  36 C :   -0.147632
  37 C :   -0.108963
  38 H :    0.157555
  39 H :    0.165086
  40 H :    0.183288
  41 H :    0.144022
  42 H :    0.134882
  43 H :    0.135113
  44 H :    0.140033
  45 H :    0.139503
  46 H :    0.179170
  47 H :    0.183205
  48 H :    0.169015
  49 H :    0.155918
  50 H :    0.169794
  51 H :    0.168097
  52 H :    0.151694
  53 H :    0.163969
  54 H :    0.152634
  55 H :    0.134802
  56 H :    0.174878
  57 H :    0.170594
  58 H :    0.433050
  59 H :    0.176908
  60 H :    0.192457
Sum of atomic charges:   -0.0000000

--------------------------------
MULLIKEN REDUCED ORBITAL CHARGES
--------------------------------
  0 C s       :     3.322254  s :     3.322254
      pz      :     1.088270  p :     3.173295
      px      :     0.999775
      py      :     1.085250
      dz2     :     0.006277  d :     0.034560
      dxz     :     0.008559
      dyz     :     0.005810
      dx2y2   :     0.009595
      dxy     :     0.004319

  1 C s       :     3.149597  s :     3.149597
      pz      :     0.957672  p :     2.681670
      px      :     0.867788
      py      :     0.856210
      dz2     :     0.003967  d :     0.039539
      dxz     :     0.006966
      dyz     :     0.005462
      dx2y2   :     0.011472
      dxy     :     0.011672

  2 C s       :     3.209758  s :     3.209758
      pz      :     0.973724  p :     2.964990
      px      :     1.007909
      py      :     0.983357
      dz2     :     0.002863  d :     0.036495
      dxz     :     0.006698
      dyz     :     0.005180
      dx2y2   :     0.011336
      dxy     :     0.010417

  3 C s       :     3.113575  s :     3.113575
      pz      :     0.941120  p :     2.669045
      px      :     0.861771
      py      :     0.866153
      dz2     :     0.004447  d :     0.041888
      dxz     :     0.007414
      dyz     :     0.006089
      dx2y2   :     0.012291
      dxy     :     0.011648

  4 C s       :     3.207856  s :     3.207856
      pz      :     0.995632  p :     2.963125
      px      :     0.973790
      py      :     0.993703
      dz2     :     0.002860  d :     0.036196
      dxz     :     0.006700
      dyz     :     0.005210
      dx2y2   :     0.010558
      dxy     :     0.010869

  5 C s       :     3.198430  s :     3.198430
      pz      :     0.974572  p :     2.896218
      px      :     0.965022
      py      :     0.956624
      dz2     :     0.004669  d :     0.036052
      dxz     :     0.005464
      dyz     :     0.004296
      dx2y2   :     0.008546
      dxy     :     0.013076

  6 C s       :     3.199474  s :     3.199474
      pz      :     0.969516  p :     2.895280
      px      :     0.990002
      py      :     0.935761
      dz2     :     0.004357  d :     0.036295
      dxz     :     0.004433
      dyz     :     0.005874
      dx2y2   :     0.012702
      dxy     :     0.008929

  7 C s       :     3.201772  s :     3.201772
      pz      :     0.987107  p :     2.910852
      px      :     0.967388
      py      :     0.956357
      dz2     :     0.002833  d :     0.034671
      dxz     :     0.006218
      dyz     :     0.005310
      dx2y2   :     0.011261
      dxy     :     0.009049

  8 C s       :     3.069351  s :     3.069351
      pz      :     0.947455  p :     2.649284
      px      :     0.818568
      py      :     0.883262
      dz2     :     0.005648  d :     0.060246
      dxz     :     0.009628
      dyz     :     0.008450
      dx2y2   :     0.019542
      dxy     :     0.016978

  9 N s       :     3.723208  s :     3.723208
      pz      :     1.232291  p :     3.731429
      px      :     1.044364
      py      :     1.454773
      dz2     :     0.004833  d :     0.034606
      dxz     :     0.007780
      dyz     :     0.004561
      dx2y2   :     0.008968
      dxy     :     0.008464

 10 C s       :     3.026972  s :     3.026972
      pz      :     0.964602  p :     2.530087
      px      :     0.760134
      py      :     0.805351
      dz2     :     0.006416  d :     0.071683
      dxz     :     0.011275
      dyz     :     0.006765
      dx2y2   :     0.023236
      dxy     :     0.023991

 11 N s       :     3.641965  s :     3.641965
      pz      :     1.179463  p :     3.942365
      px      :     1.524195
      py      :     1.238707
      dz2     :     0.007327  d :     0.033101
      dxz     :     0.005141
      dyz     :     0.010222
      dx2y2   :     0.004172
      dxy     :     0.006239

 12 C s       :     3.247408  s :     3.247408
      pz      :     0.911168  p :     2.934506
      px      :     0.973698
      py      :     1.049640
      dz2     :     0.011450  d :     0.054247
      dxz     :     0.011486
      dyz     :     0.009207
      dx2y2   :     0.013524
      dxy     :     0.008580

 13 C s       :     3.138619  s :     3.138619
      pz      :     0.886346  p :     2.651889
      px      :     0.824593
      py      :     0.940949
      dz2     :     0.009682  d :     0.039721
      dxz     :     0.010617
      dyz     :     0.005934
      dx2y2   :     0.007231
      dxy     :     0.006257

 14 C s       :     3.202458  s :     3.202458
      pz      :     0.989652  p :     2.908674
      px      :     0.941579
      py      :     0.977443
      dz2     :     0.007514  d :     0.035664
      dxz     :     0.011619
      dyz     :     0.004764
      dx2y2   :     0.005534
      dxy     :     0.006233

 15 C s       :     3.208070  s :     3.208070
      pz      :     0.975502  p :     2.921473
      px      :     0.962375
      py      :     0.983596
      dz2     :     0.007312  d :     0.036190
      dxz     :     0.012117
      dyz     :     0.004696
      dx2y2   :     0.005314
      dxy     :     0.006750

 16 C s       :     3.173599  s :     3.173599
      pz      :     0.928164  p :     2.850745
      px      :     0.908070
      py      :     1.014511
      dz2     :     0.009143  d :     0.037247
      dxz     :     0.009333
      dyz     :     0.005774
      dx2y2   :     0.007242
      dxy     :     0.005755

 17 C s       :     2.961443  s :     2.961443
      pz      :     0.547828  p :     2.236919
      px      :     0.897821
      py      :     0.791270
      dz2     :     0.026804  d :     0.106567
      dxz     :     0.019159
      dyz     :     0.024834
      dx2y2   :     0.020865
      dxy     :     0.014905

 18 F s       :     3.986009  s :     3.986009
      pz      :     1.571829  p :     5.329807
      px      :     1.875065
      py      :     1.882913
      dz2     :     0.006117  d :     0.016637
      dxz     :     0.004402
      dyz     :     0.004070
      dx2y2   :     0.001165
      dxy     :     0.000883

 19 F s       :     3.989345  s :     3.989345
      pz      :     1.744542  p :     5.332799
      px      :     1.867597
      py      :     1.720660
      dz2     :     0.002701  d :     0.016282
      dxz     :     0.002531
      dyz     :     0.005199
      dx2y2   :     0.003020
      dxy     :     0.002831

 20 C s       :     3.225891  s :     3.225891
      pz      :     0.941175  p :     2.910429
      px      :     0.984549
      py      :     0.984705
      dz2     :     0.009586  d :     0.044085
      dxz     :     0.009146
      dyz     :     0.009232
      dx2y2   :     0.009901
      dxy     :     0.006220

 21 C s       :     3.271524  s :     3.271524
      pz      :     1.056405  p :     3.003222
      px      :     0.875797
      py      :     1.071020
      dz2     :     0.006781  d :     0.039998
      dxz     :     0.009874
      dyz     :     0.003431
      dx2y2   :     0.009839
      dxy     :     0.010073

 22 C s       :     3.269902  s :     3.269902
      pz      :     0.901252  p :     2.998535
      px      :     1.039843
      py      :     1.057440
      dz2     :     0.009724  d :     0.040058
      dxz     :     0.008708
      dyz     :     0.009156
      dx2y2   :     0.009268
      dxy     :     0.003202

 23 C s       :     3.107594  s :     3.107594
      pz      :     0.700987  p :     2.440328
      px      :     0.815273
      py      :     0.924069
      dz2     :     0.017913  d :     0.072819
      dxz     :     0.020793
      dyz     :     0.011839
      dx2y2   :     0.010395
      dxy     :     0.011879

 24 F s       :     3.975302  s :     3.975302
      pz      :     1.652256  p :     5.316837
      px      :     1.827466
      py      :     1.837115
      dz2     :     0.004777  d :     0.017474
      dxz     :     0.004766
      dyz     :     0.004105
      dx2y2   :     0.001717
      dxy     :     0.002109

 25 C s       :     3.222781  s :     3.222781
      pz      :     0.991595  p :     3.005882
      px      :     0.966615
      py      :     1.047672
      dz2     :     0.007251  d :     0.034106
      dxz     :     0.009764
      dyz     :     0.004846
      dx2y2   :     0.005899
      dxy     :     0.006346

 26 S s       :     5.219214  s :     5.219214
      pz      :     2.993795  p :     9.012134
      px      :     3.021176
      py      :     2.997163
      dz2     :     0.109735  d :     0.533476
      dxz     :     0.085422
      dyz     :     0.118973
      dx2y2   :     0.090159
      dxy     :     0.129186

 27 O s       :     3.927504  s :     3.927504
      pz      :     1.330213  p :     4.585372
      px      :     1.710554
      py      :     1.544605
      dz2     :     0.008003  d :     0.027140
      dxz     :     0.005293
      dyz     :     0.007764
      dx2y2   :     0.003248
      dxy     :     0.002832

 28 O s       :     3.930430  s :     3.930430
      pz      :     1.618019  p :     4.587255
      px      :     1.389879
      py      :     1.579357
      dz2     :     0.003357  d :     0.027201
      dxz     :     0.006135
      dyz     :     0.002915
      dx2y2   :     0.007443
      dxy     :     0.007351

 29 C s       :     3.222356  s :     3.222356
      pz      :     1.032558  p :     2.862566
      px      :     0.902004
      py      :     0.928005
      dz2     :     0.005392  d :     0.038361
      dxz     :     0.005390
      dyz     :     0.005206
      dx2y2   :     0.009030
      dxy     :     0.013343

 30 C s       :     3.205929  s :     3.205929
      pz      :     0.962682  p :     2.916486
      px      :     1.024698
      py      :     0.929106
      dz2     :     0.004503  d :     0.036159
      dxz     :     0.005171
      dyz     :     0.005685
      dx2y2   :     0.011723
      dxy     :     0.009077

 31 C s       :     3.208651  s :     3.208651
      pz      :     0.967928  p :     2.903492
      px      :     0.952936
      py      :     0.982628
      dz2     :     0.002859  d :     0.035606
      dxz     :     0.006764
      dyz     :     0.005508
      dx2y2   :     0.011079
      dxy     :     0.009397

 32 C s       :     3.167127  s :     3.167127
      pz      :     0.969672  p :     2.713466
      px      :     0.845710
      py      :     0.898084
      dz2     :     0.004909  d :     0.038365
      dxz     :     0.006733
      dyz     :     0.004939
      dx2y2   :     0.009474
      dxy     :     0.012310

 33 C s       :     2.994324  s :     2.994324
      pz      :     0.776395  p :     2.368657
      px      :     0.861738
      py      :     0.730525
      dz2     :     0.012411  d :     0.111376
      dxz     :     0.018700
      dyz     :     0.016153
      dx2y2   :     0.033950
      dxy     :     0.030162

 34 O s       :     3.874463  s :     3.874463
      pz      :     1.469314  p :     4.542789
      px      :     1.405627
      py      :     1.667848
      dz2     :     0.003108  d :     0.025813
      dxz     :     0.008030
      dyz     :     0.000982
      dx2y2   :     0.006694
      dxy     :     0.007000

 35 O s       :     3.872041  s :     3.872041
      pz      :     1.709877  p :     4.730019
      px      :     1.612271
      py      :     1.407870
      dz2     :     0.003786  d :     0.021032
      dxz     :     0.002329
      dyz     :     0.003508
      dx2y2   :     0.004231
      dxy     :     0.007178

 36 C s       :     3.214803  s :     3.214803
      pz      :     0.959489  p :     2.897245
      px      :     0.977638
      py      :     0.960118
      dz2     :     0.004405  d :     0.035585
      dxz     :     0.005214
      dyz     :     0.005445
      dx2y2   :     0.011075
      dxy     :     0.009445

 37 C s       :     3.205609  s :     3.205609
      pz      :     0.946527  p :     2.867314
      px      :     0.903984
      py      :     1.016803
      dz2     :     0.003172  d :     0.036041
      dxz     :     0.006896
      dyz     :     0.005789
      dx2y2   :     0.011180
      dxy     :     0.009004

 38 H s       :     0.842445  s :     0.842445

 39 H s       :     0.834914  s :     0.834914

 40 H s       :     0.816712  s :     0.816712

 41 H s       :     0.855978  s :     0.855978

 42 H s       :     0.865118  s :     0.865118

 43 H s       :     0.864887  s :     0.864887

 44 H s       :     0.859967  s :     0.859967

 45 H s       :     0.860497  s :     0.860497

 46 H s       :     0.820830  s :     0.820830

 47 H s       :     0.816795  s :     0.816795

 48 H s       :     0.830985  s :     0.830985

 49 H s       :     0.844082  s :     0.844082

 50 H s       :     0.830206  s :     0.830206

 51 H s       :     0.831903  s :     0.831903

 52 H s       :     0.848306  s :     0.848306

 53 H s       :     0.836031  s :     0.836031

 54 H s       :     0.847366  s :     0.847366

 55 H s       :     0.865198  s :     0.865198

 56 H s       :     0.825122  s :     0.825122

 57 H s       :     0.829406  s :     0.829406

 58 H s       :     0.566950  s :     0.566950

 59 H s       :     0.823092  s :     0.823092

 60 H s       :     0.807543  s :     0.807543



                     *******************************
                     * LOEWDIN POPULATION ANALYSIS *
                     *******************************

----------------------
LOEWDIN ATOMIC CHARGES
----------------------
   0 C :   -0.354539
   1 C :   -0.037229
   2 C :   -0.094677
   3 C :   -0.028206
   4 C :   -0.120342
   5 C :   -0.127027
   6 C :   -0.120693
   7 C :   -0.118992
   8 C :    0.018106
   9 N :   -0.137666
  10 C :    0.064884
  11 N :   -0.272089
  12 C :   -0.147709
  13 C :   -0.021487
  14 C :   -0.125805
  15 C :   -0.111760
  16 C :   -0.074721
  17 C :    0.242077
  18 F :   -0.132802
  19 F :   -0.129291
  20 C :   -0.161785
  21 C :   -0.252246
  22 C :   -0.251962
  23 C :    0.123049
  24 F :   -0.097799
  25 C :   -0.166144
  26 S :    1.269306
  27 O :   -0.564106
  28 O :   -0.562107
  29 C :   -0.168830
  30 C :   -0.113769
  31 C :   -0.103144
  32 C :   -0.038336
  33 C :    0.175725
  34 O :   -0.258531
  35 O :   -0.333745
  36 C :   -0.091392
  37 C :   -0.084362
  38 H :    0.133344
  39 H :    0.138739
  40 H :    0.148642
  41 H :    0.140448
  42 H :    0.134213
  43 H :    0.135352
  44 H :    0.137467
  45 H :    0.140743
  46 H :    0.143119
  47 H :    0.148309
  48 H :    0.149313
  49 H :    0.145776
  50 H :    0.147997
  51 H :    0.141278
  52 H :    0.133855
  53 H :    0.138359
  54 H :    0.134781
  55 H :    0.139804
  56 H :    0.152836
  57 H :    0.153587
  58 H :    0.349177
  59 H :    0.158241
  60 H :    0.164770

-------------------------------
LOEWDIN REDUCED ORBITAL CHARGES
-------------------------------
  0 C s       :     2.971572  s :     2.971572
      pz      :     1.130808  p :     3.315437
      px      :     1.057507
      py      :     1.127123
      dz2     :     0.011516  d :     0.067530
      dxz     :     0.017317
      dyz     :     0.010064
      dx2y2   :     0.019542
      dxy     :     0.009091

  1 C s       :     2.883485  s :     2.883485
      pz      :     0.982017  p :     3.055009
      px      :     1.040540
      py      :     1.032452
      dz2     :     0.008555  d :     0.098735
      dxz     :     0.014567
      dyz     :     0.013212
      dx2y2   :     0.031146
      dxy     :     0.031255

  2 C s       :     2.920140  s :     2.920140
      pz      :     0.980679  p :     3.090506
      px      :     1.054074
      py      :     1.055754
      dz2     :     0.005743  d :     0.084031
      dxz     :     0.014832
      dyz     :     0.009260
      dx2y2   :     0.027393
      dxy     :     0.026803

  3 C s       :     2.856029  s :     2.856029
      pz      :     0.976282  p :     3.062747
      px      :     1.046278
      py      :     1.040187
      dz2     :     0.009882  d :     0.109431
      dxz     :     0.017332
      dyz     :     0.014690
      dx2y2   :     0.034488
      dxy     :     0.033039

  4 C s       :     2.916930  s :     2.916930
      pz      :     1.003003  p :     3.119047
      px      :     1.062023
      py      :     1.054022
      dz2     :     0.005840  d :     0.084365
      dxz     :     0.015006
      dyz     :     0.009435
      dx2y2   :     0.027319
      dxy     :     0.026764

  5 C s       :     2.919242  s :     2.919242
      pz      :     0.995206  p :     3.123246
      px      :     1.071016
      py      :     1.057024
      dz2     :     0.009058  d :     0.084539
      dxz     :     0.012853
      dyz     :     0.009598
      dx2y2   :     0.022671
      dxy     :     0.030359

  6 C s       :     2.920371  s :     2.920371
      pz      :     0.988236  p :     3.115423
      px      :     1.073587
      py      :     1.053601
      dz2     :     0.008539  d :     0.084898
      dxz     :     0.008830
      dyz     :     0.014293
      dx2y2   :     0.029786
      dxy     :     0.023450

  7 C s       :     2.921606  s :     2.921606
      pz      :     0.999653  p :     3.115678
      px      :     1.052019
      py      :     1.064006
      dz2     :     0.005892  d :     0.081708
      dxz     :     0.014099
      dyz     :     0.009567
      dx2y2   :     0.027633
      dxy     :     0.024516

  8 C s       :     2.844048  s :     2.844048
      pz      :     0.966102  p :     2.988483
      px      :     1.016634
      py      :     1.005747
      dz2     :     0.012522  d :     0.149363
      dxz     :     0.021282
      dyz     :     0.019625
      dx2y2   :     0.051405
      dxy     :     0.044529

  9 N s       :     3.233744  s :     3.233744
      pz      :     1.223999  p :     3.826461
      px      :     1.145189
      py      :     1.457274
      dz2     :     0.008678  d :     0.077461
      dxz     :     0.017384
      dyz     :     0.006904
      dx2y2   :     0.023527
      dxy     :     0.020968

 10 C s       :     2.852992  s :     2.852992
      pz      :     0.971204  p :     2.911532
      px      :     0.971279
      py      :     0.969050
      dz2     :     0.013918  d :     0.170592
      dxz     :     0.024716
      dyz     :     0.015104
      dx2y2   :     0.056505
[...]
      py      :     1.038594
      dz2     :     0.008922  d :     0.085996
      dxz     :     0.010883
      dyz     :     0.013951
      dx2y2   :     0.028443
      dxy     :     0.023797

 31 C s       :     2.919881  s :     2.919881
      pz      :     0.986085  p :     3.099942
      px      :     1.055287
      py      :     1.058570
      dz2     :     0.006261  d :     0.083321
      dxz     :     0.015472
      dyz     :     0.009323
      dx2y2   :     0.027804
      dxy     :     0.024461

 32 C s       :     2.880600  s :     2.880600
      pz      :     0.998137  p :     3.058413
      px      :     1.028559
      py      :     1.031718
      dz2     :     0.010833  d :     0.099323
      dxz     :     0.016354
      dyz     :     0.011893
      dx2y2   :     0.026982
      dxy     :     0.033261

 33 C s       :     2.861306  s :     2.861306
      pz      :     0.819005  p :     2.707436
      px      :     1.019181
      py      :     0.869251
      dz2     :     0.026584  d :     0.255533
      dxz     :     0.040509
      dyz     :     0.037482
      dx2y2   :     0.079644
      dxy     :     0.071315

 34 O s       :     3.589047  s :     3.589047
      pz      :     1.465359  p :     4.619024
      px      :     1.484876
      py      :     1.668789
      dz2     :     0.006537  d :     0.050461
      dxz     :     0.012785
      dyz     :     0.001943
      dx2y2   :     0.015801
      dxy     :     0.013394

 35 O s       :     3.539615  s :     3.539615
      pz      :     1.702516  p :     4.752010
      px      :     1.619390
      py      :     1.430104
      dz2     :     0.005921  d :     0.042120
      dxz     :     0.003857
      dyz     :     0.009055
      dx2y2   :     0.009748
      dxy     :     0.013539

 36 C s       :     2.920305  s :     2.920305
      pz      :     0.972724  p :     3.088448
      px      :     1.086736
      py      :     1.028989
      dz2     :     0.008704  d :     0.082639
      dxz     :     0.010644
      dyz     :     0.012978
      dx2y2   :     0.026423
      dxy     :     0.023890

 37 C s       :     2.919698  s :     2.919698
      pz      :     0.970222  p :     3.079851
      px      :     1.045435
      py      :     1.064194
      dz2     :     0.006752  d :     0.084813
      dxz     :     0.016180
      dyz     :     0.009661
      dx2y2   :     0.028924
      dxy     :     0.023296

 38 H s       :     0.866656  s :     0.866656

 39 H s       :     0.861261  s :     0.861261

 40 H s       :     0.851358  s :     0.851358

 41 H s       :     0.859552  s :     0.859552

 42 H s       :     0.865787  s :     0.865787

 43 H s       :     0.864648  s :     0.864648

 44 H s       :     0.862533  s :     0.862533

 45 H s       :     0.859257  s :     0.859257

 46 H s       :     0.856881  s :     0.856881

 47 H s       :     0.851691  s :     0.851691

 48 H s       :     0.850687  s :     0.850687

 49 H s       :     0.854224  s :     0.854224

 50 H s       :     0.852003  s :     0.852003

 51 H s       :     0.858722  s :     0.858722

 52 H s       :     0.866145  s :     0.866145

 53 H s       :     0.861641  s :     0.861641

 54 H s       :     0.865219  s :     0.865219

 55 H s       :     0.860196  s :     0.860196

 56 H s       :     0.847164  s :     0.847164

 57 H s       :     0.846413  s :     0.846413

 58 H s       :     0.650823  s :     0.650823

 59 H s       :     0.841759  s :     0.841759

 60 H s       :     0.835230  s :     0.835230



                      *****************************
                      * MAYER POPULATION ANALYSIS *
                      *****************************

  NA   - Mulliken gross atomic population
  ZA   - Total nuclear charge
  QA   - Mulliken gross atomic charge
  VA   - Mayer's total valence
  BVA  - Mayer's bonded valence
  FA   - Mayer's free valence

  ATOM       NA         ZA         QA         VA         BVA        FA
  0 C      6.5301     6.0000    -0.5301     3.8227     3.8227     0.0000
  1 C      5.8708     6.0000     0.1292     3.9109     3.9109    -0.0000
  2 C      6.2112     6.0000    -0.2112     3.8895     3.8895    -0.0000
  3 C      5.8245     6.0000     0.1755     3.9807     3.9807    -0.0000
  4 C      6.2072     6.0000    -0.2072     3.9058     3.9058     0.0000
  5 C      6.1307     6.0000    -0.1307     3.9241     3.9241    -0.0000
  6 C      6.1310     6.0000    -0.1310     3.9284     3.9284    -0.0000
  7 C      6.1473     6.0000    -0.1473     3.8787     3.8787    -0.0000
  8 C      5.7789     6.0000     0.2211     3.9659     3.9659     0.0000
  9 N      7.4892     7.0000    -0.4892     2.9306     2.9306     0.0000
 10 C      5.6287     6.0000     0.3713     3.8626     3.8626    -0.0000
 11 N      7.6174     7.0000    -0.6174     2.7915     2.7915    -0.0000
 12 C      6.2362     6.0000    -0.2362     3.7989     3.7989    -0.0000
 13 C      5.8302     6.0000     0.1698     3.8859     3.8859    -0.0000
 14 C      6.1468     6.0000    -0.1468     3.9322     3.9322     0.0000
 15 C      6.1657     6.0000    -0.1657     3.9208     3.9208    -0.0000
 16 C      6.0616     6.0000    -0.0616     3.8357     3.8357    -0.0000
 17 C      5.3049     6.0000     0.6951     3.8216     3.8216    -0.0000
 18 F      9.3325     9.0000    -0.3325     1.0108     1.0108    -0.0000
 19 F      9.3384     9.0000    -0.3384     1.0151     1.0151     0.0000
 20 C      6.1804     6.0000    -0.1804     3.8056     3.8056     0.0000
 21 C      6.3147     6.0000    -0.3147     3.8097     3.8097     0.0000
 22 C      6.3085     6.0000    -0.3085     3.7957     3.7957    -0.0000
 23 C      5.6207     6.0000     0.3793     3.8090     3.8090    -0.0000
 24 F      9.3096     9.0000    -0.3096     1.0590     1.0590     0.0000
 25 C      6.2628     6.0000    -0.2628     3.8553     3.8553    -0.0000
 26 S     14.7648    16.0000     1.2352     5.0574     5.0574    -0.0000
 27 O      8.5400     8.0000    -0.5400     1.8964     1.8964    -0.0000
 28 O      8.5449     8.0000    -0.5449     1.8853     1.8853     0.0000
 29 C      6.1233     6.0000    -0.1233     3.8395     3.8395    -0.0000
 30 C      6.1586     6.0000    -0.1586     3.9246     3.9246     0.0000
 31 C      6.1478     6.0000    -0.1478     3.8712     3.8712     0.0000
 32 C      5.9190     6.0000     0.0810     3.9283     3.9283     0.0000
 33 C      5.4744     6.0000     0.5256     3.9601     3.9601    -0.0000
 34 O      8.4431     8.0000    -0.4431     2.0697     2.0697     0.0000
 35 O      8.6231     8.0000    -0.6231     1.8686     1.8686    -0.0000
 36 C      6.1476     6.0000    -0.1476     3.8917     3.8917    -0.0000
 37 C      6.1090     6.0000    -0.1090     3.9163     3.9163    -0.0000
 38 H      0.8424     1.0000     0.1576     0.9357     0.9357     0.0000
 39 H      0.8349     1.0000     0.1651     0.9326     0.9326    -0.0000
 40 H      0.8167     1.0000     0.1833     0.9336     0.9336    -0.0000
 41 H      0.8560     1.0000     0.1440     0.9384     0.9384    -0.0000
 42 H      0.8651     1.0000     0.1349     0.9376     0.9376     0.0000
 43 H      0.8649     1.0000     0.1351     0.9368     0.9368    -0.0000
 44 H      0.8600     1.0000     0.1400     0.9365     0.9365    -0.0000
 45 H      0.8605     1.0000     0.1395     0.9446     0.9446     0.0000
 46 H      0.8208     1.0000     0.1792     0.9286     0.9286    -0.0000
 47 H      0.8168     1.0000     0.1832     0.9296     0.9296    -0.0000
 48 H      0.8310     1.0000     0.1690     0.9404     0.9404     0.0000
 49 H      0.8441     1.0000     0.1559     0.9439     0.9439    -0.0000
 50 H      0.8302     1.0000     0.1698     0.9412     0.9412     0.0000
 51 H      0.8319     1.0000     0.1681     0.9490     0.9490     0.0000
 52 H      0.8483     1.0000     0.1517     0.9436     0.9436     0.0000
 53 H      0.8360     1.0000     0.1640     0.9494     0.9494     0.0000
 54 H      0.8474     1.0000     0.1526     0.9429     0.9429     0.0000
 55 H      0.8652     1.0000     0.1348     0.9404     0.9404    -0.0000
 56 H      0.8251     1.0000     0.1749     0.9380     0.9380    -0.0000
 57 H      0.8294     1.0000     0.1706     0.9370     0.9370     0.0000
 58 H      0.5670     1.0000     0.4330     0.7967     0.7967     0.0000
 59 H      0.8231     1.0000     0.1769     0.9398     0.9398    -0.0000
 60 H      0.8075     1.0000     0.1925     0.9399     0.9399    -0.0000

  Mayer bond orders larger than 0.100000
B(  0-C ,  1-C ) :   0.9869 B(  0-C , 38-H ) :   0.9424 B(  0-C , 39-H ) :   0.9255 
B(  0-C , 40-H ) :   0.9243 B(  1-C ,  2-C ) :   1.4881 B(  1-C , 10-C ) :   1.2900 
B(  2-C ,  3-C ) :   1.2852 B(  2-C , 41-H ) :   0.9156 B(  3-C ,  4-C ) :   1.2843 
B(  3-C ,  8-C ) :   1.2561 B(  4-C ,  5-C ) :   1.5161 B(  4-C ,  7-C ) :   0.1063 
B(  4-C , 42-H ) :   0.9242 B(  5-C ,  6-C ) :   1.3426 B(  5-C , 43-H ) :   0.9298 
B(  6-C ,  7-C ) :   1.5233 B(  6-C , 44-H ) :   0.9285 B(  7-C ,  8-C ) :   1.2932 
B(  7-C , 45-H ) :   0.9175 B(  8-C ,  9-N ) :   1.2345 B(  9-N , 10-C ) :   1.4346 
B( 10-C , 11-N ) :   0.8984 B( 11-N , 12-C ) :   0.9214 B( 11-N , 26-S ) :   0.7681 
B( 12-C , 13-C ) :   0.9475 B( 12-C , 46-H ) :   0.9071 B( 12-C , 47-H ) :   0.9180 
B( 13-C , 14-C ) :   1.4459 B( 13-C , 25-C ) :   1.3831 B( 14-C , 15-C ) :   1.4190 
B( 14-C , 48-H ) :   0.9036 B( 15-C , 16-C ) :   1.4029 B( 15-C , 49-H ) :   0.9189 
B( 16-C , 17-C ) :   0.9580 B( 16-C , 23-C ) :   1.3295 B( 17-C , 18-F ) :   0.9078 
B( 17-C , 19-F ) :   0.8683 B( 17-C , 20-C ) :   0.9978 B( 20-C , 21-C ) :   0.9399 
B( 20-C , 22-C ) :   0.9295 B( 20-C , 50-H ) :   0.9212 B( 21-C , 22-C ) :   0.9594 
B( 21-C , 51-H ) :   0.9376 B( 21-C , 52-H ) :   0.9451 B( 22-C , 53-H ) :   0.9388 
B( 22-C , 54-H ) :   0.9435 B( 23-C , 24-F ) :   0.9305 B( 23-C , 25-C ) :   1.3850 
B( 25-C , 55-H ) :   0.9172 B( 26-S , 27-O ) :   1.6514 B( 26-S , 28-O ) :   1.6278 
B( 26-S , 29-C ) :   0.8105 B( 29-C , 30-C ) :   1.3928 B( 29-C , 37-C ) :   1.3894 
B( 30-C , 31-C ) :   1.4125 B( 30-C , 56-H ) :   0.9110 B( 31-C , 32-C ) :   1.3900 
B( 31-C , 57-H ) :   0.9152 B( 32-C , 33-C ) :   1.0088 B( 32-C , 36-C ) :   1.3939 
B( 33-C , 34-O ) :   1.8668 B( 33-C , 35-O ) :   1.0262 B( 35-O , 58-H ) :   0.7426 
B( 36-C , 37-C ) :   1.4188 B( 36-C , 59-H ) :   0.9108 B( 37-C , 60-H ) :   0.9037 


-------
TIMINGS
-------

Total SCF time: 0 days 0 hours 11 min 34 sec 

Total time                  ....     694.936 sec
Sum of individual times     ....     694.542 sec  ( 99.9%)

SCF preparation             ....       0.430 sec  (  0.1%)
Fock matrix formation       ....     691.068 sec  ( 99.4%)
  Startup                   ....       0.101 sec  (  0.0% of F)
  Split-RI-J                ....     100.615 sec  ( 14.6% of F)
  Chain of spheres X        ....     533.933 sec  ( 77.3% of F)
  XC integration            ....      55.563 sec  (  8.0% of F)
    Basis function eval.    ....      22.303 sec  ( 40.1% of XC)
    Density eval.           ....      13.668 sec  ( 24.6% of XC)
    XC-Functional eval.     ....       2.571 sec  (  4.6% of XC)
    XC-Potential eval.      ....      14.951 sec  ( 26.9% of XC)
Diagonalization             ....       0.000 sec  (  0.0%)
Density matrix formation    ....       0.487 sec  (  0.1%)
Total Energy calculation    ....       0.096 sec  (  0.0%)
Population analysis         ....       0.097 sec  (  0.0%)
Orbital Transformation      ....       0.249 sec  (  0.0%)
Orbital Orthonormalization  ....       0.000 sec  (  0.0%)
DIIS solution               ....       1.285 sec  (  0.2%)
SOSCF solution              ....       0.829 sec  (  0.1%)
Finished LeanSCF after 695.0 sec

Maximum memory used throughout the entire LEANSCF-calculation: 102.4 MB

-------------------------   --------------------
FINAL SINGLE POINT ENERGY     -2187.738844980735
-------------------------   --------------------


------------------------------------------------------------------------------
                              ORCA PROPERTY CALCULATIONS
------------------------------------------------------------------------------

GBWName                                 ... /home/nmrbox/aojoawo/Documents/ERDOS/inputs/CHEMBL3687375.gbw
Number of atoms                         ...     61
Number of basis functions               ...    582
Max core memory                         ...   1024 MB

Electric properties:
Dipole moment                           ... YES
Quadrupole moment                       ...  NO
Static polarizability (Dipole/Dipole)   ...  NO
Static polarizability (Dipole/Quad.)    ...  NO
Static polarizability (Quad./Quad.)     ...  NO
Static polarizability (Velocity)        ...  NO

Atomic electric properties:
Dipole moment                           ...  NO
Quadrupole moment                       ...  NO
Static polarizability                   ...  NO

Choice of electric origin               ... Center of mass
Position of electric origin             ...    -0.043978    -0.279715    -0.132065

General magnetic properties:
Magnetizability                         ...  NO

EPR properties:
g-Tensor (aka g-matrix)                 ...  NO
Zero-Field splitting spin-orbit         ...  NO
Zero-field splitting spin-spin          ...  NO
Hyperfine couplings                     ...  NO (   0 nuclei)
Quadrupole couplings                    ...  NO (   0 nuclei)
Contact density                         ...  NO (   0 nuclei)

NMR properties:
Chemical shifts                         ...  NO (   0 nuclei)
Spin-rotation constants                 ...  NO (   0 nuclei)
Spin-spin couplings                     ...  NO (   0 nuclei,    0 pairs)

Choice of magnetic origin               ... GIAO
Position of magnetic origin             ...     0.000000     0.000000     0.000000

Properties with geometric perturbations:
SCF Hessian                             ...  NO
IR spectrum                             ...  NO
VCD spectrum                            ...  NO
X-ray spectroscopy properties:
SCF XES/XAS/RIXS spectra                ...  NO


-------------
DIPOLE MOMENT
-------------

Method             : SCF
Type of density    : Electron Density
Multiplicity       :   1
Irrep              :   0
Energy             : -2187.7388449807353936 Eh
Relativity type    : 
Basis              : AO
                                X                 Y                 Z
Electronic contribution:      9.131552420      -5.665829134       3.761885991
Nuclear contribution   :    -10.427689121       5.537946784      -2.159107714
                        -----------------------------------------
Total Dipole Moment    :     -1.296136700      -0.127882350       1.602778277
                        -----------------------------------------
Magnitude (a.u.)       :      2.065241499
Magnitude (Debye)      :      5.249426711



--------------------
Rotational spectrum 
--------------------
 
Rotational constants in cm-1:             0.004395             0.001609             0.001302 
Rotational constants in MHz :           131.761049            48.246220            39.039909 

Dipole components along the rotational axes: 
x,y,z [a.u.] :     1.075062    -0.128457    -1.758682 
x,y,z [Debye]:     2.732589    -0.326511    -4.470215 

 

Dipole moment calculation done in   0.0 sec 

Maximum memory used throughout the entire PROP-calculation: 50.5 MB

--------------------------------
SUGGESTED CITATIONS FOR THIS RUN
--------------------------------

Below you find a list of papers that are relevant to this ORCA run
We neither can nor want to force you to cite these papers, but we appreciate if you do
You receive ORCA, which is the product of decades of hard work by many enthusiastic individuals, for free
The only thing we kindly ask in return is that you cite our papers,
We deeply appreciate it, if you show your appreciation for ORCA by not just citing the generic ORCA reference.

Please note that relegating all ORCA citations to the supporting information does *not* help us.
SI sections are not indexed - citations you put there will not count into any citation statistics
But we need these citations in order to attract the funding resources that allow us to do what we are doing

Therefore, if you are a happy ORCA user, please consider citing a few of the papers listed below in the main body of your paper

In addition to the list printed below, the program has created the file /home/nmrbox/aojoawo/Documents/ERDOS/inputs/CHEMBL3687375.bibtex that contains the list in bibtex format
You can import this file easily into all common literature databanks and citation aid programs


List of essential papers. We consider these as the minimum necessary citations

  1. Neese,F.
     Software update: the ORCA program system, version 5.0
     WIRES Comput. Molec. Sci., 2022 12(1)e1606
     doi.org/10.1002/wcms.1606

List of papers to cite with high priority. The work reported in these papers was absolutely
necessary for this run to complete.
Our perspective: the developers of density functionals and basis sets usually get cited in chemistry papers
Good! But without the algorithms to do something with them, the functionals or basis sets would not do anything.
Hence, in our opinion, the algorithm design and method developments papers are equally worthy of getting cited

  1. Neese,F.
     An improvement of the resolution of the identity approximation for the formation of the Coulomb matrix
     J. Comp. Chem., 2003 24(14)1740-1747
     doi.org/10.1002/jcc.10318
  2. Neese,F.; Wennmohs,F.; Hansen,A.; Becker,U.
     Efficient, approximate and parallel Hartree-Fock and hybrid DFT calculations. A 'chain-of-spheres' algorithm for the Hartree-Fock exchange
     Chem. Phys., 2009 356(1-3)98-109
     doi.org/10.1016/j.chemphys.2008.10.036
  3. Helmich-Paris,B.; de Souza,B.; Neese,F.; Izsák,R.
     An improved chain of spheres for exchange algorithm
     J. Chem. Phys., 2021 155 104109
     doi.org/doi: 10.1063/5.0058766.
  4. Neese,F.
     The SHARK Integral Generation and Digestion System
     J. Comp. Chem., 2022  1-16
     doi.org/10.1002/jcc.26942

List of suggested additional citations. These are papers that are important in the 'surrounding' of 
of this run, or papers that preceded the highly important papers. If you like your results we are grateful for a citation.

  1. Izsak,R.; Neese,F.
     An overlap fitted chain of spheres exchange method
     J. Chem. Phys., 2011 135 144105
     doi.org/10.1063/1.3646921
  2. Izsak,R.; Hansen,A.; Neese,F.
     The resolution of identity and chain of spheres approximations for the LPNO-CCSD singles Fock term
     Molec. Phys., 2012 110 2413-2417
     doi.org/10.1080/00268976.2012.687466
  3. Neese,F.
     The ORCA program system
     WIRES Comput. Molec. Sci., 2012 2(1)73-78
     doi.org/10.1002/wcms.81
  4. Izsak,R.; Neese,F.; Klopper,W.
     Robust fitting techniques in the chain of spheres approximation to the Fock exchange: The role of the complementary space
     J. Chem. Phys., 2013 139 
     doi.org/10.1063/1.4819264
  5. Neese,F.
     Software update: the ORCA program system, version 4.0
     WIRES Comput. Molec. Sci., 2018 8(1)1-6
     doi.org/10.1002/wcms.1327
  6. Neese,F.; Wennmohs,F.; Becker,U.; Riplinger,C.
     The ORCA quantum chemistry program package
     J. Chem. Phys., 2020 152 Art. No. L224108
     doi.org/10.1063/5.0004608

List of optional additional citations

  1. Neese,F.
     Approximate second-order SCF convergence for spin unrestricted wavefunctions
     Chem. Phys. Lett., 2000 325(1-3)93-98
     doi.org/10.1016/s0009-2614(00)00662-x

Timings for individual modules:

Sum of individual times          ...      723.197 sec (=  12.053 min)
Startup calculation              ...       17.756 sec (=   0.296 min)   2.5 %
SCF iterations                   ...      705.204 sec (=  11.753 min)  97.5 %
Property calculations            ...        0.236 sec (=   0.004 min)   0.0 %
                             ****ORCA TERMINATED NORMALLY****
TOTAL RUN TIME: 0 days 0 hours 12 minutes 3 seconds 865 msec
