
                                 *****************
                                 * O   R   C   A *
                                 *****************

                                            #,                                       
                                            ###                                      
                                            ####                                     
                                            #####                                    
                                            ######                                   
                                           ########,                                 
                                     ,,################,,,,,                         
                               ,,#################################,,                 
                          ,,##########################################,,             
                       ,#########################################, ''#####,          
                    ,#############################################,,   '####,        
                  ,##################################################,,,,####,       
                ,###########''''           ''''###############################       
              ,#####''   ,,,,##########,,,,          '''####'''          '####       
            ,##' ,,,,###########################,,,                        '##       
           ' ,,###''''                  '''############,,,                           
         ,,##''                                '''############,,,,        ,,,,,,###''
      ,#''                                            '''#######################'''  
     '                                                          ''''####''''         
             ,#######,   #######,   ,#######,      ##                                
            ,#'     '#,  ##    ##  ,#'     '#,    #''#        ,####,   ,####,        
            ##       ##  ##   ,#'  ##            #'  '#       #'       #'  '#        
            ##       ##  #######   ##           ,######,      #####,   #    #        
            '#,     ,#'  ##    ##  '#,     ,#' ,#      #,     #,   #   #,  ,#        
             '#######'   ##     ##  '#######'  #'      '#     '####' # '####'        



                #########################################################
                #                        -***-                          #
                #          Department of theory and spectroscopy        #
                #                                                       #
                #                      Frank Neese                      #
                #                                                       #
                #     Directorship, Architecture, Infrastructure        #
                #                    SHARK, DRIVERS                     #
                #        Core code/Algorithms in most modules           #
                #                                                       #
                #        Max Planck Institute fuer Kohlenforschung      #
                #                Kaiser Wilhelm Platz 1                 #
                #                 D-45470 Muelheim/Ruhr                 #
                #                      Germany                          #
                #                                                       #
                #                  All rights reserved                  #
                #                        -***-                          #
                #########################################################


                         Program Version 6.0.0  -   RELEASE  -


 With contributions from (in alphabetic order):
   Daniel Aravena         : Magnetic Suceptibility
   Michael Atanasov       : Ab Initio Ligand Field Theory (pilot matlab implementation)
   Alexander A. Auer      : GIAO ZORA, VPT2 properties, NMR spectrum
   Ute Becker             : All parallelization in ORCA, NUMFREQ, NUMCALC
   Giovanni Bistoni       : ED, misc. LED, open-shell LED, HFLD
   Martin Brehm           : Molecular dynamics
   Dmytro Bykov           : pre 5.0 version of the SCF Hessian
   Marcos Casanova-Páez   : Triplet and SCS-CIS(D). UHF-(DLPNO)-IP/EA/STEOM-CCSD. UHF-CVS-IP/STEOM-CCSD
   Vijay G. Chilkuri      : MRCI spin determinant printing, contributions to CSF-ICE
   Pauline Colinet        : FMM embedding
   Dipayan Datta          : RHF DLPNO-CCSD density
   Achintya Kumar Dutta   : EOM-CC, STEOM-CC
   Nicolas Foglia         : Exact transition moments, OPA infrastructure, MCD improvements
   Dmitry Ganyushin       : Spin-Orbit,Spin-Spin,Magnetic field MRCI
   Miquel Garcia          : C-PCM and meta-GGA Hessian, CCSD/C-PCM, Gaussian charge scheme
   Tiago L. C. Gouveia    : GS-ROHF, GS-ROCIS
   Yang Guo               : DLPNO-NEVPT2, F12-NEVPT2, CIM, IAO-localization
   Andreas Hansen         : Spin unrestricted coupled pair/coupled cluster methods
   Ingolf Harden          : AUTO-CI MPn and infrastructure 
   Benjamin Helmich-Paris : MC-RPA, TRAH-(SCF,CASSCF), AVAS, COSX integrals, SCF dyn. polar.
   Lee Huntington         : MR-EOM, pCC
   Robert Izsak           : Overlap fitted RIJCOSX, COSX-SCS-MP3, EOM
   Riya Kayal             : Wick's Theorem for AUTO-CI, AUTO-CI UHF-CCSDT
   Emily Kempfer          : AUTO-CI, RHF CISDT and CCSDT
   Christian Kollmar      : KDIIS, OOCD, Brueckner-CCSD(T), CCSD density, CASPT2, CASPT2-K, improved NEVPT2
   Axel Koslowski         : Symmetry handling
   Simone Kossmann        : Meta GGA functionals, TD-DFT gradient, OOMP2, (MP2 Hessian; deprecated post 5.0)
   Lucas Lang             : DCDCAS
   Marvin Lechner         : AUTO-CI (C++ implementation), FIC-MRCC
   Spencer Leger          : CASSCF response
   Dagmar Lenk            : GEPOL surface, SMD, ORCA-2-JSON
   Dimitrios Liakos       : Extrapolation schemes; Compound Job, initial MDCI parallelization
   Dimitrios Manganas     : Further ROCIS development; embedding schemes. LFT, Crystal Embedding
   Dimitrios Pantazis     : SARC Basis sets
   Anastasios Papadopoulos: AUTO-CI, single reference methods and gradients
   Taras Petrenko         : pre 6.0 DFT Hessian and TD-DFT gradient, (ASA, deprecated), ECA, 1-Electron XAS/XES, NRVS
   Peter Pinski           : DLPNO-MP2, DLPNO-MP2 Gradient
   Christoph Reimann      : Effective Core Potentials
   Marius Retegan         : Local ZFS, SOC
   Christoph Riplinger    : Optimizer, TS searches, QM/MM, DLPNO-CCSD(T), (RO)-DLPNO pert. Triples
   Michael Roemelt        : Original ROCIS implementation
   Masaaki Saitow         : Open-shell DLPNO-CCSD energy and density
   Barbara Sandhoefer     : DKH picture change effects
   Kantharuban Sivalingam : CASSCF convergence/infrastructure, NEVPT2 and variants, FIC-MRCI
   Bernardo de Souza      : ESD, SOC TD-DFT
   Georgi Stoychev        : AutoAux, RI-MP2 NMR, DLPNO-MP2 response, X2C
   Van Anh Tran           : RI-MP2 g-tensors
   Willem Van den Heuvel  : Paramagnetic NMR
   Zikuan Wang            : NOTCH, Electric field optimization 
   Frank Wennmohs         : Technical directorship and infrastructure
   Hang Xu                : AUTO-CI-Response properties 


 We gratefully acknowledge several colleagues who have allowed us to
 interface, adapt or use parts of their codes:
   Stefan Grimme, W. Hujo, H. Kruse, P. Pracht,  : VdW corrections, initial TS optimization,
                  C. Bannwarth, S. Ehlert,         DFT functionals, gCP, sTDA/sTD-DF
                  L. Wittmann, M. Mueller
   Ed Valeev, F. Pavosevic, A. Kumar             : LibInt (2-el integral package), F12 methods
   Garnet Chan, S. Sharma, J. Yang, R. Olivares  : DMRG
   Ulf Ekstrom                                   : XCFun DFT Library
   Mihaly Kallay                                 : mrcc  (arbitrary order and MRCC methods)
   Frank Weinhold                                : gennbo (NPA and NBO analysis)
   Simon Mueller                                 : openCOSMO-RS
   Christopher J. Cramer and Donald G. Truhlar   : smd solvation model
   Lars Goerigk                                  : TD-DFT with DH, B97 family of functionals
   V. Asgeirsson, H. Jonsson                     : NEB implementation
   FAccTs GmbH                                   : IRC, NEB, NEB-TS, DLPNO-Multilevel, CI-OPT
                                                   MM, QMMM, 2- and 3-layer-ONIOM, Crystal-QMMM,
                                                   LR-CPCM, SF, NACMEs, symmetry and pop. for TD-DFT,
                                                   nearIR, NL-DFT gradient (VV10), updates on ESD,
                                                   ML-optimized integration grids, MBIS, APM,
                                                   GOAT, DOCKER, SOLVATOR, interface openCOSMO-RS
   S Lehtola, MJT Oliveira, MAL Marques          : LibXC Library
   Liviu Ungur et al                             : ANISO software


 Your calculation uses the libint2 library for the computation of 2-el integrals
 For citations please refer to: http://libint.valeyev.net

 Your ORCA version has been built with support for libXC version: 6.2.2
 For citations please refer to: https://libxc.gitlab.io

 This ORCA versions uses:
   CBLAS   interface :  Fast vector & matrix operations
   LAPACKE interface :  Fast linear algebra routines
   SCALAPACK package :  Parallel linear algebra routines
   Shared memory     :  Shared parallel matrices
   BLAS/LAPACK       :  OpenBLAS 0.3.27  USE64BITINT DYNAMIC_ARCH NO_AFFINITY SkylakeX SINGLE_THREADED
        Core in use  :  SkylakeX
   Copyright (c) 2011-2014, The OpenBLAS Project


Warning: RI is on but no J-basis has been assigned. Assigning Def2/J (nothing to worry about!)
================================================================================

----- Orbital basis set information -----
Your calculation utilizes the basis: 6-31G*
   H-He, Li-Ne : W. J. Hehre, R. Ditchfield and J.A. Pople, J. Chem. Phys. 56, 2257 (1972).
                 Note: He and Ne are unpublished basis sets taken from the Gaussian program.
                 Note: Li and B from J. D. Dill and J. A. Pople, J. Chem. Phys. 62, 2921 (1975).
   Na - Ar     : M. M. Francl, W. J. Pietro, W. J. Hehre, J. S. Binkley, M. S. Gordon, 
                 D. J. DeFrees and J. A. Pople, J. Chem. Phys. 77, 3654 (1982).
   K - Zn      : V. A. Rassolov, J. A. Pople, M. A. Ratner, and T. L. Windus, J. Chem. Phys. 109, 1223 (1998).

----- AuxJ basis set information -----
Your calculation utilizes the auxiliary basis: def2/J
   F. Weigend, Phys. Chem. Chem. Phys. 8, 1057 (2006).

================================================================================
                                        WARNINGS
                       Please study these warnings very carefully!
================================================================================


================================================================================
                                       INPUT FILE
================================================================================
NAME = /home/nmrbox/aojoawo/Documents/ERDOS/inputs/CHEMBL5269402.inp
|  1> ! B3LYP 6-31G* SP
|  2> 
|  3> * xyz 0 1
|  4> C -2.8462 -2.5740 -2.7565
|  5> C -3.1856 -2.1307 -1.5298
|  6> C -3.9056 -3.1022 -0.6269
|  7> C -2.8286 -0.7269 -1.0082
|  8> C -2.3062 0.2347 -2.1045
|  9> C -2.0317 1.6621 -1.5495
| 10> C -3.1720 2.6324 -1.9100
| 11> C -1.7193 1.6273 -0.0032
| 12> O -2.9629 1.5904 0.7277
| 13> C -3.5975 0.3014 0.7897
| 14> C -4.8284 0.4209 1.6989
| 15> C -5.5621 -0.8863 1.8527
| 16> C -5.2164 -1.7761 2.8837
| 17> C -5.8703 -3.0062 3.0011
| 18> C -6.8689 -3.3583 2.0892
| 19> C -7.2160 -2.4806 1.0589
| 20> C -6.5650 -1.2492 0.9379
| 21> O -2.7108 -0.6587 1.3013
| 22> C -1.8629 -0.8277 0.2129
| 23> C -0.8765 0.3483 0.3273
| 24> C 0.3898 0.1480 -0.4865
| 25> C 1.4907 0.9330 -0.3858
| 26> C 2.7383 0.5574 -1.1526
| 27> O 3.7786 0.1877 -0.2509
| 28> C 3.7505 -0.9852 0.5126
| 29> O 2.8045 -1.8111 0.3941
| 30> C 4.8820 -1.2845 1.4410
| 31> C 5.9109 -2.1276 0.7401
| 32> C 5.8525 -3.5260 0.8209
| 33> C 6.7882 -4.3091 0.1436
| 34> C 7.7859 -3.7094 -0.6313
| 35> O 8.7039 -4.5240 -1.2938
| 36> C 7.8496 -2.3073 -0.7364
| 37> O 8.8557 -1.7319 -1.5290
| 38> C 9.0235 -0.3322 -1.7301
| 39> C 6.9026 -1.5227 -0.0480
| 40> C 1.5353 2.1887 0.4742
| 41> C 0.4775 3.2108 0.0029
| 42> O 0.4910 3.3355 -1.3975
| 43> C 0.6064 4.5913 0.5628
| 44> O 1.6870 5.2214 0.7122
| 45> C -0.7241 5.1503 0.7672
| 46> C -1.0287 6.5657 1.1396
| 47> C -1.6275 4.1835 0.6525
| 48> C -0.9320 2.8579 0.5532
| 49> O -3.9877 -0.1258 -0.4930
| 50> H -2.3099 -1.9715 -3.4776
| 51> H -3.1087 -3.5805 -3.0698
| 52> H -4.0405 -2.6928 0.3899
| 53> H -4.9056 -3.3370 -1.0481
| 54> H -3.3185 -4.0406 -0.5338
| 55> H -3.0374 0.2774 -2.9423
| 56> H -1.3632 -0.1704 -2.5298
| 57> H -1.1586 2.0045 -2.1218
| 58> H -2.9065 3.6694 -1.6260
| 59> H -4.1217 2.3502 -1.4101
| 60> H -3.3416 2.6306 -3.0079
| 61> H -5.5169 1.1878 1.2814
| 62> H -4.5088 0.7900 2.6979
| 63> H -4.4362 -1.5208 3.5895
| 64> H -5.5989 -3.6887 3.7957
| 65> H -7.3717 -4.3124 2.1796
| 66> H -7.9855 -2.7569 0.3500
| 67> H -6.8350 -0.5834 0.1281
| 68> H -1.3393 -1.8069 0.2848
| 69> H -0.5489 0.3772 1.3926
| 70> H 0.4412 -0.7377 -1.1146
| 71> H 2.5593 -0.2684 -1.8758
| 72> H 3.0742 1.4358 -1.7422
| 73> H 4.4971 -1.8087 2.3432
| 74> H 5.3385 -0.3320 1.7874
| 75> H 5.0815 -4.0096 1.4080
| 76> H 6.7358 -5.3878 0.2172
| 77> H 9.4466 -4.1449 -1.8688
| 78> H 9.8907 -0.1632 -2.4010
| 79> H 9.2210 0.1719 -0.7606
| 80> H 8.1165 0.0961 -2.2066
| 81> H 6.9263 -0.4436 -0.1212
| 82> H 1.3961 1.9196 1.5435
| 83> H 2.5426 2.6540 0.3963
| 84> H 1.4051 3.6163 -1.6682
| 85> H -0.2579 7.2438 0.7176
| 86> H -1.0346 6.6635 2.2452
| 87> H -2.0209 6.8656 0.7404
| 88> H -2.6866 4.3198 0.8314
| 89> H -0.7902 2.6093 1.6334
| 90> *
| 91> 
| 92>                          ****END OF INPUT****
================================================================================

                       ****************************
                       * Single Point Calculation *
                       ****************************

---------------------------------
CARTESIAN COORDINATES (ANGSTROEM)
---------------------------------
  C     -2.846200   -2.574000   -2.756500
  C     -3.185600   -2.130700   -1.529800
  C     -3.905600   -3.102200   -0.626900
  C     -2.828600   -0.726900   -1.008200
  C     -2.306200    0.234700   -2.104500
  C     -2.031700    1.662100   -1.549500
  C     -3.172000    2.632400   -1.910000
  C     -1.719300    1.627300   -0.003200
  O     -2.962900    1.590400    0.727700
  C     -3.597500    0.301400    0.789700
  C     -4.828400    0.420900    1.698900
  C     -5.562100   -0.886300    1.852700
  C     -5.216400   -1.776100    2.883700
  C     -5.870300   -3.006200    3.001100
  C     -6.868900   -3.358300    2.089200
  C     -7.216000   -2.480600    1.058900
  C     -6.565000   -1.249200    0.937900
  O     -2.710800   -0.658700    1.301300
  C     -1.862900   -0.827700    0.212900
  C     -0.876500    0.348300    0.327300
  C      0.389800    0.148000   -0.486500
  C      1.490700    0.933000   -0.385800
  C      2.738300    0.557400   -1.152600
  O      3.778600    0.187700   -0.250900
  C      3.750500   -0.985200    0.512600
  O      2.804500   -1.811100    0.394100
  C      4.882000   -1.284500    1.441000
  C      5.910900   -2.127600    0.740100
  C      5.852500   -3.526000    0.820900
  C      6.788200   -4.309100    0.143600
  C      7.785900   -3.709400   -0.631300
  O      8.703900   -4.524000   -1.293800
  C      7.849600   -2.307300   -0.736400
  O      8.855700   -1.731900   -1.529000
  C      9.023500   -0.332200   -1.730100
  C      6.902600   -1.522700   -0.048000
  C      1.535300    2.188700    0.474200
  C      0.477500    3.210800    0.002900
  O      0.491000    3.335500   -1.397500
  C      0.606400    4.591300    0.562800
  O      1.687000    5.221400    0.712200
  C     -0.724100    5.150300    0.767200
  C     -1.028700    6.565700    1.139600
  C     -1.627500    4.183500    0.652500
  C     -0.932000    2.857900    0.553200
  O     -3.987700   -0.125800   -0.493000
  H     -2.309900   -1.971500   -3.477600
  H     -3.108700   -3.580500   -3.069800
  H     -4.040500   -2.692800    0.389900
  H     -4.905600   -3.337000   -1.048100
  H     -3.318500   -4.040600   -0.533800
  H     -3.037400    0.277400   -2.942300
  H     -1.363200   -0.170400   -2.529800
  H     -1.158600    2.004500   -2.121800
  H     -2.906500    3.669400   -1.626000
  H     -4.121700    2.350200   -1.410100
  H     -3.341600    2.630600   -3.007900
  H     -5.516900    1.187800    1.281400
  H     -4.508800    0.790000    2.697900
  H     -4.436200   -1.520800    3.589500
  H     -5.598900   -3.688700    3.795700
  H     -7.371700   -4.312400    2.179600
  H     -7.985500   -2.756900    0.350000
  H     -6.835000   -0.583400    0.128100
  H     -1.339300   -1.806900    0.284800
  H     -0.548900    0.377200    1.392600
  H      0.441200   -0.737700   -1.114600
  H      2.559300   -0.268400   -1.875800
  H      3.074200    1.435800   -1.742200
  H      4.497100   -1.808700    2.343200
  H      5.338500   -0.332000    1.787400
  H      5.081500   -4.009600    1.408000
  H      6.735800   -5.387800    0.217200
  H      9.446600   -4.144900   -1.868800
  H      9.890700   -0.163200   -2.401000
  H      9.221000    0.171900   -0.760600
  H      8.116500    0.096100   -2.206600
  H      6.926300   -0.443600   -0.121200
  H      1.396100    1.919600    1.543500
  H      2.542600    2.654000    0.396300
  H      1.405100    3.616300   -1.668200
  H     -0.257900    7.243800    0.717600
  H     -1.034600    6.663500    2.245200
  H     -2.020900    6.865600    0.740400
  H     -2.686600    4.319800    0.831400
  H     -0.790200    2.609300    1.633400

----------------------------
CARTESIAN COORDINATES (A.U.)
----------------------------
  NO LB      ZA    FRAG     MASS         X           Y           Z
   0 C     6.0000    0    12.011   -5.378539   -4.864155   -5.209030
   1 C     6.0000    0    12.011   -6.019912   -4.026439   -2.890903
   2 C     6.0000    0    12.011   -7.380514   -5.862308   -1.184669
   3 C     6.0000    0    12.011   -5.345279   -1.373642   -1.905222
   4 C     6.0000    0    12.011   -4.358086    0.443519   -3.976929
   5 C     6.0000    0    12.011   -3.839357    3.140914   -2.928131
   6 C     6.0000    0    12.011   -5.994211    4.974515   -3.609377
   7 C     6.0000    0    12.011   -3.249006    3.075151   -0.006047
   8 O     8.0000    0    15.999   -5.599070    3.005420    1.375154
   9 C     6.0000    0    12.011   -6.798290    0.569563    1.492317
  10 C     6.0000    0    12.011   -9.124354    0.795386    3.210456
  11 C     6.0000    0    12.011  -10.510846   -1.674864    3.501096
  12 C     6.0000    0    12.011   -9.857567   -3.356343    5.449403
  13 C     6.0000    0    12.011  -11.093259   -5.680895    5.671257
  14 C     6.0000    0    12.011  -12.980340   -6.346267    3.948016
  15 C     6.0000    0    12.011  -13.636264   -4.687655    2.001031
  16 C     6.0000    0    12.011  -12.406052   -2.360646    1.772374
  17 O     8.0000    0    15.999   -5.122670   -1.244763    2.459101
  18 C     6.0000    0    12.011   -3.520371   -1.564126    0.402323
  19 C     6.0000    0    12.011   -1.656345    0.658192    0.618507
  20 C     6.0000    0    12.011    0.736615    0.279679   -0.919352
  21 C     6.0000    0    12.011    2.817015    1.763114   -0.729056
  22 C     6.0000    0    12.011    5.174637    1.053333   -2.178098
  23 O     8.0000    0    15.999    7.140519    0.354702   -0.474132
  24 C     6.0000    0    12.011    7.087418   -1.861758    0.968674
  25 O     8.0000    0    15.999    5.299737   -3.422483    0.744741
  26 C     6.0000    0    12.011    9.225643   -2.427353    2.723095
  27 C     6.0000    0    12.011   11.169982   -4.020581    1.398586
  28 C     6.0000    0    12.011   11.059622   -6.663174    1.551276
  29 C     6.0000    0    12.011   12.827839   -8.143019    0.271365
  30 C     6.0000    0    12.011   14.713219   -7.009750   -1.192984
  31 O     8.0000    0    15.999   16.447987   -8.549121   -2.444928
  32 C     6.0000    0    12.011   14.833594   -4.360165   -1.391594
  33 O     8.0000    0    15.999   16.734848   -3.272817   -2.889391
  34 C     6.0000    0    12.011   17.051944   -0.627767   -3.269415
  35 C     6.0000    0    12.011   13.044024   -2.877486   -0.090707
  36 C     6.0000    0    12.011    2.901297    4.136044    0.896108
  37 C     6.0000    0    12.011    0.902344    6.067533    0.005480
  38 O     8.0000    0    15.999    0.927856    6.303182   -2.640892
  39 C     6.0000    0    12.011    1.145930    8.676300    1.063538
  40 O     8.0000    0    15.999    3.187968    9.867016    1.345863
  41 C     6.0000    0    12.011   -1.368351    9.732657    1.449798
  42 C     6.0000    0    12.011   -1.943961   12.407375    2.153532
  43 C     6.0000    0    12.011   -3.075529    7.905669    1.233046
  44 C     6.0000    0    12.011   -1.761225    5.400648    1.045396
  45 O     8.0000    0    15.999   -7.535661   -0.237728   -0.931635
  46 H     1.0000    0     1.008   -4.365078   -3.725595   -6.571712
  47 H     1.0000    0     1.008   -5.874592   -6.766164   -5.801081
  48 H     1.0000    0     1.008   -7.635438   -5.088655    0.736804
  49 H     1.0000    0     1.008   -9.270241   -6.306016   -1.980622
  50 H     1.0000    0     1.008   -6.271056   -7.635627   -1.008736
  51 H     1.0000    0     1.008   -5.739854    0.524210   -5.560141
  52 H     1.0000    0     1.008   -2.576075   -0.322009   -4.780629
  53 H     1.0000    0     1.008   -2.189437    3.787956   -4.009621
  54 H     1.0000    0     1.008   -5.492489    6.934161   -3.072695
  55 H     1.0000    0     1.008   -7.788884    4.441234   -2.664703
  56 H     1.0000    0     1.008   -6.314709    4.971114   -5.684107
  57 H     1.0000    0     1.008  -10.425430    2.244617    2.421495
  58 H     1.0000    0     1.008   -8.520397    1.492884    5.098292
  59 H     1.0000    0     1.008   -8.383203   -2.873896    6.783172
  60 H     1.0000    0     1.008  -10.580388   -6.970633    7.172833
  61 H     1.0000    0     1.008  -13.930494   -8.149255    4.118847
  62 H     1.0000    0     1.008  -15.090408   -5.209786    0.661404
  63 H     1.0000    0     1.008  -12.916278   -1.102466    0.242074
  64 H     1.0000    0     1.008   -2.530910   -3.414546    0.538194
  65 H     1.0000    0     1.008   -1.037271    0.712805    2.631633
  66 H     1.0000    0     1.008    0.833747   -1.394051   -2.106289
  67 H     1.0000    0     1.008    4.836376   -0.507202   -3.544748
  68 H     1.0000    0     1.008    5.809396    2.713269   -3.292281
  69 H     1.0000    0     1.008    8.498287   -3.417948    4.428006
  70 H     1.0000    0     1.008   10.088303   -0.627389    3.377696
  71 H     1.0000    0     1.008    9.602643   -7.577046    2.660734
  72 H     1.0000    0     1.008   12.728817  -10.181466    0.410449
  73 H     1.0000    0     1.008   17.851487   -7.832726   -3.531520
  74 H     1.0000    0     1.008   18.690714   -0.308403   -4.537232
  75 H     1.0000    0     1.008   17.425165    0.324844   -1.437326
  76 H     1.0000    0     1.008   15.337962    0.181603   -4.169870
  77 H     1.0000    0     1.008   13.088810   -0.838283   -0.229035
  78 H     1.0000    0     1.008    2.638247    3.627518    2.916792
  79 H     1.0000    0     1.008    4.804818    5.015333    0.748898
  80 H     1.0000    0     1.008    2.655254    6.833817   -3.152441
  81 H     1.0000    0     1.008   -0.487360   13.688798    1.356067
  82 H     1.0000    0     1.008   -1.955111   12.592190    4.242813
  83 H     1.0000    0     1.008   -3.818948   12.974104    1.399153
  84 H     1.0000    0     1.008   -5.076938    8.163239    1.571118
  85 H     1.0000    0     1.008   -1.493262    4.930862    3.086679

--------------------------------
INTERNAL COORDINATES (ANGSTROEM)
--------------------------------
 C      0   0   0     0.000000000000     0.00000000     0.00000000
 C      1   0   0     1.347775997709     0.00000000     0.00000000
 C      2   1   0     1.509119166931   116.93341901     0.00000000
 C      2   1   3     1.539535644277   123.35919080   177.61270329
 C      4   2   1     1.549015819803   113.85778419    11.95028383
 C      5   4   2     1.555906812762   112.12034612   176.88210253
 C      6   5   4     1.540041048154   111.33871174   258.63333559
 C      6   5   4     1.577925375295   111.36155504    25.66452738
 O      8   6   5     1.442954392904   109.04515365   277.42016139
 C      9   8   6     1.438082807073   115.15542507    78.94554556
 C     10   9   8     1.534939640507   108.03682403   175.12239497
 C     11  10   9     1.506898128607   112.54263799   180.87974266
 C     12  11  10     1.405067090925   120.29503170    89.61501630
 C     13  12  11     1.398039334211   120.24818509   181.93160451
 C     14  13  12     1.397404014593   120.07564257     0.22018889
 C     15  14  13     1.397266542217   120.02824683   359.95575935
 C     16  15  14     1.398137318006   120.09211516     0.02452337
 O     10   9   8     1.403482618346   110.49261250    54.59845458
 C     18  10   9     1.390003586326   100.55230562   286.27502005
 C     19  18  10     1.539171309504   103.87668452    81.89173365
 C     20  19  18     1.518521063403   113.19147991   162.25345133
 C     21  20  19     1.355856297695   124.11972716   190.86013685
 C     22  21  20     1.511807977225   119.24509886   174.25875735
 O     23  22  21     1.425470122451   110.23353452   246.95935960
 C     24  23  22     1.399791509476   123.20859190    69.53673949
 O     25  24  23     1.261375859924   120.82685302     2.82943583
 C     25  24  23     1.493920781032   119.44782237   180.52354937
 C     27  25  24     1.503566968911   109.93420321   267.60356772
 C     28  27  25     1.401949271550   120.26110776   267.72093156
 C     29  28  27     1.395534087724   120.25334464   178.43223837
 C     30  29  28     1.398397436353   120.44194543   359.44669912
 O     31  30  29     1.394705492210   118.83871736   179.98929599
 C     31  30  29     1.407475793753   120.05815516   359.79329988
 O     33  31  30     1.404114357878   118.86917310   180.46050569
 C     34  33  31     1.423993728919   124.53832123   179.36086174
 C     28  27  25     1.403735911773   120.23357703    84.92672370
 C     22  21  20     1.522619995271   122.90224852   354.39007768
 C     37  22  21     1.544588275237   110.69076867   299.56383260
 O     38  37  22     1.406005867698   110.85640535   314.70210550
 C     38  37  22     1.495287086148   115.95348734   192.63805360
 O     40  38  37     1.259778841702   125.45903563    41.73454034
 C     40  38  37     1.457563243911   109.14112961   215.37273753
 C     42  40  38     1.494931463312   125.73517744   188.55007533
 C     42  40  38     1.328152811238   109.24531867    12.40392487
 C     44  42  40     1.500265343198   109.48559268     8.05119660
 O      4   2   1     1.403661305301   108.86560596   129.71870206
 H      1   2   3     1.081946925685   123.24868621   181.33941157
 H      1   2   3     1.086326557716   120.42347987     1.37198526
 H      3   2   1     1.104395133093   111.74518586   173.55153275
 H      3   2   1     1.110198396684   109.81009976   294.02947206
 H      3   2   1     1.110832381595   109.98721206    54.25108064
 H      5   4   2     1.112827735995   109.57580734    53.87842935
 H      5   4   2     1.110961340461   109.31955520   297.54949160
 H      6   5   4     1.098666764765   103.90448339   145.33783962
 H      7   6   5     1.107481489687   110.63517301   187.33584500
 H      7   6   5     1.109714801199   111.59217938    65.62044099
 H      7   6   5     1.110923854276   110.08162838   305.32931040
 H     11  10   9     1.111968574196   109.13663609    59.00180476
 H     11  10   9     1.111926243058   109.11871767   302.82826057
 H     13  12  11     1.082609703448   120.42101522     1.40009482
 H     14  13  12     1.082059781158   119.95539071   179.87617872
 H     15  14  13     1.082260047308   119.97470327   179.79194188
 H     16  15  14     1.082132685949   119.95409853   179.64761625
 H     17  16  15     1.082573637218   119.35901640   179.26636828
 H     19  18  10     1.112726026477   110.08631968   201.34767124
 H     20  19  18     1.114908543334   106.20844174    46.72551351
 H     21  20  19     1.087021646519   117.16588203     4.75249910
 H     23  22  21     1.112207210910   112.42401187     9.62459861
 H     23  22  21     1.109974562772   108.81670763   127.85821799
 H     27  25  24     1.112159381564   109.65989040   145.88825705
 H     27  25  24     1.111594107577   109.45291479    28.73373364
 H     29  28  27     1.083049569503   120.41656037   358.48307334
 H     30  29  28     1.082476978970   119.58625453   179.71773246
 H     32  31  30     1.012889480644   122.25447637   179.96567427
 H     35  34  33     1.109370835203   109.10250220   180.21790284
 H     35  34  33     1.110429335888   110.11361513    61.05688306
 H     35  34  33     1.110469333210   110.08809811   299.39342190
 H     36  28  27     1.081839516749   118.90081738     1.45944627
 H     37  22  21     1.111392792850   109.88130206    63.26824794
 H     37  22  21     1.112306518007   109.38759077   179.70856950
 H     39  38  37     0.993833959975   107.76922054   301.76510954
 H     43  42  40     1.109971283412   110.01174559    31.14478231
 H     43  42  40     1.109932885358   109.42938175   271.19359956
 H     43  42  40     1.110748166778   110.37199690   150.95228268
 H     44  42  40     1.082716818933   124.01775476   175.34496494
 H     45  44  42     1.117470912373   101.03517854    85.55565244

---------------------------
INTERNAL COORDINATES (A.U.)
---------------------------
 C      0   0   0     0.000000000000     0.00000000     0.00000000
 C      1   0   0     2.546927525542     0.00000000     0.00000000
 C      2   1   0     2.851821928952   116.93341901     0.00000000
 C      2   1   3     2.909300741094   123.35919080   177.61270329
 C      4   2   1     2.927215676539   113.85778419    11.95028383
 C      5   4   2     2.940237766023   112.12034612   176.88210253
 C      6   5   4     2.910255816009   111.33871174   258.63333559
 C      6   5   4     2.981846819073   111.36155504    25.66452738
 O      8   6   5     2.726788626327   109.04515365   277.42016139
 C      9   8   6     2.717582663269   115.15542507    78.94554556
 C     10   9   8     2.900615552658   108.03682403   175.12239497
 C     11  10   9     2.847624774786   112.54263799   180.87974266
 C     12  11  10     2.655192001633   120.29503170    89.61501630
 C     13  12  11     2.641911466108   120.24818509   181.93160451
 C     14  13  12     2.640710886022   120.07564257     0.22018889
 C     15  14  13     2.640451100882   120.02824683   359.95575935
 C     16  15  14     2.642096628646   120.09211516     0.02452337
 O     10   9   8     2.652197782393   110.49261250    54.59845458
 C     18  10   9     2.626726103325   100.55230562   286.27502005
 C     19  18  10     2.908612248151   103.87668452    81.89173365
 C     20  19  18     2.869588938423   113.19147991   162.25345133
 C     21  20  19     2.562197079597   124.11972716   190.86013685
 C     22  21  20     2.856903044032   119.24509886   174.25875735
 O     23  22  21     2.693748143519   110.23353452   246.95935960
 C     24  23  22     2.645222597497   123.20859190    69.53673949
 O     25  24  23     2.383654927197   120.82685302     2.82943583
 C     25  24  23     2.823101141925   119.44782237   180.52354937
 C     27  25  24     2.841329795252   109.93420321   267.60356772
 C     28  27  25     2.649300176880   120.26110776   267.72093156
 C     29  28  27     2.637177236350   120.25334464   178.43223837
 C     30  29  28     2.642588181086   120.44194543   359.44669912
 O     31  30  29     2.635611417752   118.83871736   179.98929599
 C     31  30  29     2.659743790316   120.05815516   359.79329988
 O     33  31  30     2.653391597097   118.86917310   180.46050569
 C     34  33  31     2.690958164078   124.53832123   179.36086174
 C     28  27  25     2.652676437600   120.23357703    84.92672370
 C     22  21  20     2.877334797095   122.90224852   354.39007768
 C     37  22  21     2.918848829864   110.69076867   299.56383260
 O     38  37  22     2.656966032635   110.85640535   314.70210550
 C     38  37  22     2.825683084408   115.95348734   192.63805360
 O     40  38  37     2.380637000125   125.45903563    41.73454034
 C     40  38  37     2.754395353861   109.14112961   215.37273753
 C     42  40  38     2.825011054642   125.73517744   188.55007533
 C     42  40  38     2.509845077238   109.24531867    12.40392487
 C     44  42  40     2.835090626857   109.48559268     8.05119660
 O      4   2   1     2.652535451802   108.86560596   129.71870206
 H      1   2   3     2.044583380983   123.24868621   181.33941157
 H      1   2   3     2.052859686089   120.42347987     1.37198526
 H      3   2   1     2.087004345182   111.74518586   173.55153275
 H      3   2   1     2.097970924051   109.81009976   294.02947206
 H      3   2   1     2.099168981906   109.98721206    54.25108064
 H      5   4   2     2.102939655262   109.57580734    53.87842935
 H      5   4   2     2.099412678846   109.31955520   297.54949160
 H      6   5   4     2.076179297848   103.90448339   145.33783962
 H      7   6   5     2.092836713896   110.63517301   187.33584500
 H      7   6   5     2.097057061025   111.59217938    65.62044099
 H      7   6   5     2.099341840222   110.08162838   305.32931040
 H     11  10   9     2.101316074758   109.13663609    59.00180476
 H     11  10   9     2.101236080499   109.11871767   302.82826057
 H     13  12  11     2.045835849443   120.42101522     1.40009482
 H     14  13  12     2.044796646920   119.95539071   179.87617872
 H     15  14  13     2.045175095098   119.97470327   179.79194188
 H     16  15  14     2.044934417009   119.95409853   179.64761625
 H     17  16  15     2.045767694146   119.35901640   179.26636828
 H     19  18  10     2.102747452129   110.08631968   201.34767124
 H     20  19  18     2.106871811271   106.20844174    46.72551351
 H     21  20  19     2.054173213564   117.16588203     4.75249910
 H     23  22  21     2.101767032792   112.42401187     9.62459861
 H     23  22  21     2.097547939257   108.81670763   127.85821799
 H     27  25  24     2.101676648426   109.65989040   145.88825705
 H     27  25  24     2.100608435401   109.45291479    28.73373364
 H     29  28  27     2.046667075821   120.41656037   358.48307334
 H     30  29  28     2.045585036528   119.58625453   179.71773246
 H     32  31  30     1.914083722348   122.25447637   179.96567427
 H     35  34  33     2.096407059494   109.10250220   180.21790284
 H     35  34  33     2.098407335900   110.11361513    61.05688306
 H     35  34  33     2.098482919885   110.08809811   299.39342190
 H     36  28  27     2.044380407510   118.90081738     1.45944627
 H     37  22  21     2.100228005701   109.88130206    63.26824794
 H     37  22  21     2.101954696008   109.38759077   179.70856950
 H     39  38  37     1.878074006944   107.76922054   301.76510954
 H     43  42  40     2.097541742166   110.01174559    31.14478231
 H     43  42  40     2.097469180360   109.42938175   271.19359956
 H     43  42  40     2.099009838965   110.37199690   150.95228268
 H     44  42  40     2.046038268373   124.01775476   175.34496494
 H     45  44  42     2.111713987008   101.03517854    85.55565244

---------------------
BASIS SET INFORMATION
---------------------
There are 3 groups of distinct atoms

 Group   1 Type C   : 10s4p1d contracted to 3s2p1d pattern {631/31/1}
 Group   2 Type O   : 10s4p1d contracted to 3s2p1d pattern {631/31/1}
 Group   3 Type H   : 4s contracted to 2s pattern {31}

Atom   0C    basis set group =>   1
Atom   1C    basis set group =>   1
Atom   2C    basis set group =>   1
Atom   3C    basis set group =>   1
Atom   4C    basis set group =>   1
Atom   5C    basis set group =>   1
Atom   6C    basis set group =>   1
Atom   7C    basis set group =>   1
Atom   8O    basis set group =>   2
Atom   9C    basis set group =>   1
Atom  10C    basis set group =>   1
Atom  11C    basis set group =>   1
Atom  12C    basis set group =>   1
Atom  13C    basis set group =>   1
Atom  14C    basis set group =>   1
Atom  15C    basis set group =>   1
Atom  16C    basis set group =>   1
Atom  17O    basis set group =>   2
Atom  18C    basis set group =>   1
Atom  19C    basis set group =>   1
Atom  20C    basis set group =>   1
Atom  21C    basis set group =>   1
Atom  22C    basis set group =>   1
Atom  23O    basis set group =>   2
Atom  24C    basis set group =>   1
Atom  25O    basis set group =>   2
Atom  26C    basis set group =>   1
Atom  27C    basis set group =>   1
Atom  28C    basis set group =>   1
Atom  29C    basis set group =>   1
Atom  30C    basis set group =>   1
Atom  31O    basis set group =>   2
Atom  32C    basis set group =>   1
Atom  33O    basis set group =>   2
Atom  34C    basis set group =>   1
Atom  35C    basis set group =>   1
Atom  36C    basis set group =>   1
Atom  37C    basis set group =>   1
Atom  38O    basis set group =>   2
Atom  39C    basis set group =>   1
Atom  40O    basis set group =>   2
Atom  41C    basis set group =>   1
Atom  42C    basis set group =>   1
Atom  43C    basis set group =>   1
Atom  44C    basis set group =>   1
Atom  45O    basis set group =>   2
Atom  46H    basis set group =>   3
Atom  47H    basis set group =>   3
Atom  48H    basis set group =>   3
Atom  49H    basis set group =>   3
Atom  50H    basis set group =>   3
Atom  51H    basis set group =>   3
Atom  52H    basis set group =>   3
Atom  53H    basis set group =>   3
Atom  54H    basis set group =>   3
Atom  55H    basis set group =>   3
Atom  56H    basis set group =>   3
Atom  57H    basis set group =>   3
Atom  58H    basis set group =>   3
Atom  59H    basis set group =>   3
Atom  60H    basis set group =>   3
Atom  61H    basis set group =>   3
Atom  62H    basis set group =>   3
Atom  63H    basis set group =>   3
Atom  64H    basis set group =>   3
Atom  65H    basis set group =>   3
Atom  66H    basis set group =>   3
Atom  67H    basis set group =>   3
Atom  68H    basis set group =>   3
Atom  69H    basis set group =>   3
Atom  70H    basis set group =>   3
Atom  71H    basis set group =>   3
Atom  72H    basis set group =>   3
Atom  73H    basis set group =>   3
Atom  74H    basis set group =>   3
Atom  75H    basis set group =>   3
Atom  76H    basis set group =>   3
Atom  77H    basis set group =>   3
Atom  78H    basis set group =>   3
Atom  79H    basis set group =>   3
Atom  80H    basis set group =>   3
Atom  81H    basis set group =>   3
Atom  82H    basis set group =>   3
Atom  83H    basis set group =>   3
Atom  84H    basis set group =>   3
Atom  85H    basis set group =>   3
---------------------------------
AUXILIARY/J BASIS SET INFORMATION
---------------------------------
There are 3 groups of distinct atoms

 Group   1 Type C   : 12s5p4d2f1g contracted to 6s4p3d1f1g pattern {711111/2111/211/2/1}
 Group   2 Type O   : 12s5p4d2f1g contracted to 6s4p3d1f1g pattern {711111/2111/211/2/1}
 Group   3 Type H   : 5s2p1d contracted to 3s1p1d pattern {311/2/1}

Atom   0C    basis set group =>   1
Atom   1C    basis set group =>   1
Atom   2C    basis set group =>   1
Atom   3C    basis set group =>   1
Atom   4C    basis set group =>   1
Atom   5C    basis set group =>   1
Atom   6C    basis set group =>   1
Atom   7C    basis set group =>   1
Atom   8O    basis set group =>   2
Atom   9C    basis set group =>   1
Atom  10C    basis set group =>   1
Atom  11C    basis set group =>   1
Atom  12C    basis set group =>   1
Atom  13C    basis set group =>   1
Atom  14C    basis set group =>   1
Atom  15C    basis set group =>   1
Atom  16C    basis set group =>   1
Atom  17O    basis set group =>   2
Atom  18C    basis set group =>   1
Atom  19C    basis set group =>   1
Atom  20C    basis set group =>   1
Atom  21C    basis set group =>   1
Atom  22C    basis set group =>   1
Atom  23O    basis set group =>   2
Atom  24C    basis set group =>   1
Atom  25O    basis set group =>   2
Atom  26C    basis set group =>   1
Atom  27C    basis set group =>   1
Atom  28C    basis set group =>   1
Atom  29C    basis set group =>   1
Atom  30C    basis set group =>   1
Atom  31O    basis set group =>   2
Atom  32C    basis set group =>   1
Atom  33O    basis set group =>   2
Atom  34C    basis set group =>   1
Atom  35C    basis set group =>   1
Atom  36C    basis set group =>   1
Atom  37C    basis set group =>   1
Atom  38O    basis set group =>   2
Atom  39C    basis set group =>   1
Atom  40O    basis set group =>   2
Atom  41C    basis set group =>   1
Atom  42C    basis set group =>   1
Atom  43C    basis set group =>   1
Atom  44C    basis set group =>   1
Atom  45O    basis set group =>   2
Atom  46H    basis set group =>   3
Atom  47H    basis set group =>   3
Atom  48H    basis set group =>   3
Atom  49H    basis set group =>   3
Atom  50H    basis set group =>   3
Atom  51H    basis set group =>   3
Atom  52H    basis set group =>   3
Atom  53H    basis set group =>   3
Atom  54H    basis set group =>   3
Atom  55H    basis set group =>   3
Atom  56H    basis set group =>   3
Atom  57H    basis set group =>   3
Atom  58H    basis set group =>   3
Atom  59H    basis set group =>   3
Atom  60H    basis set group =>   3
Atom  61H    basis set group =>   3
Atom  62H    basis set group =>   3
Atom  63H    basis set group =>   3
Atom  64H    basis set group =>   3
Atom  65H    basis set group =>   3
Atom  66H    basis set group =>   3
Atom  67H    basis set group =>   3
Atom  68H    basis set group =>   3
Atom  69H    basis set group =>   3
Atom  70H    basis set group =>   3
Atom  71H    basis set group =>   3
Atom  72H    basis set group =>   3
Atom  73H    basis set group =>   3
Atom  74H    basis set group =>   3
Atom  75H    basis set group =>   3
Atom  76H    basis set group =>   3
Atom  77H    basis set group =>   3
Atom  78H    basis set group =>   3
Atom  79H    basis set group =>   3
Atom  80H    basis set group =>   3
Atom  81H    basis set group =>   3
Atom  82H    basis set group =>   3
Atom  83H    basis set group =>   3
Atom  84H    basis set group =>   3
Atom  85H    basis set group =>   3
------------------------------------------------------------------------------
                             ORCA STARTUP CALCULATIONS
                           -- RI-GTO INTEGRALS CHOSEN --
------------------------------------------------------------------------------
------------------------------------------------------------------------------
                   ___                                                        
                  /   \      - P O W E R E D   B Y -                         
                 /     \                                                     
                 |  |  |   _    _      __       _____    __    __             
                 |  |  |  | |  | |    /  \     |  _  \  |  |  /  |          
                  \  \/   | |  | |   /    \    | | | |  |  | /  /          
                 / \  \   | |__| |  /  /\  \   | |_| |  |  |/  /          
                |  |  |   |  __  | /  /__\  \  |    /   |      \           
                |  |  |   | |  | | |   __   |  |    \   |  |\   \          
                \     /   | |  | | |  |  |  |  | |\  \  |  | \   \       
                 \___/    |_|  |_| |__|  |__|  |_| \__\ |__|  \__/        
                                                                              
                      - O R C A' S   B I G   F R I E N D -                    
                                      &                                       
                       - I N T E G R A L  F E E D E R -                       
                                                                              
 v1 FN, 2020, v2 2021, v3 2022-2024                                           
------------------------------------------------------------------------------


----------------------
SHARK INTEGRAL PACKAGE
----------------------

Number of atoms                             ...     86
Number of basis functions                   ...    724
Number of shells                            ...    356
Maximum angular momentum                    ...      2
Integral batch strategy                     ... SHARK/LIBINT Hybrid
RI-J (if used) integral strategy            ... SPLIT-RIJ (Revised 2003 algorithm where possible)
Printlevel                                  ...      1
Contraction scheme used                     ... SEGMENTED contraction
Prescreening option                         ... SCHWARTZ
   Thresh                                   ... 1.000e-10
   Tcut                                     ... 1.000e-11
   Tpresel                                  ... 1.000e-11 
Coulomb Range Separation                    ... NOT USED
Exchange Range Separation                   ... NOT USED
Multipole approximations                    ... NOT USED
Finite Nucleus Model                        ... NOT USED
CABS basis                                  ... NOT available
Auxiliary Coulomb fitting basis             ... AVAILABLE
   # of basis functions in Aux-J            ...   2694
   # of shells in Aux-J                     ...    890
   Maximum angular momentum in Aux-J        ...      4
Auxiliary J/K fitting basis                 ... NOT available
Auxiliary Correlation fitting basis         ... NOT available
Auxiliary 'external' fitting basis          ... NOT available

Checking pre-screening integrals            ... done (  0.0 sec) Dimension = 356
Check shell pair data                       ... done (  0.0 sec)
Shell pair information
Shell pair cut-off parameter TPreSel        ...   1.0e-11
Total number of shell pairs                 ...     63546
Shell pairs after pre-screening             ...     29504
Total number of primitive shell pairs       ...    362761
Primitive shell pairs kept                  ...     85697
          la=0 lb=0:  10442 shell pairs
          la=1 lb=0:  10223 shell pairs
          la=1 lb=1:   2488 shell pairs
          la=2 lb=0:   3950 shell pairs
          la=2 lb=1:   2014 shell pairs
          la=2 lb=2:    387 shell pairs

Calculating one electron integrals          ... done (  0.7 sec)
Calculating RI/J V-Matrix + Cholesky decomp.... done (  0.9 sec)
Calculating Nuclear repulsion               ... done (  0.0 sec) ENN=   5826.504305973375 Eh

Diagonalization of the overlap matrix:
Smallest eigenvalue                        ... 4.460e-04
Time for diagonalization                   ...    0.118 sec
Threshold for overlap eigenvalues          ... 1.000e-07
Number of eigenvalues below threshold      ... 0
Time for construction of square roots      ...    0.072 sec
Total time needed                          ...    0.201 sec

-------------------
DFT GRID GENERATION
-------------------

General Integration Accuracy     IntAcc      ... 4.388
Radial Grid Type                 RadialGrid  ... OptM3 with GC (2021)
Angular Grid (max. ang.)         AngularGrid ... 4 (Lebedev-302)
Angular grid pruning method      GridPruning ... 4 (adaptive)
Weight generation scheme         WeightScheme... mBecke (2022)
Basis function cutoff            BFCut       ... 1.0000e-10
Integration weight cutoff        WCut        ... 1.0000e-14
Partially contracted basis set               ... off
Rotationally invariant grid construction     ... off
Angular grids for H and He will be reduced by one unit

Total number of grid points                  ...   398927
Total number of batches                      ...     6279
Average number of points per batch           ...       63
Average number of grid points per atom       ...     4639

--------------------
COSX GRID GENERATION
--------------------

GRIDX 1
-------
General Integration Accuracy     IntAcc      ... 3.816
Radial Grid Type                 RadialGrid  ... OptM3 with GC (2021)
Angular Grid (max. ang.)         AngularGrid ... 1 (Lebedev-50)
Angular grid pruning method      GridPruning ... 4 (adaptive)
Weight generation scheme         WeightScheme... mBecke (2022)
Basis function cutoff            BFCut       ... 1.0000e-10
Integration weight cutoff        WCut        ... 1.0000e-14
Partially contracted basis set               ... on
Rotationally invariant grid construction     ... off
Angular grids for H and He will be reduced by one unit

Total number of grid points                  ...    50549
Total number of batches                      ...      449
Average number of points per batch           ...      112
Average number of grid points per atom       ...      588
UseSFitting                                  ... on

GRIDX 2
-------
General Integration Accuracy     IntAcc      ... 4.020
Radial Grid Type                 RadialGrid  ... OptM3 with GC (2021)
Angular Grid (max. ang.)         AngularGrid ... 2 (Lebedev-110)
Angular grid pruning method      GridPruning ... 4 (adaptive)
Weight generation scheme         WeightScheme... mBecke (2022)
Basis function cutoff            BFCut       ... 1.0000e-10
Integration weight cutoff        WCut        ... 1.0000e-14
Partially contracted basis set               ... on
Rotationally invariant grid construction     ... off
Angular grids for H and He will be reduced by one unit

Total number of grid points                  ...   107908
Total number of batches                      ...      883
Average number of points per batch           ...      122
Average number of grid points per atom       ...     1255
UseSFitting                                  ... on

GRIDX 3
-------
General Integration Accuracy     IntAcc      ... 4.338
Radial Grid Type                 RadialGrid  ... OptM3 with GC (2021)
Angular Grid (max. ang.)         AngularGrid ... 3 (Lebedev-194)
Angular grid pruning method      GridPruning ... 4 (adaptive)
Weight generation scheme         WeightScheme... mBecke (2022)
Basis function cutoff            BFCut       ... 1.0000e-10
Integration weight cutoff        WCut        ... 1.0000e-14
Partially contracted basis set               ... on
Rotationally invariant grid construction     ... off
Angular grids for H and He will be reduced by one unit

Total number of grid points                  ...   234745
Total number of batches                      ...     1884
Average number of points per batch           ...      124
Average number of grid points per atom       ...     2730
UseSFitting                                  ... on
Initializing property integral containers    ... done (  0.0 sec)

SHARK setup successfully completed in  29.3 seconds

Maximum memory used throughout the entire STARTUP-calculation: 177.9 MB
-------------------------------------------------------------------------------
                                 ORCA GUESS
                   Start orbitals & Density for SCF / CASSCF
-------------------------------------------------------------------------------

------------
SCF SETTINGS
------------
Hamiltonian:
 Density Functional     Method          .... DFT(GTOs)
 Exchange Functional    Exchange        .... B88
   X-Alpha parameter    XAlpha          ....  0.666667
   Becke's b parameter  XBeta           ....  0.004200
 Correlation Functional Correlation     .... LYP
 LDA part of GGA corr.  LDAOpt          .... VWN-5
 Gradients option       PostSCFGGA      .... off
 Hybrid DFT is turned on
   Fraction HF Exchange ScalHFX         ....  0.200000
   Scaling of DF-GGA-X  ScalDFX         ....  0.720000
   Scaling of DF-GGA-C  ScalDFC         ....  0.810000
   Scaling of DF-LDA-C  ScalLDAC        ....  1.000000
   Perturbative correction              ....  0.000000
   NL short-range parameter             ....  4.800000
 RI-approximation to the Coulomb term is turned on
   Number of AuxJ basis functions       .... 2694
   RIJ-COSX (HFX calculated with COS-X)).... on


General Settings:
 Integral files         IntName         .... /home/nmrbox/aojoawo/Documents/ERDOS/inputs/CHEMBL5269402
 Hartree-Fock type      HFTyp           .... RHF
 Total Charge           Charge          ....    0
 Multiplicity           Mult            ....    1
 Number of Electrons    NEL             ....  334
 Basis Dimension        Dim             ....  724
 Nuclear Repulsion      ENuc            ....   5826.5043059734 Eh

Convergence Acceleration:
 AO-DIIS                CNVDIIS         .... on
   Start iteration      DIISMaxIt       ....    12
   Startup error        DIISStart       ....  0.200000
   # of expansion vecs  DIISMaxEq       ....     5
   Bias factor          DIISBfac        ....   1.050
   Max. coefficient     DIISMaxC        ....  10.000
 MO-DIIS                CNVKDIIS        .... off
 Trust-Rad. Augm. Hess. CNVTRAH         .... auto
   Auto Start mean grad. ratio tolernc. ....  1.125000
   Auto Start start iteration           ....    50
   Auto Start num. interpolation iter.  ....    10
   Max. Number of Micro iterations      ....    24
   Max. Number of Macro iterations      .... Maxiter - #DIIS iter
   Number of Davidson start vectors     ....     2
   Converg. threshold    (grad. norm)   ....   5.000e-05
   Grad. Scal. Fac. for Micro threshold ....   0.100
   Minimum threshold for Micro iter.    ....   1.000e-02
   NR start threshold (gradient norm)   ....   1.000e-04
   Initial trust radius                 ....   0.400
   Minimum AH scaling param. (alpha)    ....   1.000
   Maximum AH scaling param. (alpha)    .... 1000.000
   Quad. conv. algorithm                .... NR
   White noise on init. David. guess    .... on
   Maximum white noise                  ....   0.010
   Pseudo random numbers                .... off
   Inactive MOs                         .... canonical
   Orbital update algorithm             .... Taylor
   Preconditioner                       .... Diag
   Full preconditioner red. dimension   ....   250
 SOSCF                  CNVSOSCF        .... on
   Start iteration      SOSCFMaxIt      ....   150
   Startup grad/error   SOSCFStart      ....  0.003300
   Hessian update       SOSCFHessUp     .... L-BFGS
 Level Shifting         CNVShift        .... on
   Level shift para.    LevelShift      ....    0.2500
   Turn off err/grad.   ShiftErr        ....    0.0010
 Zerner damping         CNVZerner       .... off
 Static damping         CNVDamp         .... on
   Fraction old density DampFac         ....    0.7000
   Max. Damping (<1)    DampMax         ....    0.9800
   Min. Damping (>=0)   DampMin         ....    0.0000
   Turn off err/grad.   DampErr         ....    0.1000

SCF Procedure:
 Maximum # iterations   MaxIter         ....   125
 SCF integral mode      SCFMode         .... Direct
   Integral package                     .... SHARK and LIBINT hybrid scheme
 Reset frequency        DirectResetFreq ....    20
 Integral Threshold     Thresh          ....  1.000e-10 Eh
 Primitive CutOff       TCut            ....  1.000e-11 Eh

Convergence Tolerance:
 Convergence Check Mode ConvCheckMode   .... Total+1el-Energy
 Convergence forced     ConvForced      .... 0
 Energy Change          TolE            ....  1.000e-06 Eh
 1-El. energy change                    ....  1.000e-03 Eh
 Orbital Gradient       TolG            ....  5.000e-05
 Orbital Rotation angle TolX            ....  5.000e-05
 DIIS Error             TolErr          ....  1.000e-06

------------------------------
INITIAL GUESS: MODEL POTENTIAL
------------------------------
Loading Hartree-Fock densities                     ... done
Calculating cut-offs                               ... done
Initializing the effective Hamiltonian             ... done
Setting up the integral package (SHARK)            ... done
Starting the Coulomb interaction                   ... done (  11.0 sec)
Making the grid                                    ... done (   3.7 sec)
Mapping shells                                     ... done
Starting the XC term evaluation                    ... done (   2.3 sec)
  promolecular density results
     # of electrons  =    333.984348218
     EX              =   -275.900895737
     EC              =    -11.434707418
     EX+EC           =   -287.335603156
Transforming the Hamiltonian                       ... done (   0.1 sec)
Diagonalizing the Hamiltonian                      ... done (   0.1 sec)
Back transforming the eigenvectors                 ... done (   0.0 sec)
Now organizing SCF variables                       ... done
                      ------------------
                      INITIAL GUESS DONE (  17.3 sec)
                      ------------------
             **** ENERGY FILE WAS UPDATED (/home/nmrbox/aojoawo/Documents/ERDOS/inputs/CHEMBL5269402.en.tmp) ****
Finished Guess after  17.7 sec
Maximum memory used throughout the entire GUESS-calculation: 98.5 MB

-------------------------------------------------------------------------------------------
                                      ORCA LEAN-SCF
                              memory conserving SCF solver
-------------------------------------------------------------------------------------------

----------------------------------------D-I-I-S--------------------------------------------
Iteration    Energy (Eh)           Delta-E    RMSDP     MaxDP     DIISErr   Damp  Time(sec)
-------------------------------------------------------------------------------------------
               ***  Starting incremental Fock matrix formation  ***
    1    -2108.5034669934293561     0.00e+00  1.61e-03  1.02e-01  2.73e-01  0.700 155.3
    2    -2109.0277727203174436    -5.24e-01  1.10e-03  5.54e-02  1.01e-01  0.700  65.8
                               ***Turning on AO-DIIS***
    3    -2109.2339518926892197    -2.06e-01  4.63e-04  1.60e-02  3.50e-02  0.700  64.0
    4    -2109.3592817731805553    -1.25e-01  7.46e-04  2.30e-02  1.62e-02  0.000  57.0
    5    -2109.6330894592119876    -2.74e-01  1.70e-04  7.47e-03  6.41e-03  0.000  61.3
                              *** Initializing SOSCF ***
---------------------------------------S-O-S-C-F--------------------------------------
Iteration    Energy (Eh)           Delta-E    RMSDP     MaxDP     MaxGrad    Time(sec)
--------------------------------------------------------------------------------------
    6    -2109.6347974865739161    -1.71e-03  5.13e-05  2.12e-03  2.23e-03    51.9
               *** Restarting incremental Fock matrix formation ***
    7    -2109.6348538776437636    -5.64e-05  3.79e-05  3.28e-03  5.27e-04   153.0
    8    -2109.6348154074466947     3.85e-05  2.08e-05  2.54e-03  1.42e-03    77.2
    9    -2109.6348709388930729    -5.55e-05  7.80e-06  4.02e-04  9.37e-05    61.7
   10    -2109.6348692129804476     1.73e-06  4.78e-06  2.80e-04  1.87e-04    55.9
   11    -2109.6348716915344994    -2.48e-06  1.98e-06  8.47e-05  3.01e-05    48.6
   12    -2109.6348717659020622    -7.44e-08  1.16e-06  5.19e-05  3.43e-05    43.3
                 **** Energy Check signals convergence ****

               *****************************************************
               *                     SUCCESS                       *
               *           SCF CONVERGED AFTER  12 CYCLES          *
               *****************************************************

Recomputing exchange energy using gridx3       ... done (  270.200 sec)
Old exchange energy                            :    -56.048283042 Eh
New exchange energy                            :    -56.048351662 Eh
Exchange energy change after final integration :     -0.000068620 Eh
Total energy after final integration           :  -2109.634940385 Eh
             **** ENERGY FILE WAS UPDATED (/home/nmrbox/aojoawo/Documents/ERDOS/inputs/CHEMBL5269402.en.tmp) ****

----------------
TOTAL SCF ENERGY
----------------

Total Energy       :      -2109.63494038545014 Eh          -57406.08520 eV

Components:
Nuclear Repulsion  :       5826.50430597337527 Eh          158547.24255 eV
Electronic Energy  :      -7936.13917773927733 Eh         -215953.32588 eV
One Electron Energy:     -14478.41687111807005 Eh         -393977.75251 eV
Two Electron Energy:       6542.27769337879272 Eh          178024.42662 eV

Virial components:
Potential Energy   :      -4206.37097768525018 Eh         -114461.17340 eV
Kinetic Energy     :       2096.73603729980050 Eh           57055.08820 eV
Virial Ratio       :          2.00615189649826

DFT components:
N(Alpha)           :      166.999820062918 electrons
N(Beta)            :      166.999820062918 electrons
N(Total)           :      333.999640125836 electrons
E(X)               :     -222.608347323837 Eh       
E(C)               :      -13.436035034669 Eh       
E(XC)              :     -236.044382358507 Eh       

---------------
SCF CONVERGENCE
---------------

  Last Energy change         ...    7.4368e-08  Tolerance :   1.0000e-06
  Last MAX-Density change    ...    5.1870e-05  Tolerance :   1.0000e-05
  Last RMS-Density change    ...    1.1617e-06  Tolerance :   1.0000e-06
  Last DIIS Error            ...    2.2298e-03  Tolerance :   1.0000e-06
  Last Orbital Gradient      ...    3.4334e-05  Tolerance :   5.0000e-05
  Last Orbital Rotation      ...    5.6820e-05  Tolerance :   5.0000e-05


----------------
ORBITAL ENERGIES
----------------

  NO   OCC          E(Eh)            E(eV) 
   0   2.0000     -19.183373      -522.0061 
   1   2.0000     -19.171819      -521.6917 
   2   2.0000     -19.161906      -521.4220 
   3   2.0000     -19.160219      -521.3761 
   4   2.0000     -19.159336      -521.3520 
   5   2.0000     -19.155777      -521.2552 
   6   2.0000     -19.151347      -521.1347 
   7   2.0000     -19.131777      -520.6021 
   8   2.0000     -19.123829      -520.3858 
   9   2.0000     -10.331836      -281.1436 
  10   2.0000     -10.316038      -280.7137 
  11   2.0000     -10.259287      -279.1694 
  12   2.0000     -10.250588      -278.9327 
  13   2.0000     -10.249051      -278.8909 
  14   2.0000     -10.246300      -278.8160 
  15   2.0000     -10.245881      -278.8046 
  16   2.0000     -10.245268      -278.7879 
  17   2.0000     -10.243628      -278.7433 
  18   2.0000     -10.239835      -278.6401 
  19   2.0000     -10.235633      -278.5257 
  20   2.0000     -10.201017      -277.5838 
  21   2.0000     -10.200781      -277.5774 
  22   2.0000     -10.196724      -277.4670 
  23   2.0000     -10.191763      -277.3320 
  24   2.0000     -10.190975      -277.3105 
  25   2.0000     -10.190578      -277.2997 
  26   2.0000     -10.190200      -277.2895 
  27   2.0000     -10.185440      -277.1599 
  28   2.0000     -10.184152      -277.1249 
  29   2.0000     -10.183671      -277.1118 
  30   2.0000     -10.183483      -277.1067 
  31   2.0000     -10.182989      -277.0932 
  32   2.0000     -10.180975      -277.0384 
  33   2.0000     -10.179363      -276.9945 
  34   2.0000     -10.178164      -276.9619 
  35   2.0000     -10.177287      -276.9381 
  36   2.0000     -10.174595      -276.8648 
  37   2.0000     -10.174356      -276.8583 
  38   2.0000     -10.174024      -276.8493 
  39   2.0000     -10.173575      -276.8370 
  40   2.0000     -10.173212      -276.8272 
  41   2.0000     -10.172572      -276.8098 
  42   2.0000     -10.171491      -276.7803 
  43   2.0000     -10.157422      -276.3975 
  44   2.0000     -10.156508      -276.3726 
  45   2.0000     -10.156142      -276.3627 
  46   2.0000      -1.133261       -30.8376 
  47   2.0000      -1.076223       -29.2855 
  48   2.0000      -1.051697       -28.6181 
  49   2.0000      -1.049184       -28.5497 
  50   2.0000      -1.022680       -27.8285 
  51   2.0000      -1.019907       -27.7531 
  52   2.0000      -1.018578       -27.7169 
  53   2.0000      -1.006900       -27.3991 
  54   2.0000      -0.988028       -26.8856 
  55   2.0000      -0.869980       -23.6734 
  56   2.0000      -0.852360       -23.1939 
  57   2.0000      -0.850280       -23.1373 
  58   2.0000      -0.839631       -22.8475 
  59   2.0000      -0.816223       -22.2106 
  60   2.0000      -0.788875       -21.4664 
  61   2.0000      -0.783572       -21.3221 
  62   2.0000      -0.774177       -21.0664 
  63   2.0000      -0.765473       -20.8296 
  64   2.0000      -0.757403       -20.6100 
  65   2.0000      -0.750460       -20.4210 
  66   2.0000      -0.733833       -19.9686 
  67   2.0000      -0.729400       -19.8480 
  68   2.0000      -0.724675       -19.7194 
  69   2.0000      -0.709999       -19.3201 
  70   2.0000      -0.706089       -19.2137 
  71   2.0000      -0.691097       -18.8057 
  72   2.0000      -0.683744       -18.6056 
  73   2.0000      -0.676592       -18.4110 
  74   2.0000      -0.667034       -18.1509 
  75   2.0000      -0.659294       -17.9403 
  76   2.0000      -0.644440       -17.5361 
  77   2.0000      -0.626767       -17.0552 
  78   2.0000      -0.610715       -16.6184 
  79   2.0000      -0.605402       -16.4738 
  80   2.0000      -0.599986       -16.3264 
  81   2.0000      -0.595770       -16.2117 
  82   2.0000      -0.594233       -16.1699 
  83   2.0000      -0.579447       -15.7676 
  84   2.0000      -0.573161       -15.5965 
  85   2.0000      -0.564924       -15.3724 
  86   2.0000      -0.553995       -15.0750 
  87   2.0000      -0.546316       -14.8660 
  88   2.0000      -0.544021       -14.8036 
  89   2.0000      -0.541308       -14.7297 
  90   2.0000      -0.519226       -14.1288 
  91   2.0000      -0.514522       -14.0009 
  92   2.0000      -0.507951       -13.8221 
  93   2.0000      -0.503256       -13.6943 
  94   2.0000      -0.492350       -13.3975 
  95   2.0000      -0.490716       -13.3531 
  96   2.0000      -0.486594       -13.2409 
  97   2.0000      -0.485150       -13.2016 
  98   2.0000      -0.478683       -13.0256 
  99   2.0000      -0.474933       -12.9236 
 100   2.0000      -0.468166       -12.7394 
 101   2.0000      -0.467151       -12.7118 
 102   2.0000      -0.465785       -12.6747 
 103   2.0000      -0.457722       -12.4552 
 104   2.0000      -0.450719       -12.2647 
 105   2.0000      -0.448277       -12.1982 
 106   2.0000      -0.447090       -12.1659 
 107   2.0000      -0.444295       -12.0899 
 108   2.0000      -0.443015       -12.0551 
 109   2.0000      -0.440347       -11.9824 
 110   2.0000      -0.437613       -11.9081 
 111   2.0000      -0.431899       -11.7526 
 112   2.0000      -0.428796       -11.6681 
 113   2.0000      -0.424826       -11.5601 
 114   2.0000      -0.421268       -11.4633 
 115   2.0000      -0.417589       -11.3632 
 116   2.0000      -0.413918       -11.2633 
 117   2.0000      -0.411896       -11.2083 
 118   2.0000      -0.410549       -11.1716 
 119   2.0000      -0.405812       -11.0427 
 120   2.0000      -0.402802       -10.9608 
 121   2.0000      -0.399422       -10.8688 
 122   2.0000      -0.397793       -10.8245 
 123   2.0000      -0.395979       -10.7751 
 124   2.0000      -0.393038       -10.6951 
 125   2.0000      -0.391447       -10.6518 
 126   2.0000      -0.386745       -10.5239 
 127   2.0000      -0.382993       -10.4218 
 128   2.0000      -0.378417       -10.2972 
 129   2.0000      -0.378275       -10.2934 
 130   2.0000      -0.374889       -10.2012 
 131   2.0000      -0.371061       -10.0971 
 132   2.0000      -0.367644       -10.0041 
 133   2.0000      -0.362789        -9.8720 
 134   2.0000      -0.360005        -9.7962 
 135   2.0000      -0.358265        -9.7489 
 136   2.0000      -0.355227        -9.6662 
 137   2.0000      -0.352055        -9.5799 
 138   2.0000      -0.345556        -9.4031 
 139   2.0000      -0.343850        -9.3566 
 140   2.0000      -0.340295        -9.2599 
 141   2.0000      -0.335975        -9.1424 
 142   2.0000      -0.334074        -9.0906 
 143   2.0000      -0.332286        -9.0420 
 144   2.0000      -0.331958        -9.0330 
 145   2.0000      -0.331583        -9.0228 
 146   2.0000      -0.329486        -8.9658 
 147   2.0000      -0.324973        -8.8430 
 148   2.0000      -0.320930        -8.7329 
 149   2.0000      -0.319523        -8.6947 
 150   2.0000      -0.314043        -8.5455 
 151   2.0000      -0.310307        -8.4439 
 152   2.0000      -0.305300        -8.3076 
 153   2.0000      -0.298918        -8.1340 
 154   2.0000      -0.289900        -7.8886 
 155   2.0000      -0.286823        -7.8048 
 156   2.0000      -0.278914        -7.5896 
 157   2.0000      -0.263927        -7.1818 
 158   2.0000      -0.252912        -6.8821 
 159   2.0000      -0.248591        -6.7645 
 160   2.0000      -0.240156        -6.5350 
 161   2.0000      -0.238319        -6.4850 
 162   2.0000      -0.234539        -6.3821 
 163   2.0000      -0.234274        -6.3749 
 164   2.0000      -0.232114        -6.3161 
 165   2.0000      -0.231040        -6.2869 
 166   2.0000      -0.204217        -5.5570 
 167   0.0000      -0.056990        -1.5508 
 168   0.0000      -0.012220        -0.3325 
 169   0.0000      -0.001063        -0.0289 
 170   0.0000       0.005658         0.1540 
 171   0.0000       0.005729         0.1559 
 172   0.0000       0.007910         0.2153 
 173   0.0000       0.019769         0.5379 
 174   0.0000       0.025736         0.7003 
 175   0.0000       0.037538         1.0215 
 176   0.0000       0.057105         1.5539 
 177   0.0000       0.065181         1.7737 
*Only the first 10 virtual orbitals were printed.

                    ********************************
                    * MULLIKEN POPULATION ANALYSIS *
                    ********************************

-----------------------
MULLIKEN ATOMIC CHARGES
-----------------------
   0 C :   -0.394806
   1 C :    0.192048
   2 C :   -0.529212
   3 C :    0.245611
   4 C :   -0.316447
   5 C :   -0.090818
   6 C :   -0.453047
   7 C :    0.307946
   8 O :   -0.550564
   9 C :    0.768930
  10 C :   -0.417347
  11 C :    0.156720
  12 C :   -0.161250
  13 C :   -0.129700
  14 C :   -0.124987
  15 C :   -0.130955
  16 C :   -0.155262
  17 O :   -0.471843
  18 C :    0.000721
  19 C :   -0.146263
  20 C :   -0.144914
  21 C :    0.158572
  22 C :   -0.099239
  23 O :   -0.474102
  24 C :    0.603853
  25 O :   -0.458904
  26 C :   -0.425423
  27 C :    0.143138
  28 C :   -0.166002
  29 C :   -0.172064
  30 C :    0.340580
  31 O :   -0.676031
  32 C :    0.311902
  33 O :   -0.531009
  34 C :   -0.193539
  35 C :   -0.254333
  36 C :   -0.397629
  37 C :    0.271101
  38 O :   -0.635175
  39 C :    0.339244
  40 O :   -0.462932
  41 C :    0.127360
  42 C :   -0.517129
  43 C :   -0.134140
  44 C :   -0.216632
  45 O :   -0.504824
  46 H :    0.134259
  47 H :    0.133703
  48 H :    0.185544
  49 H :    0.161751
  50 H :    0.149301
  51 H :    0.150594
  52 H :    0.134045
  53 H :    0.169754
  54 H :    0.138581
  55 H :    0.159210
  56 H :    0.132810
  57 H :    0.162910
  58 H :    0.160002
  59 H :    0.129083
  60 H :    0.125788
  61 H :    0.124226
  62 H :    0.125286
  63 H :    0.130707
  64 H :    0.162035
  65 H :    0.155830
  66 H :    0.145451
  67 H :    0.160047
  68 H :    0.140336
  69 H :    0.185649
  70 H :    0.162963
  71 H :    0.136368
  72 H :    0.144789
  73 H :    0.424801
  74 H :    0.167983
  75 H :    0.150174
  76 H :    0.151169
  77 H :    0.136440
  78 H :    0.157329
  79 H :    0.159768
  80 H :    0.405534
  81 H :    0.171482
  82 H :    0.165550
  83 H :    0.155142
  84 H :    0.161801
  85 H :    0.160598
Sum of atomic charges:    0.0000000

--------------------------------
MULLIKEN REDUCED ORBITAL CHARGES
--------------------------------
  0 C s       :     3.275629  s :     3.275629
      pz      :     1.023344  p :     3.089340
      px      :     1.048945
      py      :     1.017051
      dz2     :     0.006541  d :     0.029838
      dxz     :     0.006297
      dyz     :     0.009444
      dx2y2   :     0.004136
      dxy     :     0.003420

  1 C s       :     3.147879  s :     3.147879
      pz      :     0.856072  p :     2.620807
      px      :     0.906805
      py      :     0.857930
      dz2     :     0.009757  d :     0.039266
      dxz     :     0.007391
      dyz     :     0.011352
      dx2y2   :     0.005824
      dxy     :     0.004941

  2 C s       :     3.321256  s :     3.321256
      pz      :     1.080531  p :     3.173450
      px      :     1.049852
      py      :     1.043067
      dz2     :     0.008676  d :     0.034506
      dxz     :     0.005283
      dyz     :     0.006431
      dx2y2   :     0.006203
      dxy     :     0.007913

  3 C s       :     3.106616  s :     3.106616
      pz      :     0.896321  p :     2.573664
      px      :     0.759450
      py      :     0.917893
      dz2     :     0.010631  d :     0.074109
      dxz     :     0.018403
      dyz     :     0.012704
      dx2y2   :     0.016174
      dxy     :     0.016197

  4 C s       :     3.268683  s :     3.268683
      pz      :     1.006854  p :     3.009227
      px      :     1.039172
      py      :     0.963201
      dz2     :     0.004894  d :     0.038538
      dxz     :     0.010479
      dyz     :     0.008308
      dx2y2   :     0.007640
      dxy     :     0.007217

  5 C s       :     3.213944  s :     3.213944
      pz      :     0.919693  p :     2.834359
      px      :     0.993110
      py      :     0.921556
      dz2     :     0.009253  d :     0.042515
      dxz     :     0.008817
      dyz     :     0.007141
      dx2y2   :     0.008747
      dxy     :     0.008559

  6 C s       :     3.304672  s :     3.304672
      pz      :     1.050816  p :     3.113883
      px      :     1.034152
      py      :     1.028915
      dz2     :     0.010429  d :     0.034492
      dxz     :     0.005606
      dyz     :     0.002578
      dx2y2   :     0.009815
      dxy     :     0.006064

  7 C s       :     3.131368  s :     3.131368
      pz      :     0.859447  p :     2.492253
      px      :     0.700759
      py      :     0.932047
      dz2     :     0.016325  d :     0.068433
      dxz     :     0.016931
      dyz     :     0.007926
      dx2y2   :     0.013178
      dxy     :     0.014074

  8 O s       :     3.920923  s :     3.920923
      pz      :     1.720304  p :     4.603070
      px      :     1.414782
      py      :     1.467983
      dz2     :     0.004252  d :     0.026571
      dxz     :     0.005512
      dyz     :     0.003256
      dx2y2   :     0.007658
      dxy     :     0.005894

  9 C s       :     2.868734  s :     2.868734
      pz      :     0.747359  p :     2.233483
      px      :     0.811200
      py      :     0.674924
      dz2     :     0.027774  d :     0.128852
      dxz     :     0.023286
      dyz     :     0.024768
      dx2y2   :     0.023398
      dxy     :     0.029626

 10 C s       :     3.297704  s :     3.297704
      pz      :     1.054944  p :     3.081380
      px      :     1.010956
      py      :     1.015479
      dz2     :     0.006842  d :     0.038263
      dxz     :     0.008967
      dyz     :     0.006454
      dx2y2   :     0.006398
      dxy     :     0.009603

 11 C s       :     3.129194  s :     3.129194
      pz      :     0.894842  p :     2.673447
      px      :     0.912419
      py      :     0.866186
      dz2     :     0.008399  d :     0.040639
      dxz     :     0.006926
      dyz     :     0.008955
      dx2y2   :     0.007838
      dxy     :     0.008522

 12 C s       :     3.197915  s :     3.197915
      pz      :     0.990612  p :     2.927376
      px      :     0.976222
      py      :     0.960542
      dz2     :     0.005535  d :     0.035959
      dxz     :     0.008103
      dyz     :     0.007964
      dx2y2   :     0.007261
      dxy     :     0.007095

 13 C s       :     3.188514  s :     3.188514
      pz      :     0.976675  p :     2.905003
      px      :     0.963926
      py      :     0.964402
      dz2     :     0.005578  d :     0.036183
      dxz     :     0.005520
      dyz     :     0.010445
      dx2y2   :     0.007603
      dxy     :     0.007038

 14 C s       :     3.183987  s :     3.183987
      pz      :     0.957406  p :     2.904852
      px      :     0.972164
      py      :     0.975283
      dz2     :     0.008783  d :     0.036148
      dxz     :     0.006072
      dyz     :     0.006652
      dx2y2   :     0.006381
      dxy     :     0.008259

 15 C s       :     3.189433  s :     3.189433
      pz      :     0.971426  p :     2.905346
      px      :     0.986369
      py      :     0.947551
      dz2     :     0.005624  d :     0.036175
      dxz     :     0.008116
      dyz     :     0.008034
      dx2y2   :     0.007235
      dxy     :     0.007167

 16 C s       :     3.196374  s :     3.196374
      pz      :     0.974283  p :     2.922956
      px      :     0.979794
      py      :     0.968879
      dz2     :     0.005596  d :     0.035932
      dxz     :     0.005661
      dyz     :     0.010302
      dx2y2   :     0.007445
      dxy     :     0.006928

 17 O s       :     3.891608  s :     3.891608
      pz      :     1.517310  p :     4.547266
      px      :     1.445109
      py      :     1.584847
      dz2     :     0.007918  d :     0.032969
      dxz     :     0.009034
      dyz     :     0.006721
      dx2y2   :     0.003798
      dxy     :     0.005499

 18 C s       :     3.210192  s :     3.210192
      pz      :     0.775381  p :     2.716764
      px      :     0.892426
      py      :     1.048957
      dz2     :     0.016645  d :     0.072324
      dxz     :     0.021018
      dyz     :     0.008171
      dx2y2   :     0.010079
      dxy     :     0.016412

 19 C s       :     3.224764  s :     3.224764
      pz      :     1.006679  p :     2.878435
      px      :     0.918237
      py      :     0.953519
      dz2     :     0.011679  d :     0.043064
      dxz     :     0.008929
      dyz     :     0.003433
      dx2y2   :     0.007585
      dxy     :     0.011438

 20 C s       :     3.202959  s :     3.202959
      pz      :     0.966068  p :     2.907129
      px      :     0.950015
      py      :     0.991045
      dz2     :     0.003279  d :     0.034826
      dxz     :     0.007166
      dyz     :     0.007107
      dx2y2   :     0.010308
      dxy     :     0.006967

 21 C s       :     3.133632  s :     3.133632
      pz      :     0.893255  p :     2.669365
      px      :     0.884919
      py      :     0.891191
      dz2     :     0.004056  d :     0.038431
      dxz     :     0.008134
      dyz     :     0.006578
      dx2y2   :     0.010294
      dxy     :     0.009368

 22 C s       :     3.223058  s :     3.223058
      pz      :     0.910118  p :     2.811346
      px      :     0.851227
      py      :     1.050001
      dz2     :     0.007720  d :     0.064836
      dxz     :     0.018230
      dyz     :     0.016152
      dx2y2   :     0.012331
      dxy     :     0.010402

 23 O s       :     3.848479  s :     3.848479
      pz      :     1.488624  p :     4.600755
      px      :     1.604090
      py      :     1.508040
      dz2     :     0.003533  d :     0.024869
      dxz     :     0.005366
      dyz     :     0.005502
      dx2y2   :     0.006773
      dxy     :     0.003695

 24 C s       :     3.004302  s :     3.004302
      pz      :     0.773801  p :     2.282032
      px      :     0.810280
      py      :     0.697951
      dz2     :     0.012674  d :     0.109812
      dxz     :     0.017805
      dyz     :     0.022532
      dx2y2   :     0.033750
      dxy     :     0.023051

 25 O s       :     3.885333  s :     3.885333
      pz      :     1.597062  p :     4.547955
      px      :     1.439520
      py      :     1.511372
      dz2     :     0.002597  d :     0.025616
      dxz     :     0.004304
      dyz     :     0.003666
      dx2y2   :     0.007630
      dxy     :     0.007420

[...]

 68 H s       :     0.876469  s :     0.876469

 69 H s       :     0.843927  s :     0.843927

 70 H s       :     0.859476  s :     0.859476

 71 H s       :     0.862220  s :     0.862220

 72 H s       :     0.854481  s :     0.854481

 73 H s       :     0.660102  s :     0.660102

 74 H s       :     0.865194  s :     0.865194

 75 H s       :     0.882064  s :     0.882064

 76 H s       :     0.881580  s :     0.881580

 77 H s       :     0.862795  s :     0.862795

 78 H s       :     0.862803  s :     0.862803

 79 H s       :     0.864583  s :     0.864583

 80 H s       :     0.676722  s :     0.676722

 81 H s       :     0.857695  s :     0.857695

 82 H s       :     0.859246  s :     0.859246

 83 H s       :     0.864477  s :     0.864477

 84 H s       :     0.854065  s :     0.854065

 85 H s       :     0.854437  s :     0.854437



                      *****************************
                      * MAYER POPULATION ANALYSIS *
                      *****************************

  NA   - Mulliken gross atomic population
  ZA   - Total nuclear charge
  QA   - Mulliken gross atomic charge
  VA   - Mayer's total valence
  BVA  - Mayer's bonded valence
  FA   - Mayer's free valence

  ATOM       NA         ZA         QA         VA         BVA        FA
  0 C      6.3948     6.0000    -0.3948     3.8691     3.8691     0.0000
  1 C      5.8080     6.0000     0.1920     3.9029     3.9029    -0.0000
  2 C      6.5292     6.0000    -0.5292     3.8328     3.8328    -0.0000
  3 C      5.7544     6.0000     0.2456     3.8759     3.8759     0.0000
  4 C      6.3164     6.0000    -0.3164     3.8341     3.8341     0.0000
  5 C      6.0908     6.0000    -0.0908     3.8160     3.8160    -0.0000
  6 C      6.4530     6.0000    -0.4530     3.8556     3.8556     0.0000
  7 C      5.6921     6.0000     0.3079     3.8364     3.8364     0.0000
  8 O      8.5506     8.0000    -0.5506     1.8605     1.8605     0.0000
  9 C      5.2311     6.0000     0.7689     3.8420     3.8420    -0.0000
 10 C      6.4173     6.0000    -0.4173     3.8507     3.8507     0.0000
 11 C      5.8433     6.0000     0.1567     3.9555     3.9555     0.0000
 12 C      6.1612     6.0000    -0.1612     3.9435     3.9435    -0.0000
 13 C      6.1297     6.0000    -0.1297     3.9438     3.9438     0.0000
 14 C      6.1250     6.0000    -0.1250     3.9480     3.9480     0.0000
 15 C      6.1310     6.0000    -0.1310     3.9441     3.9441     0.0000
 16 C      6.1553     6.0000    -0.1553     3.9426     3.9426     0.0000
 17 O      8.4718     8.0000    -0.4718     1.9418     1.9418     0.0000
 18 C      5.9993     6.0000     0.0007     3.8137     3.8137    -0.0000
 19 C      6.1463     6.0000    -0.1463     3.8271     3.8271    -0.0000
 20 C      6.1449     6.0000    -0.1449     3.9056     3.9056    -0.0000
 21 C      5.8414     6.0000     0.1586     3.8706     3.8706    -0.0000
 22 C      6.0992     6.0000    -0.0992     3.8095     3.8095    -0.0000
 23 O      8.4741     8.0000    -0.4741     1.9902     1.9902    -0.0000
 24 C      5.3961     6.0000     0.6039     3.8833     3.8833     0.0000
 25 O      8.4589     8.0000    -0.4589     2.0443     2.0443     0.0000
 26 C      6.4254     6.0000    -0.4254     3.8142     3.8142    -0.0000
 27 C      5.8569     6.0000     0.1431     3.9622     3.9622     0.0000
 28 C      6.1660     6.0000    -0.1660     3.9426     3.9426    -0.0000
 29 C      6.1721     6.0000    -0.1721     3.9189     3.9189    -0.0000
 30 C      5.6594     6.0000     0.3406     3.8106     3.8106    -0.0000
 31 O      8.6760     8.0000    -0.6760     1.8159     1.8159    -0.0000
 32 C      5.6881     6.0000     0.3119     3.7523     3.7523     0.0000
 33 O      8.5310     8.0000    -0.5310     1.9478     1.9478    -0.0000
 34 C      6.1935     6.0000    -0.1935     3.7658     3.7658    -0.0000
 35 C      6.2543     6.0000    -0.2543     3.8748     3.8748     0.0000
 36 C      6.3976     6.0000    -0.3976     3.8189     3.8189     0.0000
 37 C      5.7289     6.0000     0.2711     3.7515     3.7515     0.0000
 38 O      8.6352     8.0000    -0.6352     1.7990     1.7990    -0.0000
 39 C      5.6608     6.0000     0.3392     3.8876     3.8876     0.0000
 40 O      8.4629     8.0000    -0.4629     2.0542     2.0542    -0.0000
 41 C      5.8726     6.0000     0.1274     3.8268     3.8268    -0.0000
 42 C      6.5171     6.0000    -0.5171     3.8337     3.8337    -0.0000
 43 C      6.1341     6.0000    -0.1341     3.8312     3.8312     0.0000
 44 C      6.2166     6.0000    -0.2166     3.8739     3.8739    -0.0000
 45 O      8.5048     8.0000    -0.5048     1.9009     1.9009    -0.0000
 46 H      0.8657     1.0000     0.1343     0.9450     0.9450     0.0000
 47 H      0.8663     1.0000     0.1337     0.9423     0.9423    -0.0000
 48 H      0.8145     1.0000     0.1855     0.9408     0.9408    -0.0000
 49 H      0.8382     1.0000     0.1618     0.9371     0.9371     0.0000
 50 H      0.8507     1.0000     0.1493     0.9331     0.9331    -0.0000
 51 H      0.8494     1.0000     0.1506     0.9419     0.9419     0.0000
 52 H      0.8660     1.0000     0.1340     0.9389     0.9389     0.0000
 53 H      0.8302     1.0000     0.1698     0.9419     0.9419    -0.0000
 54 H      0.8614     1.0000     0.1386     0.9407     0.9407     0.0000
 55 H      0.8408     1.0000     0.1592     0.9456     0.9456     0.0000
 56 H      0.8672     1.0000     0.1328     0.9389     0.9389     0.0000
 57 H      0.8371     1.0000     0.1629     0.9351     0.9351    -0.0000
 58 H      0.8400     1.0000     0.1600     0.9365     0.9365     0.0000
 59 H      0.8709     1.0000     0.1291     0.9410     0.9410    -0.0000
 60 H      0.8742     1.0000     0.1258     0.9371     0.9371     0.0000
 61 H      0.8758     1.0000     0.1242     0.9371     0.9371     0.0000
 62 H      0.8747     1.0000     0.1253     0.9373     0.9373    -0.0000
 63 H      0.8693     1.0000     0.1307     0.9413     0.9413     0.0000
 64 H      0.8380     1.0000     0.1620     0.9367     0.9367    -0.0000
 65 H      0.8442     1.0000     0.1558     0.9383     0.9383    -0.0000
 66 H      0.8545     1.0000     0.1455     0.9442     0.9442    -0.0000
 67 H      0.8400     1.0000     0.1600     0.9362     0.9362     0.0000
 68 H      0.8597     1.0000     0.1403     0.9344     0.9344     0.0000
 69 H      0.8144     1.0000     0.1856     0.9299     0.9299    -0.0000
 70 H      0.8370     1.0000     0.1630     0.9293     0.9293     0.0000
 71 H      0.8636     1.0000     0.1364     0.9400     0.9400     0.0000
 72 H      0.8552     1.0000     0.1448     0.9388     0.9388    -0.0000
 73 H      0.5752     1.0000     0.4248     0.7990     0.7990    -0.0000
 74 H      0.8320     1.0000     0.1680     0.9315     0.9315     0.0000
 75 H      0.8498     1.0000     0.1502     0.9300     0.9300    -0.0000
 76 H      0.8488     1.0000     0.1512     0.9298     0.9298     0.0000
 77 H      0.8636     1.0000     0.1364     0.9455     0.9455     0.0000
 78 H      0.8427     1.0000     0.1573     0.9355     0.9355     0.0000
 79 H      0.8402     1.0000     0.1598     0.9436     0.9436     0.0000
 80 H      0.5945     1.0000     0.4055     0.8100     0.8100    -0.0000
 81 H      0.8285     1.0000     0.1715     0.9355     0.9355     0.0000
 82 H      0.8345     1.0000     0.1655     0.9293     0.9293     0.0000
 83 H      0.8449     1.0000     0.1551     0.9349     0.9349    -0.0000
 84 H      0.8382     1.0000     0.1618     0.9418     0.9418     0.0000
 85 H      0.8394     1.0000     0.1606     0.9297     0.9297     0.0000

  Mayer bond orders larger than 0.100000
B(  0-C ,  1-C ) :   1.9157 B(  0-C , 46-H ) :   0.9224 B(  0-C , 47-H ) :   0.9327 
B(  1-C ,  2-C ) :   0.9834 B(  1-C ,  3-C ) :   1.0061 B(  2-C , 48-H ) :   0.9220 
B(  2-C , 49-H ) :   0.9385 B(  2-C , 50-H ) :   0.9417 B(  3-C ,  4-C ) :   0.9964 
B(  3-C , 18-C ) :   0.9247 B(  3-C , 45-O ) :   0.8679 B(  4-C ,  5-C ) :   0.9512 
B(  4-C , 51-H ) :   0.9250 B(  4-C , 52-H ) :   0.9205 B(  5-C ,  6-C ) :   1.0075 
B(  5-C ,  7-C ) :   0.9668 B(  5-C , 53-H ) :   0.8995 B(  6-C , 54-H ) :   0.9393 
B(  6-C , 55-H ) :   0.9392 B(  6-C , 56-H ) :   0.9464 B(  7-C ,  8-O ) :   0.8360 
B(  7-C , 19-C ) :   0.9455 B(  7-C , 44-C ) :   0.9685 B(  8-O ,  9-C ) :   0.9059 
B(  9-C , 10-C ) :   0.9657 B(  9-C , 17-O ) :   0.9453 B(  9-C , 45-O ) :   0.9300 
B( 10-C , 11-C ) :   0.9761 B( 10-C , 57-H ) :   0.9249 B( 10-C , 58-H ) :   0.9252 
B( 11-C , 12-C ) :   1.4309 B( 11-C , 16-C ) :   1.4352 B( 12-C , 13-C ) :   1.4371 
B( 12-C , 59-H ) :   0.9243 B( 13-C , 14-C ) :   1.4526 B( 13-C , 60-H ) :   0.9302 
B( 14-C , 15-C ) :   1.4511 B( 14-C , 61-H ) :   0.9311 B( 15-C , 16-C ) :   1.4372 
B( 15-C , 62-H ) :   0.9303 B( 16-C , 63-H ) :   0.9239 B( 17-O , 18-C ) :   0.9065 
B( 18-C , 19-C ) :   0.9483 B( 18-C , 64-H ) :   0.9208 B( 19-C , 20-C ) :   0.9795 
B( 19-C , 65-H ) :   0.9037 B( 20-C , 21-C ) :   1.8646 B( 20-C , 66-H ) :   0.9101 
B( 21-C , 22-C ) :   0.9842 B( 21-C , 36-C ) :   0.9758 B( 22-C , 23-O ) :   0.8570 
B( 22-C , 67-H ) :   0.9208 B( 22-C , 68-H ) :   0.9277 B( 23-O , 24-C ) :   1.0107 
B( 24-C , 25-O ) :   1.8598 B( 24-C , 26-C ) :   0.9567 B( 26-C , 27-C ) :   0.9750 
B( 26-C , 69-H ) :   0.9220 B( 26-C , 70-H ) :   0.9172 B( 27-C , 28-C ) :   1.4396 
B( 27-C , 35-C ) :   1.4046 B( 28-C , 29-C ) :   1.4265 B( 28-C , 71-H ) :   0.9224 
B( 29-C , 30-C ) :   1.4233 B( 29-C , 72-H ) :   0.9174 B( 30-C , 31-O ) :   0.9245 
B( 30-C , 32-C ) :   1.3078 B( 31-O , 73-H ) :   0.7541 B( 32-C , 33-O ) :   0.8985 
B( 32-C , 35-C ) :   1.3614 B( 33-O , 34-C ) :   0.9151 B( 34-C , 74-H ) :   0.9453 
B( 34-C , 75-H ) :   0.9300 B( 34-C , 76-H ) :   0.9299 B( 35-C , 77-H ) :   0.9112 
B( 36-C , 37-C ) :   0.9588 B( 36-C , 78-H ) :   0.9162 B( 36-C , 79-H ) :   0.9161 
B( 37-C , 38-O ) :   0.9054 B( 37-C , 39-C ) :   0.8851 B( 37-C , 44-C ) :   0.9463 
B( 38-O , 80-H ) :   0.7686 B( 39-C , 40-O ) :   1.8586 B( 39-C , 41-C ) :   1.0499 
B( 41-C , 42-C ) :   1.0046 B( 41-C , 43-C ) :   1.7230 B( 42-C , 81-H ) :   0.9363 
B( 42-C , 82-H ) :   0.9347 B( 42-C , 83-H ) :   0.9443 B( 43-C , 44-C ) :   0.9811 
B( 43-C , 84-H ) :   0.9202 B( 44-C , 85-H ) :   0.8950 

-------
TIMINGS
-------

Total SCF time: 0 days 0 hours 19 min 26 sec 

Total time                  ....    1166.322 sec
Sum of individual times     ....    1165.723 sec  ( 99.9%)

SCF preparation             ....       0.568 sec  (  0.0%)
Fock matrix formation       ....    1159.925 sec  ( 99.5%)
  Startup                   ....       0.213 sec  (  0.0% of F)
  Split-RI-J                ....     182.038 sec  ( 15.7% of F)
  Chain of spheres X        ....     889.361 sec  ( 76.7% of F)
  XC integration            ....      87.035 sec  (  7.5% of F)
    XC Preparation          ....       0.000 sec  (  0.0% of XC)
    Basis function eval.    ....      34.253 sec  ( 39.4% of XC)
    Density eval.           ....      23.422 sec  ( 26.9% of XC)
    XC-Functional eval.     ....       3.586 sec  (  4.1% of XC)
    XC-Potential eval.      ....      22.971 sec  ( 26.4% of XC)
Diagonalization             ....       0.000 sec  (  0.0%)
Density matrix formation    ....       0.939 sec  (  0.1%)
Total Energy calculation    ....       0.122 sec  (  0.0%)
Population analysis         ....       0.156 sec  (  0.0%)
Orbital Transformation      ....       0.395 sec  (  0.0%)
Orbital Orthonormalization  ....       0.000 sec  (  0.0%)
DIIS solution               ....       2.135 sec  (  0.2%)
SOSCF solution              ....       1.482 sec  (  0.1%)
Finished LeanSCF after 1166.4 sec

Maximum memory used throughout the entire LEANSCF-calculation: 147.3 MB

-------------------------   --------------------
FINAL SINGLE POINT ENERGY     -2109.634940385450
-------------------------   --------------------


------------------------------------------------------------------------------
                              ORCA PROPERTY CALCULATIONS
------------------------------------------------------------------------------

GBWName                                 ... /home/nmrbox/aojoawo/Documents/ERDOS/inputs/CHEMBL5269402.gbw
Number of atoms                         ...     86
Number of basis functions               ...    724
Max core memory                         ...   1024 MB

Electric properties:
Dipole moment                           ... YES
Quadrupole moment                       ...  NO
Static polarizability (Dipole/Dipole)   ...  NO
Static polarizability (Dipole/Quad.)    ...  NO
Static polarizability (Quad./Quad.)     ...  NO
Static polarizability (Velocity)        ...  NO

Atomic electric properties:
Dipole moment                           ...  NO
Quadrupole moment                       ...  NO
Static polarizability                   ...  NO

Choice of electric origin               ... Center of mass
Position of electric origin             ...     0.460013    -0.085566     0.111904

General magnetic properties:
Magnetizability                         ...  NO

EPR properties:
g-Tensor (aka g-matrix)                 ...  NO
Zero-Field splitting spin-orbit         ...  NO
Zero-field splitting spin-spin          ...  NO
Hyperfine couplings                     ...  NO (   0 nuclei)
Quadrupole couplings                    ...  NO (   0 nuclei)
Contact density                         ...  NO (   0 nuclei)

NMR properties:
Chemical shifts                         ...  NO (   0 nuclei)
Spin-rotation constants                 ...  NO (   0 nuclei)
Spin-spin couplings                     ...  NO (   0 nuclei,    0 pairs)

Choice of magnetic origin               ... GIAO
Position of magnetic origin             ...     0.000000     0.000000     0.000000

Properties with geometric perturbations:
SCF Hessian                             ...  NO
IR spectrum                             ...  NO
VCD spectrum                            ...  NO
X-ray spectroscopy properties:
SCF XES/XAS/RIXS spectra                ...  NO


-------------
DIPOLE MOMENT
-------------

Method             : SCF
Type of density    : Electron Density
Multiplicity       :   1
Irrep              :   0
Energy             : -2109.6349403854501361 Eh
Relativity type    : 
Basis              : AO
                                X                 Y                 Z
Electronic contribution:     16.985531375      -4.099184377       7.112480024
Nuclear contribution   :    -16.305652974       4.658982859      -7.485732222
                        -----------------------------------------
Total Dipole Moment    :      0.679878400       0.559798483      -0.373252198
                        -----------------------------------------
Magnitude (a.u.)       :      0.956517739
Magnitude (Debye)      :      2.431274875



--------------------
Rotational spectrum 
--------------------
 
Rotational constants in cm-1:             0.003175             0.001145             0.000928 
Rotational constants in MHz :            95.174567            34.316582            27.818428 

Dipole components along the rotational axes: 
x,y,z [a.u.] :     0.619948     0.671147     0.283111 
x,y,z [Debye]:     1.575782     1.705921     0.719612 

 

Dipole moment calculation done in   0.0 sec 

Maximum memory used throughout the entire PROP-calculation: 72.7 MB

--------------------------------
SUGGESTED CITATIONS FOR THIS RUN
--------------------------------

Below you find a list of papers that are relevant to this ORCA run
We neither can nor want to force you to cite these papers, but we appreciate if you do
You receive ORCA, which is the product of decades of hard work by many enthusiastic individuals, for free
The only thing we kindly ask in return is that you cite our papers,
We deeply appreciate it, if you show your appreciation for ORCA by not just citing the generic ORCA reference.

Please note that relegating all ORCA citations to the supporting information does *not* help us.
SI sections are not indexed - citations you put there will not count into any citation statistics
But we need these citations in order to attract the funding resources that allow us to do what we are doing

Therefore, if you are a happy ORCA user, please consider citing a few of the papers listed below in the main body of your paper

In addition to the list printed below, the program has created the file /home/nmrbox/aojoawo/Documents/ERDOS/inputs/CHEMBL5269402.bibtex that contains the list in bibtex format
You can import this file easily into all common literature databanks and citation aid programs


List of essential papers. We consider these as the minimum necessary citations

  1. Neese,F.
     Software update: the ORCA program system, version 5.0
     WIRES Comput. Molec. Sci., 2022 12(1)e1606
     doi.org/10.1002/wcms.1606

List of papers to cite with high priority. The work reported in these papers was absolutely
necessary for this run to complete.
Our perspective: the developers of density functionals and basis sets usually get cited in chemistry papers
Good! But without the algorithms to do something with them, the functionals or basis sets would not do anything.
Hence, in our opinion, the algorithm design and method developments papers are equally worthy of getting cited

  1. Neese,F.
     An improvement of the resolution of the identity approximation for the formation of the Coulomb matrix
     J. Comp. Chem., 2003 24(14)1740-1747
     doi.org/10.1002/jcc.10318
  2. Neese,F.; Wennmohs,F.; Hansen,A.; Becker,U.
     Efficient, approximate and parallel Hartree-Fock and hybrid DFT calculations. A 'chain-of-spheres' algorithm for the Hartree-Fock exchange
     Chem. Phys., 2009 356(1-3)98-109
     doi.org/10.1016/j.chemphys.2008.10.036
  3. Helmich-Paris,B.; de Souza,B.; Neese,F.; Izsák,R.
     An improved chain of spheres for exchange algorithm
     J. Chem. Phys., 2021 155 104109
     doi.org/doi: 10.1063/5.0058766.
  4. Neese,F.
     The SHARK Integral Generation and Digestion System
     J. Comp. Chem., 2022  1-16
     doi.org/10.1002/jcc.26942

List of suggested additional citations. These are papers that are important in the 'surrounding' of 
of this run, or papers that preceded the highly important papers. If you like your results we are grateful for a citation.

  1. Izsak,R.; Neese,F.
     An overlap fitted chain of spheres exchange method
     J. Chem. Phys., 2011 135 144105
     doi.org/10.1063/1.3646921
  2. Izsak,R.; Hansen,A.; Neese,F.
     The resolution of identity and chain of spheres approximations for the LPNO-CCSD singles Fock term
     Molec. Phys., 2012 110 2413-2417
     doi.org/10.1080/00268976.2012.687466
  3. Neese,F.
     The ORCA program system
     WIRES Comput. Molec. Sci., 2012 2(1)73-78
     doi.org/10.1002/wcms.81
  4. Izsak,R.; Neese,F.; Klopper,W.
     Robust fitting techniques in the chain of spheres approximation to the Fock exchange: The role of the complementary space
     J. Chem. Phys., 2013 139 
     doi.org/10.1063/1.4819264
  5. Neese,F.
     Software update: the ORCA program system, version 4.0
     WIRES Comput. Molec. Sci., 2018 8(1)1-6
     doi.org/10.1002/wcms.1327
  6. Neese,F.; Wennmohs,F.; Becker,U.; Riplinger,C.
     The ORCA quantum chemistry program package
     J. Chem. Phys., 2020 152 Art. No. L224108
     doi.org/10.1063/5.0004608

List of optional additional citations

  1. Neese,F.
     Approximate second-order SCF convergence for spin unrestricted wavefunctions
     Chem. Phys. Lett., 2000 325(1-3)93-98
     doi.org/10.1016/s0009-2614(00)00662-x

Timings for individual modules:

Sum of individual times          ...     1214.089 sec (=  20.235 min)
Startup calculation              ...       29.439 sec (=   0.491 min)   2.4 %
SCF iterations                   ...     1184.302 sec (=  19.738 min)  97.5 %
Property calculations            ...        0.349 sec (=   0.006 min)   0.0 %
                             ****ORCA TERMINATED NORMALLY****
TOTAL RUN TIME: 0 days 0 hours 20 minutes 14 seconds 857 msec
