
                                 *****************
                                 * O   R   C   A *
                                 *****************

                                            #,                                       
                                            ###                                      
                                            ####                                     
                                            #####                                    
                                            ######                                   
                                           ########,                                 
                                     ,,################,,,,,                         
                               ,,#################################,,                 
                          ,,##########################################,,             
                       ,#########################################, ''#####,          
                    ,#############################################,,   '####,        
                  ,##################################################,,,,####,       
                ,###########''''           ''''###############################       
              ,#####''   ,,,,##########,,,,          '''####'''          '####       
            ,##' ,,,,###########################,,,                        '##       
           ' ,,###''''                  '''############,,,                           
         ,,##''                                '''############,,,,        ,,,,,,###''
      ,#''                                            '''#######################'''  
     '                                                          ''''####''''         
             ,#######,   #######,   ,#######,      ##                                
            ,#'     '#,  ##    ##  ,#'     '#,    #''#        ,####,   ,####,        
            ##       ##  ##   ,#'  ##            #'  '#       #'       #'  '#        
            ##       ##  #######   ##           ,######,      #####,   #    #        
            '#,     ,#'  ##    ##  '#,     ,#' ,#      #,     #,   #   #,  ,#        
             '#######'   ##     ##  '#######'  #'      '#     '####' # '####'        



                #########################################################
                #                        -***-                          #
                #          Department of theory and spectroscopy        #
                #                                                       #
                #                      Frank Neese                      #
                #                                                       #
                #     Directorship, Architecture, Infrastructure        #
                #                    SHARK, DRIVERS                     #
                #        Core code/Algorithms in most modules           #
                #                                                       #
                #        Max Planck Institute fuer Kohlenforschung      #
                #                Kaiser Wilhelm Platz 1                 #
                #                 D-45470 Muelheim/Ruhr                 #
                #                      Germany                          #
                #                                                       #
                #                  All rights reserved                  #
                #                        -***-                          #
                #########################################################


                         Program Version 6.0.0  -   RELEASE  -


 With contributions from (in alphabetic order):
   Daniel Aravena         : Magnetic Suceptibility
   Michael Atanasov       : Ab Initio Ligand Field Theory (pilot matlab implementation)
   Alexander A. Auer      : GIAO ZORA, VPT2 properties, NMR spectrum
   Ute Becker             : All parallelization in ORCA, NUMFREQ, NUMCALC
   Giovanni Bistoni       : ED, misc. LED, open-shell LED, HFLD
   Martin Brehm           : Molecular dynamics
   Dmytro Bykov           : pre 5.0 version of the SCF Hessian
   Marcos Casanova-Páez   : Triplet and SCS-CIS(D). UHF-(DLPNO)-IP/EA/STEOM-CCSD. UHF-CVS-IP/STEOM-CCSD
   Vijay G. Chilkuri      : MRCI spin determinant printing, contributions to CSF-ICE
   Pauline Colinet        : FMM embedding
   Dipayan Datta          : RHF DLPNO-CCSD density
   Achintya Kumar Dutta   : EOM-CC, STEOM-CC
   Nicolas Foglia         : Exact transition moments, OPA infrastructure, MCD improvements
   Dmitry Ganyushin       : Spin-Orbit,Spin-Spin,Magnetic field MRCI
   Miquel Garcia          : C-PCM and meta-GGA Hessian, CCSD/C-PCM, Gaussian charge scheme
   Tiago L. C. Gouveia    : GS-ROHF, GS-ROCIS
   Yang Guo               : DLPNO-NEVPT2, F12-NEVPT2, CIM, IAO-localization
   Andreas Hansen         : Spin unrestricted coupled pair/coupled cluster methods
   Ingolf Harden          : AUTO-CI MPn and infrastructure 
   Benjamin Helmich-Paris : MC-RPA, TRAH-(SCF,CASSCF), AVAS, COSX integrals, SCF dyn. polar.
   Lee Huntington         : MR-EOM, pCC
   Robert Izsak           : Overlap fitted RIJCOSX, COSX-SCS-MP3, EOM
   Riya Kayal             : Wick's Theorem for AUTO-CI, AUTO-CI UHF-CCSDT
   Emily Kempfer          : AUTO-CI, RHF CISDT and CCSDT
   Christian Kollmar      : KDIIS, OOCD, Brueckner-CCSD(T), CCSD density, CASPT2, CASPT2-K, improved NEVPT2
   Axel Koslowski         : Symmetry handling
   Simone Kossmann        : Meta GGA functionals, TD-DFT gradient, OOMP2, (MP2 Hessian; deprecated post 5.0)
   Lucas Lang             : DCDCAS
   Marvin Lechner         : AUTO-CI (C++ implementation), FIC-MRCC
   Spencer Leger          : CASSCF response
   Dagmar Lenk            : GEPOL surface, SMD, ORCA-2-JSON
   Dimitrios Liakos       : Extrapolation schemes; Compound Job, initial MDCI parallelization
   Dimitrios Manganas     : Further ROCIS development; embedding schemes. LFT, Crystal Embedding
   Dimitrios Pantazis     : SARC Basis sets
   Anastasios Papadopoulos: AUTO-CI, single reference methods and gradients
   Taras Petrenko         : pre 6.0 DFT Hessian and TD-DFT gradient, (ASA, deprecated), ECA, 1-Electron XAS/XES, NRVS
   Peter Pinski           : DLPNO-MP2, DLPNO-MP2 Gradient
   Christoph Reimann      : Effective Core Potentials
   Marius Retegan         : Local ZFS, SOC
   Christoph Riplinger    : Optimizer, TS searches, QM/MM, DLPNO-CCSD(T), (RO)-DLPNO pert. Triples
   Michael Roemelt        : Original ROCIS implementation
   Masaaki Saitow         : Open-shell DLPNO-CCSD energy and density
   Barbara Sandhoefer     : DKH picture change effects
   Kantharuban Sivalingam : CASSCF convergence/infrastructure, NEVPT2 and variants, FIC-MRCI
   Bernardo de Souza      : ESD, SOC TD-DFT
   Georgi Stoychev        : AutoAux, RI-MP2 NMR, DLPNO-MP2 response, X2C
   Van Anh Tran           : RI-MP2 g-tensors
   Willem Van den Heuvel  : Paramagnetic NMR
   Zikuan Wang            : NOTCH, Electric field optimization 
   Frank Wennmohs         : Technical directorship and infrastructure
   Hang Xu                : AUTO-CI-Response properties 


 We gratefully acknowledge several colleagues who have allowed us to
 interface, adapt or use parts of their codes:
   Stefan Grimme, W. Hujo, H. Kruse, P. Pracht,  : VdW corrections, initial TS optimization,
                  C. Bannwarth, S. Ehlert,         DFT functionals, gCP, sTDA/sTD-DF
                  L. Wittmann, M. Mueller
   Ed Valeev, F. Pavosevic, A. Kumar             : LibInt (2-el integral package), F12 methods
   Garnet Chan, S. Sharma, J. Yang, R. Olivares  : DMRG
   Ulf Ekstrom                                   : XCFun DFT Library
   Mihaly Kallay                                 : mrcc  (arbitrary order and MRCC methods)
   Frank Weinhold                                : gennbo (NPA and NBO analysis)
   Simon Mueller                                 : openCOSMO-RS
   Christopher J. Cramer and Donald G. Truhlar   : smd solvation model
   Lars Goerigk                                  : TD-DFT with DH, B97 family of functionals
   V. Asgeirsson, H. Jonsson                     : NEB implementation
   FAccTs GmbH                                   : IRC, NEB, NEB-TS, DLPNO-Multilevel, CI-OPT
                                                   MM, QMMM, 2- and 3-layer-ONIOM, Crystal-QMMM,
                                                   LR-CPCM, SF, NACMEs, symmetry and pop. for TD-DFT,
                                                   nearIR, NL-DFT gradient (VV10), updates on ESD,
                                                   ML-optimized integration grids, MBIS, APM,
                                                   GOAT, DOCKER, SOLVATOR, interface openCOSMO-RS
   S Lehtola, MJT Oliveira, MAL Marques          : LibXC Library
   Liviu Ungur et al                             : ANISO software


 Your calculation uses the libint2 library for the computation of 2-el integrals
 For citations please refer to: http://libint.valeyev.net

 Your ORCA version has been built with support for libXC version: 6.2.2
 For citations please refer to: https://libxc.gitlab.io

 This ORCA versions uses:
   CBLAS   interface :  Fast vector & matrix operations
   LAPACKE interface :  Fast linear algebra routines
   SCALAPACK package :  Parallel linear algebra routines
   Shared memory     :  Shared parallel matrices
   BLAS/LAPACK       :  OpenBLAS 0.3.27  USE64BITINT DYNAMIC_ARCH NO_AFFINITY SkylakeX SINGLE_THREADED
        Core in use  :  SkylakeX
   Copyright (c) 2011-2014, The OpenBLAS Project


Warning: RI is on but no J-basis has been assigned. Assigning Def2/J (nothing to worry about!)
================================================================================

----- Orbital basis set information -----
Your calculation utilizes the basis: 6-31G*
   H-He, Li-Ne : W. J. Hehre, R. Ditchfield and J.A. Pople, J. Chem. Phys. 56, 2257 (1972).
                 Note: He and Ne are unpublished basis sets taken from the Gaussian program.
                 Note: Li and B from J. D. Dill and J. A. Pople, J. Chem. Phys. 62, 2921 (1975).
   Na - Ar     : M. M. Francl, W. J. Pietro, W. J. Hehre, J. S. Binkley, M. S. Gordon, 
                 D. J. DeFrees and J. A. Pople, J. Chem. Phys. 77, 3654 (1982).
   K - Zn      : V. A. Rassolov, J. A. Pople, M. A. Ratner, and T. L. Windus, J. Chem. Phys. 109, 1223 (1998).

----- AuxJ basis set information -----
Your calculation utilizes the auxiliary basis: def2/J
   F. Weigend, Phys. Chem. Chem. Phys. 8, 1057 (2006).

================================================================================
                                        WARNINGS
                       Please study these warnings very carefully!
================================================================================


================================================================================
                                       INPUT FILE
================================================================================
NAME = /home/nmrbox/aojoawo/Documents/ERDOS/inputs/CHEMBL3682605.inp
|  1> ! B3LYP 6-31G* SP
|  2> 
|  3> * xyz 0 1
|  4> C 0.3004 -1.9455 1.5904
|  5> C 0.7247 -1.8161 0.1433
|  6> C 1.0772 -0.5566 -0.3977
|  7> N 1.0578 0.6297 0.4064
|  8> C 0.0629 1.6716 0.1462
|  9> C -1.3229 1.1194 0.3378
| 10> C -1.8664 1.0135 1.6228
| 11> C -3.1096 0.4063 1.8166
| 12> C -3.8529 -0.0929 0.7236
| 13> C -5.1929 -0.8152 0.9577
| 14> O -5.7295 -0.4351 2.2070
| 15> C -4.9329 -2.3409 1.0210
| 16> F -6.1198 -3.0236 1.2247
| 17> F -4.0799 -2.6311 2.0726
| 18> F -4.3528 -2.7999 -0.1490
| 19> C -6.2539 -0.4756 -0.1384
| 20> F -7.5172 -0.8364 0.3007
| 21> F -6.2602 0.8871 -0.3917
| 22> F -6.0120 -1.1475 -1.3250
| 23> C -3.2761 -0.0089 -0.5612
| 24> C -2.0314 0.5953 -0.7512
| 25> S 2.3852 0.9566 1.4753
| 26> O 3.2759 -0.2505 1.5811
| 27> O 1.8545 1.2786 2.8445
| 28> C 3.3159 2.3062 0.8358
| 29> C 3.2555 3.5667 1.4429
| 30> C 3.9745 4.6395 0.9088
| 31> C 4.7648 4.4673 -0.2413
| 32> C 5.5260 5.6001 -0.8118
| 33> O 5.4954 6.7326 -0.2607
| 34> O 6.2824 5.4255 -1.9671
| 35> C 4.8189 3.1996 -0.8455
| 36> C 4.0954 2.1282 -0.3131
| 37> N 1.3995 -0.4444 -1.7132
| 38> C 1.4191 -1.5086 -2.5506
| 39> C 1.1028 -2.7835 -2.0740
| 40> C 1.1254 -3.8886 -2.9393
| 41> C 0.8106 -5.1610 -2.4604
| 42> C 0.4697 -5.3405 -1.1199
| 43> C 0.4438 -4.2489 -0.2470
| 44> C 0.7556 -2.9502 -0.7095
| 45> H 1.0428 -2.5630 2.1447
| 46> H 0.2174 -0.9668 2.1055
| 47> H -0.7037 -2.4248 1.6476
| 48> H 0.2156 2.5333 0.8320
| 49> H 0.1906 2.0557 -0.8891
| 50> H -1.3113 1.3733 2.4815
| 51> H -3.4776 0.3131 2.8296
| 52> H -5.9109 0.5424 2.1792
| 53> H -3.7694 -0.4251 -1.4261
| 54> H -1.6055 0.6276 -1.7463
| 55> H 2.6484 3.7227 2.3254
| 56> H 3.9080 5.6035 1.3939
| 57> H 6.8082 6.1938 -2.3666
| 58> H 5.4178 3.0331 -1.7309
| 59> H 4.1401 1.1599 -0.7990
| 60> H 1.6836 -1.3555 -3.5897
| 61> H 1.3865 -3.7684 -3.9845
| 62> H 0.8304 -6.0103 -3.1302
| 63> H 0.2246 -6.3305 -0.7538
| 64> H 0.1811 -4.4362 0.7852
| 65> *
| 66> 
| 67>                          ****END OF INPUT****
================================================================================

                       ****************************
                       * Single Point Calculation *
                       ****************************

---------------------------------
CARTESIAN COORDINATES (ANGSTROEM)
---------------------------------
  C      0.300400   -1.945500    1.590400
  C      0.724700   -1.816100    0.143300
  C      1.077200   -0.556600   -0.397700
  N      1.057800    0.629700    0.406400
  C      0.062900    1.671600    0.146200
  C     -1.322900    1.119400    0.337800
  C     -1.866400    1.013500    1.622800
  C     -3.109600    0.406300    1.816600
  C     -3.852900   -0.092900    0.723600
  C     -5.192900   -0.815200    0.957700
  O     -5.729500   -0.435100    2.207000
  C     -4.932900   -2.340900    1.021000
  F     -6.119800   -3.023600    1.224700
  F     -4.079900   -2.631100    2.072600
  F     -4.352800   -2.799900   -0.149000
  C     -6.253900   -0.475600   -0.138400
  F     -7.517200   -0.836400    0.300700
  F     -6.260200    0.887100   -0.391700
  F     -6.012000   -1.147500   -1.325000
  C     -3.276100   -0.008900   -0.561200
  C     -2.031400    0.595300   -0.751200
  S      2.385200    0.956600    1.475300
  O      3.275900   -0.250500    1.581100
  O      1.854500    1.278600    2.844500
  C      3.315900    2.306200    0.835800
  C      3.255500    3.566700    1.442900
  C      3.974500    4.639500    0.908800
  C      4.764800    4.467300   -0.241300
  C      5.526000    5.600100   -0.811800
  O      5.495400    6.732600   -0.260700
  O      6.282400    5.425500   -1.967100
  C      4.818900    3.199600   -0.845500
  C      4.095400    2.128200   -0.313100
  N      1.399500   -0.444400   -1.713200
  C      1.419100   -1.508600   -2.550600
  C      1.102800   -2.783500   -2.074000
  C      1.125400   -3.888600   -2.939300
  C      0.810600   -5.161000   -2.460400
  C      0.469700   -5.340500   -1.119900
  C      0.443800   -4.248900   -0.247000
  C      0.755600   -2.950200   -0.709500
  H      1.042800   -2.563000    2.144700
  H      0.217400   -0.966800    2.105500
  H     -0.703700   -2.424800    1.647600
  H      0.215600    2.533300    0.832000
  H      0.190600    2.055700   -0.889100
  H     -1.311300    1.373300    2.481500
  H     -3.477600    0.313100    2.829600
  H     -5.910900    0.542400    2.179200
  H     -3.769400   -0.425100   -1.426100
  H     -1.605500    0.627600   -1.746300
  H      2.648400    3.722700    2.325400
  H      3.908000    5.603500    1.393900
  H      6.808200    6.193800   -2.366600
  H      5.417800    3.033100   -1.730900
  H      4.140100    1.159900   -0.799000
  H      1.683600   -1.355500   -3.589700
  H      1.386500   -3.768400   -3.984500
  H      0.830400   -6.010300   -3.130200
  H      0.224600   -6.330500   -0.753800
  H      0.181100   -4.436200    0.785200

----------------------------
CARTESIAN COORDINATES (A.U.)
----------------------------
  NO LB      ZA    FRAG     MASS         X           Y           Z
   0 C     6.0000    0    12.011    0.567674   -3.676462    3.005420
   1 C     6.0000    0    12.011    1.369485   -3.431932    0.270798
   2 C     6.0000    0    12.011    2.035613   -1.051822   -0.751544
   3 N     7.0000    0    14.007    1.998952    1.189961    0.767985
   4 C     6.0000    0    12.011    0.118864    3.158866    0.276278
   5 C     6.0000    0    12.011   -2.499919    2.115359    0.638349
   6 C     6.0000    0    12.011   -3.526985    1.915237    3.066648
   7 C     6.0000    0    12.011   -5.876292    0.767796    3.432876
   8 C     6.0000    0    12.011   -7.280926   -0.175556    1.367406
   9 C     6.0000    0    12.011   -9.813159   -1.540505    1.809791
  10 O     8.0000    0    15.999  -10.827186   -0.822220    4.170626
  11 C     6.0000    0    12.011   -9.321830   -4.423660    1.929410
  12 F     9.0000    0    18.998  -11.564746   -5.713776    2.314348
  13 F     9.0000    0    18.998   -7.709894   -4.972058    3.916646
  14 F     9.0000    0    18.998   -8.225600   -5.291044   -0.281569
  15 C     6.0000    0    12.011  -11.818158   -0.898754   -0.261538
  16 F     9.0000    0    18.998  -14.205449   -1.580567    0.568241
  17 F     9.0000    0    18.998  -11.830064    1.676376   -0.740206
  18 F     9.0000    0    18.998  -11.361034   -2.168461   -2.503887
  19 C     6.0000    0    12.011   -6.190932   -0.016819   -1.060514
  20 C     6.0000    0    12.011   -3.838790    1.124954   -1.419562
  21 S    16.0000    0    32.060    4.507375    1.807712    2.787913
  22 O     8.0000    0    15.999    6.190554   -0.473376    2.987846
  23 O     8.0000    0    15.999    3.504497    2.416204    5.375326
  24 C     6.0000    0    12.011    6.266143    4.358086    1.579433
  25 C     6.0000    0    12.011    6.152003    6.740086    2.726686
  26 C     6.0000    0    12.011    7.510717    8.767384    1.717383
  27 C     6.0000    0    12.011    9.004167    8.441974   -0.455991
  28 C     6.0000    0    12.011   10.442627   10.582655   -1.534080
  29 O     8.0000    0    15.999   10.384801   12.722770   -0.492652
  30 O     8.0000    0    15.999   11.872015   10.252709   -3.717280
  31 C     6.0000    0    12.011    9.106401    6.046368   -1.597763
  32 C     6.0000    0    12.011    7.739184    4.021715   -0.591673
  33 N     7.0000    0    14.007    2.644672   -0.839794   -3.237479
  34 C     6.0000    0    12.011    2.681710   -2.850841   -4.819935
  35 C     6.0000    0    12.011    2.083990   -5.260053   -3.919292
  36 C     6.0000    0    12.011    2.126698   -7.348389   -5.554472
  37 C     6.0000    0    12.011    1.531812   -9.752877   -4.649482
  38 C     6.0000    0    12.011    0.887604  -10.092082   -2.116304
  39 C     6.0000    0    12.011    0.838660   -8.029257   -0.466762
  40 C     6.0000    0    12.011    1.427877   -5.575070   -1.340761
  41 H     1.0000    0     1.008    1.970606   -4.843368    4.052896
  42 H     1.0000    0     1.008    0.410826   -1.826987    3.978818
  43 H     1.0000    0     1.008   -1.329800   -4.582208    3.113513
  44 H     1.0000    0     1.008    0.407425    4.787243    1.572252
  45 H     1.0000    0     1.008    0.360182    3.884710   -1.680156
  46 H     1.0000    0     1.008   -2.477998    2.595161    4.689355
  47 H     1.0000    0     1.008   -6.571712    0.591673    5.347169
  48 H     1.0000    0     1.008  -11.169982    1.024987    4.118091
  49 H     1.0000    0     1.008   -7.123134   -0.803323   -2.694938
  50 H     1.0000    0     1.008   -3.033955    1.185992   -3.300029
  51 H     1.0000    0     1.008    5.004751    7.034883    4.394369
  52 H     1.0000    0     1.008    7.385050   10.589080    2.634089
  53 H     1.0000    0     1.008   12.865633   11.704586   -4.472226
  54 H     1.0000    0     1.008   10.238158    5.731728   -3.270927
  55 H     1.0000    0     1.008    7.823655    2.191893   -1.509891
  56 H     1.0000    0     1.008    3.181543   -2.561524   -6.783550
  57 H     1.0000    0     1.008    2.620105   -7.121244   -7.529614
  58 H     1.0000    0     1.008    1.569229  -11.357821   -5.915221
  59 H     1.0000    0     1.008    0.424432  -11.962911   -1.424476
  60 H     1.0000    0     1.008    0.342229   -8.383203    1.483813

--------------------------------
INTERNAL COORDINATES (ANGSTROEM)
--------------------------------
 C      0   0   0     0.000000000000     0.00000000     0.00000000
 C      1   0   0     1.513563100766     0.00000000     0.00000000
 C      2   1   0     1.415371859265   120.75330430     0.00000000
 N      3   2   1     1.433269290817   121.24670092     0.66577997
 C      4   3   2     1.463928160806   119.90477551   248.35175663
 C      5   4   3     1.504020292416   110.01353142    61.34601258
 C      6   5   4     1.399225521494   120.17729402    81.13658713
 C      7   6   5     1.397067113635   120.39367358   184.99396698
 C      8   7   6     1.412920567477   120.95614564   358.97311820
 C      9   8   7     1.540168854379   120.38548415   177.29364710
 O     10   9   8     1.411795332192   109.81137307    22.25246454
 C     10   9   8     1.548989147799   108.78987296   265.42351449
 F     12  10   9     1.384306537585   110.35613173   180.28163471
 F     12  10   9     1.384805979190   109.92765539    60.96282373
 F     12  10   9     1.384231559386   111.24817302   300.98970028
 C     10   9   8     1.562844960321   112.46686085   142.16907251
 F     16  10   9     1.385248114960   109.88983618   196.36781963
 F     16  10   9     1.386056229018   110.17513010   315.31374828
 F     16  10   9     1.384913275263   112.14279282    76.57614752
 C      9   8   7     1.410838502452   117.92750452     2.57723891
 C     20   9   8     1.396580012029   120.93227945   357.60497361
 S      4   3   2     1.735339038920   119.41514103    79.78549258
 O     22   4   3     1.503871849594   110.19227082   348.96341764
 O     22   4   3     1.503341321856   109.34888119   229.81713569
 C     22   4   3     1.759711027413   108.97714032   108.69520573
 C     25  22   4     1.400385239854   120.66211772   106.99539530
 C     26  25  22     1.397542002947   120.20426016   181.48063541
 C     27  26  25     1.406043007877   120.51499103     0.00000000
 C     28  27  26     1.479233426475   120.72497634   179.90129032
 O     29  28  27     1.259842775905   120.47686126     1.23645216
 O     29  28  27     1.391885128163   120.24522007   181.38105817
 C     28  27  26     1.405363917283   118.93234989     0.05913178
 C     32  28  27     1.398141612999   120.50458070     0.17086548
 N      3   2   1     1.359046128724   120.16641335   182.90465729
 C     34   3   2     1.354305932941   122.48446588   359.02288429
 C     35  34   3     1.397341497273   120.18302159   359.90193216
 C     36  35  34     1.403745297410   120.29001566   180.14699340
 C     37  36  35     1.395509229636   120.17418021   179.92547776
 C     38  37  36     1.394766399796   120.15211822     0.10963542
 C     39  38  37     1.397932680783   120.27573201   359.86117239
 C     40  39  38     1.413416845803   120.60248171     0.29415985
 H      1   2   3     1.113423773772   109.66195160   244.71196048
 H      1   2   3     1.109085524205   112.92828347     5.13377240
 H      1   2   3     1.114099250516   109.78682394   124.13987581
 H      5   4   3     1.111829942033   110.40335484   182.21398020
 H      5   4   3     1.111614227149   109.47454418   299.64875892
 H      7   6   5     1.083954676174   120.23064321     2.99190948
 H      8   7   6     1.081794453674   118.03766801   177.84901478
 H     11  10   9     0.994577825009   108.01086491    62.63359489
 H     20   9   8     1.079175305500   121.33248952   176.35753710
 H     21  20   9     1.082893397339   119.23859753   178.81771106
 H     26  25  22     1.082456770499   120.48759816     1.11052026
 H     27  26  25     1.081221651652   118.77052056   179.76071472
 H     31  29  28     1.013089719620   120.94572837   180.03639905
 H     32  28  27     1.081820974099   120.79761958   180.04336600
 H     33  32  28     1.084297832701   119.49513437   179.30695954
 H     35  34   3     1.083110645317   119.05575644   179.96408435
 H     37  36  35     1.084003823794   120.72645189   359.94539829
 H     38  37  36     1.081820026622   119.94760756   180.07790045
 H     39  38  37     1.083606579899   119.83937386   179.90119865
 H     40  39  38     1.081447835080   117.72613484   180.44689316

---------------------------
INTERNAL COORDINATES (A.U.)
---------------------------
 C      0   0   0     0.000000000000     0.00000000     0.00000000
 C      1   0   0     2.860219746856     0.00000000     0.00000000
 C      2   1   0     2.674665191670   120.75330430     0.00000000
 N      3   2   1     2.708486435804   121.24670092     0.66577997
 C      4   3   2     2.766423303658   119.90477551   248.35175663
 C      5   4   3     2.842186452527   110.01353142    61.34601258
 C      6   5   4     2.644153035217   120.17729402    81.13658713
 C      7   6   5     2.640074235478   120.39367358   184.99396698
 C      8   7   6     2.670032921516   120.95614564   358.97311820
 C      9   8   7     2.910497334772   120.38548415   177.29364710
 O     10   9   8     2.667906534992   109.81137307    22.25246454
 C     10   9   8     2.927165273757   108.78987296   265.42351449
 F     12  10   9     2.615960241432   110.35613173   180.28163471
 F     12  10   9     2.616904049285   109.92765539    60.96282373
 F     12  10   9     2.615818553170   111.24817302   300.98970028
 C     10   9   8     2.953348964785   112.46686085   142.16907251
 F     16  10   9     2.617739564805   109.88983618   196.36781963
 F     16  10   9     2.619266679060   110.17513010   315.31374828
 F     16  10   9     2.617106809479   112.14279282    76.57614752
 C      9   8   7     2.666098388825   117.92750452     2.57723891
 C     20   9   8     2.639153746844   120.93227945   357.60497361
 S      4   3   2     3.279315533061   119.41514103    79.78549258
 O     22   4   3     2.841905936245   110.19227082   348.96341764
 O     22   4   3     2.840903384115   109.34888119   229.81713569
 C     22   4   3     3.325371916652   108.97714032   108.69520573
 C     25  22   4     2.646344585309   120.66211772   106.99539530
 C     26  25  22     2.640971646221   120.20426016   181.48063541
 C     27  26  25     2.657036217403   120.51499103     0.00000000
 C     28  27  26     2.795346064179   120.72497634   179.90129032
 O     29  28  27     2.380757818260   120.47686126     1.23645216
 O     29  28  27     2.630281702105   120.24522007   181.38105817
 C     28  27  26     2.655752922159   118.93234989     0.05913178
 C     32  28  27     2.642104745007   120.50458070     0.17086548
 N      3   2   1     2.568224986654   120.16641335   182.90465729
 C     34   3   2     2.559267314804   122.48446588   359.02288429
 C     35  34   3     2.640592745409   120.18302159   359.90193216
 C     36  35  34     2.652694173884   120.29001566   180.14699340
 C     37  36  35     2.637130261372   120.17418021   179.92547776
 C     38  37  36     2.635726516410   120.15211822     0.10963542
 C     39  38  37     2.641709920337   120.27573201   359.86117239
 C     40  39  38     2.670970751639   120.60248171     0.29415985
 H      1   2   3     2.104066003426   109.66195160   244.71196048
 H      1   2   3     2.095867899843   112.92828347     5.13377240
 H      1   2   3     2.105342469482   109.78682394   124.13987581
 H      5   4   3     2.101054097935   110.40335484   182.21398020
 H      5   4   3     2.100646455882   109.47454418   299.64875892
 H      7   6   5     2.048377479553   120.23064321     2.99190948
 H      8   7   6     2.044295250639   118.03766801   177.84901478
 H     11  10   9     1.879479708138   108.01086491    62.63359489
 H     20   9   8     2.039345777885   121.33248952   176.35753710
 H     21  20   9     2.046371953202   119.23859753   178.81771106
 H     26  25  22     2.045546848053   120.48759816     1.11052026
 H     27  26  25     2.043212811687   118.77052056   179.76071472
 H     31  29  28     1.914462119173   120.94572837   180.03639905
 H     32  28  27     2.044345366979   120.79761958   180.04336600
 H     33  32  28     2.049025951409   119.49513437   179.30695954
 H     35  34   3     2.046782492385   119.05575644   179.96408435
 H     37  36  35     2.048470355094   120.72645189   359.94539829
 H     38  37  36     2.044343576507   119.94760756   180.07790045
 H     39  38  37     2.047719672924   119.83937386   179.90119865
 H     40  39  38     2.043640236424   117.72613484   180.44689316

---------------------
BASIS SET INFORMATION
---------------------
There are 6 groups of distinct atoms

 Group   1 Type C   : 10s4p1d contracted to 3s2p1d pattern {631/31/1}
 Group   2 Type N   : 10s4p1d contracted to 3s2p1d pattern {631/31/1}
 Group   3 Type O   : 10s4p1d contracted to 3s2p1d pattern {631/31/1}
 Group   4 Type F   : 10s4p1d contracted to 3s2p1d pattern {631/31/1}
 Group   5 Type S   : 16s10p1d contracted to 4s3p1d pattern {6631/631/1}
 Group   6 Type H   : 4s contracted to 2s pattern {31}

Atom   0C    basis set group =>   1
Atom   1C    basis set group =>   1
Atom   2C    basis set group =>   1
Atom   3N    basis set group =>   2
Atom   4C    basis set group =>   1
Atom   5C    basis set group =>   1
Atom   6C    basis set group =>   1
Atom   7C    basis set group =>   1
Atom   8C    basis set group =>   1
Atom   9C    basis set group =>   1
Atom  10O    basis set group =>   3
Atom  11C    basis set group =>   1
Atom  12F    basis set group =>   4
Atom  13F    basis set group =>   4
Atom  14F    basis set group =>   4
Atom  15C    basis set group =>   1
Atom  16F    basis set group =>   4
Atom  17F    basis set group =>   4
Atom  18F    basis set group =>   4
Atom  19C    basis set group =>   1
Atom  20C    basis set group =>   1
Atom  21S    basis set group =>   5
Atom  22O    basis set group =>   3
Atom  23O    basis set group =>   3
Atom  24C    basis set group =>   1
Atom  25C    basis set group =>   1
Atom  26C    basis set group =>   1
Atom  27C    basis set group =>   1
Atom  28C    basis set group =>   1
Atom  29O    basis set group =>   3
Atom  30O    basis set group =>   3
Atom  31C    basis set group =>   1
Atom  32C    basis set group =>   1
Atom  33N    basis set group =>   2
Atom  34C    basis set group =>   1
Atom  35C    basis set group =>   1
Atom  36C    basis set group =>   1
Atom  37C    basis set group =>   1
Atom  38C    basis set group =>   1
Atom  39C    basis set group =>   1
Atom  40C    basis set group =>   1
Atom  41H    basis set group =>   6
Atom  42H    basis set group =>   6
Atom  43H    basis set group =>   6
Atom  44H    basis set group =>   6
Atom  45H    basis set group =>   6
Atom  46H    basis set group =>   6
Atom  47H    basis set group =>   6
Atom  48H    basis set group =>   6
Atom  49H    basis set group =>   6
Atom  50H    basis set group =>   6
Atom  51H    basis set group =>   6
Atom  52H    basis set group =>   6
Atom  53H    basis set group =>   6
Atom  54H    basis set group =>   6
Atom  55H    basis set group =>   6
Atom  56H    basis set group =>   6
Atom  57H    basis set group =>   6
Atom  58H    basis set group =>   6
Atom  59H    basis set group =>   6
Atom  60H    basis set group =>   6
---------------------------------
AUXILIARY/J BASIS SET INFORMATION
---------------------------------
There are 6 groups of distinct atoms

 Group   1 Type C   : 12s5p4d2f1g contracted to 6s4p3d1f1g pattern {711111/2111/211/2/1}
 Group   2 Type N   : 12s5p4d2f1g contracted to 6s4p3d1f1g pattern {711111/2111/211/2/1}
 Group   3 Type O   : 12s5p4d2f1g contracted to 6s4p3d1f1g pattern {711111/2111/211/2/1}
 Group   4 Type F   : 12s5p4d2f1g contracted to 6s4p3d1f1g pattern {711111/2111/211/2/1}
 Group   5 Type S   : 14s5p5d2f1g contracted to 8s4p3d1f1g pattern {71111111/2111/311/2/1}
 Group   6 Type H   : 5s2p1d contracted to 3s1p1d pattern {311/2/1}

Atom   0C    basis set group =>   1
Atom   1C    basis set group =>   1
Atom   2C    basis set group =>   1
Atom   3N    basis set group =>   2
Atom   4C    basis set group =>   1
Atom   5C    basis set group =>   1
Atom   6C    basis set group =>   1
Atom   7C    basis set group =>   1
Atom   8C    basis set group =>   1
Atom   9C    basis set group =>   1
Atom  10O    basis set group =>   3
Atom  11C    basis set group =>   1
Atom  12F    basis set group =>   4
Atom  13F    basis set group =>   4
Atom  14F    basis set group =>   4
Atom  15C    basis set group =>   1
Atom  16F    basis set group =>   4
Atom  17F    basis set group =>   4
Atom  18F    basis set group =>   4
Atom  19C    basis set group =>   1
Atom  20C    basis set group =>   1
Atom  21S    basis set group =>   5
Atom  22O    basis set group =>   3
Atom  23O    basis set group =>   3
Atom  24C    basis set group =>   1
Atom  25C    basis set group =>   1
Atom  26C    basis set group =>   1
Atom  27C    basis set group =>   1
Atom  28C    basis set group =>   1
Atom  29O    basis set group =>   3
Atom  30O    basis set group =>   3
Atom  31C    basis set group =>   1
Atom  32C    basis set group =>   1
Atom  33N    basis set group =>   2
Atom  34C    basis set group =>   1
Atom  35C    basis set group =>   1
Atom  36C    basis set group =>   1
Atom  37C    basis set group =>   1
Atom  38C    basis set group =>   1
Atom  39C    basis set group =>   1
Atom  40C    basis set group =>   1
Atom  41H    basis set group =>   6
Atom  42H    basis set group =>   6
Atom  43H    basis set group =>   6
Atom  44H    basis set group =>   6
Atom  45H    basis set group =>   6
Atom  46H    basis set group =>   6
Atom  47H    basis set group =>   6
Atom  48H    basis set group =>   6
Atom  49H    basis set group =>   6
Atom  50H    basis set group =>   6
Atom  51H    basis set group =>   6
Atom  52H    basis set group =>   6
Atom  53H    basis set group =>   6
Atom  54H    basis set group =>   6
Atom  55H    basis set group =>   6
Atom  56H    basis set group =>   6
Atom  57H    basis set group =>   6
Atom  58H    basis set group =>   6
Atom  59H    basis set group =>   6
Atom  60H    basis set group =>   6
------------------------------------------------------------------------------
                             ORCA STARTUP CALCULATIONS
                           -- RI-GTO INTEGRALS CHOSEN --
------------------------------------------------------------------------------
------------------------------------------------------------------------------
                   ___                                                        
                  /   \      - P O W E R E D   B Y -                         
                 /     \                                                     
                 |  |  |   _    _      __       _____    __    __             
                 |  |  |  | |  | |    /  \     |  _  \  |  |  /  |          
                  \  \/   | |  | |   /    \    | | | |  |  | /  /          
                 / \  \   | |__| |  /  /\  \   | |_| |  |  |/  /          
                |  |  |   |  __  | /  /__\  \  |    /   |      \           
                |  |  |   | |  | | |   __   |  |    \   |  |\   \          
                \     /   | |  | | |  |  |  |  | |\  \  |  | \   \       
                 \___/    |_|  |_| |__|  |__|  |_| \__\ |__|  \__/        
                                                                              
                      - O R C A' S   B I G   F R I E N D -                    
                                      &                                       
                       - I N T E G R A L  F E E D E R -                       
                                                                              
 v1 FN, 2020, v2 2021, v3 2022-2024                                           
------------------------------------------------------------------------------


----------------------
SHARK INTEGRAL PACKAGE
----------------------

Number of atoms                             ...     61
Number of basis functions                   ...    618
Number of shells                            ...    288
Maximum angular momentum                    ...      2
Integral batch strategy                     ... SHARK/LIBINT Hybrid
RI-J (if used) integral strategy            ... SPLIT-RIJ (Revised 2003 algorithm where possible)
Printlevel                                  ...      1
Contraction scheme used                     ... SEGMENTED contraction
Prescreening option                         ... SCHWARTZ
   Thresh                                   ... 1.000e-10
   Tcut                                     ... 1.000e-11
   Tpresel                                  ... 1.000e-11 
Coulomb Range Separation                    ... NOT USED
Exchange Range Separation                   ... NOT USED
Multipole approximations                    ... NOT USED
Finite Nucleus Model                        ... NOT USED
CABS basis                                  ... NOT available
Auxiliary Coulomb fitting basis             ... AVAILABLE
   # of basis functions in Aux-J            ...   2231
   # of shells in Aux-J                     ...    717
   Maximum angular momentum in Aux-J        ...      4
Auxiliary J/K fitting basis                 ... NOT available
Auxiliary Correlation fitting basis         ... NOT available
Auxiliary 'external' fitting basis          ... NOT available

Checking pre-screening integrals            ... done (  0.0 sec) Dimension = 288
Check shell pair data                       ... done (  0.0 sec)
Shell pair information
Shell pair cut-off parameter TPreSel        ...   1.0e-11
Total number of shell pairs                 ...     41616
Shell pairs after pre-screening             ...     20827
Total number of primitive shell pairs       ...    251229
Primitive shell pairs kept                  ...     62804
          la=0 lb=0:   6342 shell pairs
          la=1 lb=0:   7437 shell pairs
          la=1 lb=1:   2179 shell pairs
          la=2 lb=0:   2816 shell pairs
          la=2 lb=1:   1734 shell pairs
          la=2 lb=2:    319 shell pairs

Calculating one electron integrals          ... done (  0.3 sec)
Calculating RI/J V-Matrix + Cholesky decomp.... done (  0.7 sec)
Calculating Nuclear repulsion               ... done (  0.0 sec) ENN=   5124.977634499156 Eh

Diagonalization of the overlap matrix:
Smallest eigenvalue                        ... 3.547e-04
Time for diagonalization                   ...    0.079 sec
Threshold for overlap eigenvalues          ... 1.000e-07
Number of eigenvalues below threshold      ... 0
Time for construction of square roots      ...    0.078 sec
Total time needed                          ...    0.168 sec

-------------------
DFT GRID GENERATION
-------------------

General Integration Accuracy     IntAcc      ... 4.388
Radial Grid Type                 RadialGrid  ... OptM3 with GC (2021)
Angular Grid (max. ang.)         AngularGrid ... 4 (Lebedev-302)
Angular grid pruning method      GridPruning ... 4 (adaptive)
Weight generation scheme         WeightScheme... mBecke (2022)
Basis function cutoff            BFCut       ... 1.0000e-10
Integration weight cutoff        WCut        ... 1.0000e-14
Partially contracted basis set               ... off
Rotationally invariant grid construction     ... off
Angular grids for H and He will be reduced by one unit

Total number of grid points                  ...   309679
Total number of batches                      ...     4866
Average number of points per batch           ...       63
Average number of grid points per atom       ...     5077

--------------------
COSX GRID GENERATION
--------------------

GRIDX 1
-------
General Integration Accuracy     IntAcc      ... 3.816
Radial Grid Type                 RadialGrid  ... OptM3 with GC (2021)
Angular Grid (max. ang.)         AngularGrid ... 1 (Lebedev-50)
Angular grid pruning method      GridPruning ... 4 (adaptive)
Weight generation scheme         WeightScheme... mBecke (2022)
Basis function cutoff            BFCut       ... 1.0000e-10
Integration weight cutoff        WCut        ... 1.0000e-14
Partially contracted basis set               ... on
Rotationally invariant grid construction     ... off
Angular grids for H and He will be reduced by one unit

Total number of grid points                  ...    40172
Total number of batches                      ...      344
Average number of points per batch           ...      116
Average number of grid points per atom       ...      659
UseSFitting                                  ... on

GRIDX 2
-------
General Integration Accuracy     IntAcc      ... 4.020
Radial Grid Type                 RadialGrid  ... OptM3 with GC (2021)
Angular Grid (max. ang.)         AngularGrid ... 2 (Lebedev-110)
Angular grid pruning method      GridPruning ... 4 (adaptive)
Weight generation scheme         WeightScheme... mBecke (2022)
Basis function cutoff            BFCut       ... 1.0000e-10
Integration weight cutoff        WCut        ... 1.0000e-14
Partially contracted basis set               ... on
Rotationally invariant grid construction     ... off
Angular grids for H and He will be reduced by one unit

Total number of grid points                  ...    86362
Total number of batches                      ...      707
Average number of points per batch           ...      122
Average number of grid points per atom       ...     1416
UseSFitting                                  ... on

GRIDX 3
-------
General Integration Accuracy     IntAcc      ... 4.338
Radial Grid Type                 RadialGrid  ... OptM3 with GC (2021)
Angular Grid (max. ang.)         AngularGrid ... 3 (Lebedev-194)
Angular grid pruning method      GridPruning ... 4 (adaptive)
Weight generation scheme         WeightScheme... mBecke (2022)
Basis function cutoff            BFCut       ... 1.0000e-10
Integration weight cutoff        WCut        ... 1.0000e-14
Partially contracted basis set               ... on
Rotationally invariant grid construction     ... off
Angular grids for H and He will be reduced by one unit

Total number of grid points                  ...   189453
Total number of batches                      ...     1510
Average number of points per batch           ...      125
Average number of grid points per atom       ...     3106
UseSFitting                                  ... on
Initializing property integral containers    ... done (  0.0 sec)

SHARK setup successfully completed in  14.7 seconds

Maximum memory used throughout the entire STARTUP-calculation: 136.8 MB
-------------------------------------------------------------------------------
                                 ORCA GUESS
                   Start orbitals & Density for SCF / CASSCF
-------------------------------------------------------------------------------

------------
SCF SETTINGS
------------
Hamiltonian:
 Density Functional     Method          .... DFT(GTOs)
 Exchange Functional    Exchange        .... B88
   X-Alpha parameter    XAlpha          ....  0.666667
   Becke's b parameter  XBeta           ....  0.004200
 Correlation Functional Correlation     .... LYP
 LDA part of GGA corr.  LDAOpt          .... VWN-5
 Gradients option       PostSCFGGA      .... off
 Hybrid DFT is turned on
   Fraction HF Exchange ScalHFX         ....  0.200000
   Scaling of DF-GGA-X  ScalDFX         ....  0.720000
   Scaling of DF-GGA-C  ScalDFC         ....  0.810000
   Scaling of DF-LDA-C  ScalLDAC        ....  1.000000
   Perturbative correction              ....  0.000000
   NL short-range parameter             ....  4.800000
 RI-approximation to the Coulomb term is turned on
   Number of AuxJ basis functions       .... 2231
   RIJ-COSX (HFX calculated with COS-X)).... on


General Settings:
 Integral files         IntName         .... /home/nmrbox/aojoawo/Documents/ERDOS/inputs/CHEMBL3682605
 Hartree-Fock type      HFTyp           .... RHF
 Total Charge           Charge          ....    0
 Multiplicity           Mult            ....    1
 Number of Electrons    NEL             ....  306
 Basis Dimension        Dim             ....  618
 Nuclear Repulsion      ENuc            ....   5124.9776344992 Eh

Convergence Acceleration:
 AO-DIIS                CNVDIIS         .... on
   Start iteration      DIISMaxIt       ....    12
   Startup error        DIISStart       ....  0.200000
   # of expansion vecs  DIISMaxEq       ....     5
   Bias factor          DIISBfac        ....   1.050
   Max. coefficient     DIISMaxC        ....  10.000
 MO-DIIS                CNVKDIIS        .... off
 Trust-Rad. Augm. Hess. CNVTRAH         .... auto
   Auto Start mean grad. ratio tolernc. ....  1.125000
   Auto Start start iteration           ....    50
   Auto Start num. interpolation iter.  ....    10
   Max. Number of Micro iterations      ....    24
   Max. Number of Macro iterations      .... Maxiter - #DIIS iter
   Number of Davidson start vectors     ....     2
   Converg. threshold    (grad. norm)   ....   5.000e-05
   Grad. Scal. Fac. for Micro threshold ....   0.100
   Minimum threshold for Micro iter.    ....   1.000e-02
   NR start threshold (gradient norm)   ....   1.000e-04
   Initial trust radius                 ....   0.400
   Minimum AH scaling param. (alpha)    ....   1.000
   Maximum AH scaling param. (alpha)    .... 1000.000
   Quad. conv. algorithm                .... NR
   White noise on init. David. guess    .... on
   Maximum white noise                  ....   0.010
   Pseudo random numbers                .... off
   Inactive MOs                         .... canonical
   Orbital update algorithm             .... Taylor
   Preconditioner                       .... Diag
   Full preconditioner red. dimension   ....   250
 SOSCF                  CNVSOSCF        .... on
   Start iteration      SOSCFMaxIt      ....   150
   Startup grad/error   SOSCFStart      ....  0.003300
   Hessian update       SOSCFHessUp     .... L-BFGS
 Level Shifting         CNVShift        .... on
   Level shift para.    LevelShift      ....    0.2500
   Turn off err/grad.   ShiftErr        ....    0.0010
 Zerner damping         CNVZerner       .... off
 Static damping         CNVDamp         .... on
   Fraction old density DampFac         ....    0.7000
   Max. Damping (<1)    DampMax         ....    0.9800
   Min. Damping (>=0)   DampMin         ....    0.0000
   Turn off err/grad.   DampErr         ....    0.1000

SCF Procedure:
 Maximum # iterations   MaxIter         ....   125
 SCF integral mode      SCFMode         .... Direct
   Integral package                     .... SHARK and LIBINT hybrid scheme
 Reset frequency        DirectResetFreq ....    20
 Integral Threshold     Thresh          ....  1.000e-10 Eh
 Primitive CutOff       TCut            ....  1.000e-11 Eh

Convergence Tolerance:
 Convergence Check Mode ConvCheckMode   .... Total+1el-Energy
 Convergence forced     ConvForced      .... 0
 Energy Change          TolE            ....  1.000e-06 Eh
 1-El. energy change                    ....  1.000e-03 Eh
 Orbital Gradient       TolG            ....  5.000e-05
 Orbital Rotation angle TolX            ....  5.000e-05
 DIIS Error             TolErr          ....  1.000e-06

------------------------------
INITIAL GUESS: MODEL POTENTIAL
------------------------------
Loading Hartree-Fock densities                     ... done
Calculating cut-offs                               ... done
Initializing the effective Hamiltonian             ... done
Setting up the integral package (SHARK)            ... done
Starting the Coulomb interaction                   ... done (   4.0 sec)
Making the grid                                    ... done (   1.7 sec)
Mapping shells                                     ... done
Starting the XC term evaluation                    ... done (   1.3 sec)
  promolecular density results
     # of electrons  =    305.996790833
     EX              =   -284.222128468
     EC              =    -10.888240881
     EX+EC           =   -295.110369349
Transforming the Hamiltonian                       ... done (   0.0 sec)
Diagonalizing the Hamiltonian                      ... done (   0.1 sec)
Back transforming the eigenvectors                 ... done (   0.0 sec)
Now organizing SCF variables                       ... done
                      ------------------
                      INITIAL GUESS DONE (   7.3 sec)
                      ------------------
             **** ENERGY FILE WAS UPDATED (/home/nmrbox/aojoawo/Documents/ERDOS/inputs/CHEMBL3682605.en.tmp) ****
Finished Guess after   7.8 sec
Maximum memory used throughout the entire GUESS-calculation: 76.8 MB

-------------------------------------------------------------------------------------------
                                      ORCA LEAN-SCF
                              memory conserving SCF solver
-------------------------------------------------------------------------------------------

----------------------------------------D-I-I-S--------------------------------------------
Iteration    Energy (Eh)           Delta-E    RMSDP     MaxDP     DIISErr   Damp  Time(sec)
-------------------------------------------------------------------------------------------
               ***  Starting incremental Fock matrix formation  ***
    1    -2521.3830040303382702     0.00e+00  2.22e-03  1.88e-01  2.93e-01  0.700  76.8
    2    -2521.9239828122717881    -5.41e-01  1.32e-03  7.77e-02  1.02e-01  0.700  33.9
                               ***Turning on AO-DIIS***
    3    -2522.1049373958658180    -1.81e-01  5.15e-04  1.84e-02  3.39e-02  0.700  32.2
    4    -2522.2264305576636616    -1.21e-01  8.98e-04  3.44e-02  1.56e-02  0.000  29.8
    5    -2522.5014868612479404    -2.75e-01  2.00e-04  8.07e-03  6.95e-03  0.000  32.3
                              *** Initializing SOSCF ***
---------------------------------------S-O-S-C-F--------------------------------------
Iteration    Energy (Eh)           Delta-E    RMSDP     MaxDP     MaxGrad    Time(sec)
--------------------------------------------------------------------------------------
    6    -2522.5031002367795736    -1.61e-03  6.70e-05  3.21e-03  2.66e-03    27.3
               *** Restarting incremental Fock matrix formation ***
    7    -2522.5030638858561360     3.64e-05  6.41e-05  3.89e-03  4.48e-04    80.4
    8    -2522.5029734908866885     9.04e-05  4.31e-05  2.71e-03  1.03e-03    44.9
    9    -2522.5030954872045186    -1.22e-04  1.30e-05  9.57e-04  1.45e-04    42.1
   10    -2522.5030918250458853     3.66e-06  8.28e-06  5.64e-04  2.84e-04    33.6
   11    -2522.5030970753077781    -5.25e-06  2.05e-06  1.05e-04  2.31e-05    30.7
   12    -2522.5030971633023000    -8.80e-08  1.33e-06  6.90e-05  4.08e-05    23.5
                 **** Energy Check signals convergence ****

               *****************************************************
               *                     SUCCESS                       *
               *           SCF CONVERGED AFTER  12 CYCLES          *
               *****************************************************

Recomputing exchange energy using gridx3       ... done (  143.763 sec)
Old exchange energy                            :    -57.356919242 Eh
New exchange energy                            :    -57.356954390 Eh
Exchange energy change after final integration :     -0.000035147 Eh
Total energy after final integration           :  -2522.503132311 Eh
             **** ENERGY FILE WAS UPDATED (/home/nmrbox/aojoawo/Documents/ERDOS/inputs/CHEMBL3682605.en.tmp) ****

----------------
TOTAL SCF ENERGY
----------------

Total Energy       :      -2522.50313231074051 Eh          -68640.79986 eV

Components:
Nuclear Repulsion  :       5124.97763449915601 Eh          139457.73133 eV
Electronic Energy  :      -7647.48073166245831 Eh         -208098.53023 eV
One Electron Energy:     -13670.38354007452654 Eh         -371990.04773 eV
Two Electron Energy:       6022.90280841206823 Eh          163891.51750 eV

Virial components:
Potential Energy   :      -5030.93016969668679 Eh         -136898.56971 eV
Kinetic Energy     :       2508.42703738594628 Eh           68257.76985 eV
Virial Ratio       :          2.00561152256574

DFT components:
N(Alpha)           :      153.000048659134 electrons
N(Beta)            :      153.000048659134 electrons
N(Total)           :      306.000097318268 electrons
E(X)               :     -228.087566286604 Eh       
E(C)               :      -12.774786027720 Eh       
E(XC)              :     -240.862352314324 Eh       

---------------
SCF CONVERGENCE
---------------

  Last Energy change         ...    8.7995e-08  Tolerance :   1.0000e-06
  Last MAX-Density change    ...    6.8958e-05  Tolerance :   1.0000e-05
  Last RMS-Density change    ...    1.3270e-06  Tolerance :   1.0000e-06
  Last DIIS Error            ...    2.6589e-03  Tolerance :   1.0000e-06
  Last Orbital Gradient      ...    4.0842e-05  Tolerance :   5.0000e-05
  Last Orbital Rotation      ...    8.3177e-05  Tolerance :   5.0000e-05


----------------
ORBITAL ENERGIES
----------------

  NO   OCC          E(Eh)            E(eV) 
   0   2.0000     -89.098826     -2424.5023 
   1   2.0000     -24.741064      -673.2386 
   2   2.0000     -24.738944      -673.1809 
   3   2.0000     -24.732612      -673.0086 
   4   2.0000     -24.730062      -672.9392 
   5   2.0000     -24.728731      -672.9030 
   6   2.0000     -24.726466      -672.8413 
   7   2.0000     -19.196434      -522.3615 
   8   2.0000     -19.185015      -522.0508 
   9   2.0000     -19.138000      -520.7714 
  10   2.0000     -19.129427      -520.5382 
  11   2.0000     -19.128129      -520.5028 
  12   2.0000     -14.372886      -391.1061 
  13   2.0000     -14.333902      -390.0453 
  14   2.0000     -10.453625      -284.4576 
  15   2.0000     -10.450166      -284.3635 
  16   2.0000     -10.335432      -281.2414 
  17   2.0000     -10.305361      -280.4231 
  18   2.0000     -10.257940      -279.1327 
  19   2.0000     -10.241940      -278.6974 
  20   2.0000     -10.236796      -278.5574 
  21   2.0000     -10.231622      -278.4166 
  22   2.0000     -10.226025      -278.2643 
  23   2.0000     -10.219959      -278.0992 
  24   2.0000     -10.219621      -278.0900 
  25   2.0000     -10.217143      -278.0226 
  26   2.0000     -10.216890      -278.0157 
  27   2.0000     -10.216792      -278.0130 
  28   2.0000     -10.208929      -277.7991 
  29   2.0000     -10.205290      -277.7001 
  30   2.0000     -10.205157      -277.6965 
  31   2.0000     -10.200795      -277.5777 
  32   2.0000     -10.200521      -277.5703 
  33   2.0000     -10.199480      -277.5420 
  34   2.0000     -10.197840      -277.4973 
  35   2.0000     -10.197114      -277.4776 
  36   2.0000     -10.196207      -277.4529 
  37   2.0000     -10.195943      -277.4457 
  38   2.0000     -10.195146      -277.4240 
  39   2.0000     -10.194950      -277.4187 
  40   2.0000     -10.172523      -276.8084 
  41   2.0000      -8.134664      -221.3555 
  42   2.0000      -6.099655      -165.9800 
  43   2.0000      -6.097707      -165.9271 
  44   2.0000      -6.097307      -165.9162 
  45   2.0000      -1.298250       -35.3272 
  46   2.0000      -1.288584       -35.0642 
  47   2.0000      -1.225015       -33.3343 
  48   2.0000      -1.218296       -33.1515 
  49   2.0000      -1.214097       -33.0373 
  50   2.0000      -1.211288       -32.9608 
  51   2.0000      -1.085865       -29.5479 
  52   2.0000      -1.081440       -29.4275 
  53   2.0000      -1.068115       -29.0649 
  54   2.0000      -0.995562       -27.0906 
  55   2.0000      -0.966011       -26.2865 
  56   2.0000      -0.963278       -26.2121 
  57   2.0000      -0.916200       -24.9311 
  58   2.0000      -0.890203       -24.2237 
  59   2.0000      -0.871430       -23.7128 
  60   2.0000      -0.863528       -23.4978 
  61   2.0000      -0.820685       -22.3320 
  62   2.0000      -0.809320       -22.0227 
  63   2.0000      -0.803302       -21.8590 
  64   2.0000      -0.778076       -21.1725 
  65   2.0000      -0.776275       -21.1235 
  66   2.0000      -0.769100       -20.9283 
  67   2.0000      -0.758291       -20.6341 
  68   2.0000      -0.741809       -20.1856 
  69   2.0000      -0.716748       -19.5037 
  70   2.0000      -0.714950       -19.4548 
  71   2.0000      -0.702183       -19.1074 
  72   2.0000      -0.687014       -18.6946 
  73   2.0000      -0.655726       -17.8432 
  74   2.0000      -0.653620       -17.7859 
  75   2.0000      -0.643601       -17.5133 
  76   2.0000      -0.636707       -17.3257 
  77   2.0000      -0.625187       -17.0122 
  78   2.0000      -0.620135       -16.8747 
  79   2.0000      -0.609433       -16.5835 
  80   2.0000      -0.598861       -16.2958 
  81   2.0000      -0.595038       -16.1918 
  82   2.0000      -0.593632       -16.1536 
  83   2.0000      -0.591528       -16.0963 
  84   2.0000      -0.583325       -15.8731 
  85   2.0000      -0.577389       -15.7116 
  86   2.0000      -0.565674       -15.3928 
  87   2.0000      -0.561206       -15.2712 
  88   2.0000      -0.543153       -14.7799 
  89   2.0000      -0.540542       -14.7089 
  90   2.0000      -0.537603       -14.6289 
  91   2.0000      -0.529677       -14.4132 
  92   2.0000      -0.515439       -14.0258 
  93   2.0000      -0.501505       -13.6466 
  94   2.0000      -0.494306       -13.4508 
  95   2.0000      -0.490416       -13.3449 
  96   2.0000      -0.481338       -13.0979 
  97   2.0000      -0.476524       -12.9669 
  98   2.0000      -0.471898       -12.8410 
  99   2.0000      -0.471442       -12.8286 
 100   2.0000      -0.469886       -12.7862 
 101   2.0000      -0.463086       -12.6012 
 102   2.0000      -0.461330       -12.5534 
 103   2.0000      -0.457589       -12.4516 
 104   2.0000      -0.455036       -12.3822 
 105   2.0000      -0.453129       -12.3303 
 106   2.0000      -0.448632       -12.2079 
 107   2.0000      -0.447924       -12.1886 
 108   2.0000      -0.446350       -12.1458 
 109   2.0000      -0.442579       -12.0432 
 110   2.0000      -0.439738       -11.9659 
 111   2.0000      -0.438046       -11.9198 
 112   2.0000      -0.431847       -11.7512 
 113   2.0000      -0.430104       -11.7037 
 114   2.0000      -0.427072       -11.6212 
 115   2.0000      -0.423226       -11.5166 
 116   2.0000      -0.422617       -11.5000 
 117   2.0000      -0.420710       -11.4481 
 118   2.0000      -0.419585       -11.4175 
 119   2.0000      -0.415388       -11.3033 
 120   2.0000      -0.413870       -11.2620 
 121   2.0000      -0.411349       -11.1934 
 122   2.0000      -0.405070       -11.0225 
 123   2.0000      -0.402908       -10.9637 
 124   2.0000      -0.400601       -10.9009 
 125   2.0000      -0.392970       -10.6932 
 126   2.0000      -0.391186       -10.6447 
 127   2.0000      -0.385335       -10.4855 
 128   2.0000      -0.381871       -10.3912 
 129   2.0000      -0.376683       -10.2501 
 130   2.0000      -0.368810       -10.0358 
 131   2.0000      -0.367926       -10.0118 
 132   2.0000      -0.365171        -9.9368 
 133   2.0000      -0.360431        -9.8078 
 134   2.0000      -0.354732        -9.6528 
 135   2.0000      -0.351143        -9.5551 
 136   2.0000      -0.349851        -9.5199 
 137   2.0000      -0.327753        -8.9186 
 138   2.0000      -0.321592        -8.7510 
 139   2.0000      -0.314883        -8.5684 
 140   2.0000      -0.308646        -8.3987 
 141   2.0000      -0.302376        -8.2281 
 142   2.0000      -0.288645        -7.8544 
 143   2.0000      -0.284340        -7.7373 
 144   2.0000      -0.278954        -7.5907 
 145   2.0000      -0.278306        -7.5731 
 146   2.0000      -0.274676        -7.4743 
 147   2.0000      -0.267680        -7.2840 
 148   2.0000      -0.263995        -7.1837 
 149   2.0000      -0.262973        -7.1558 
 150   2.0000      -0.255397        -6.9497 
 151   2.0000      -0.250301        -6.8110 
 152   2.0000      -0.222390        -6.0515 
 153   0.0000      -0.083466        -2.2712 
 154   0.0000      -0.060789        -1.6541 
 155   0.0000      -0.034631        -0.9423 
 156   0.0000      -0.031114        -0.8467 
 157   0.0000      -0.029975        -0.8156 
 158   0.0000      -0.015203        -0.4137 
 159   0.0000       0.012790         0.3480 
 160   0.0000       0.022054         0.6001 
 161   0.0000       0.036409         0.9907 
 162   0.0000       0.039112         1.0643 
 163   0.0000       0.044018         1.1978 
*Only the first 10 virtual orbitals were printed.

                    ********************************
                    * MULLIKEN POPULATION ANALYSIS *
                    ********************************

-----------------------
MULLIKEN ATOMIC CHARGES
-----------------------
   0 C :   -0.544530
   1 C :    0.133810
   2 C :    0.311879
   3 N :   -0.612951
   4 C :   -0.230781
   5 C :    0.159988
   6 C :   -0.169478
   7 C :   -0.168676
   8 C :    0.056169
   9 C :    0.038259
  10 O :   -0.633644
  11 C :    0.954824
  12 F :   -0.292001
  13 F :   -0.295492
  14 F :   -0.292293
  15 C :    0.916478
  16 F :   -0.288297
  17 F :   -0.300549
  18 F :   -0.290063
  19 C :   -0.164189
  20 C :   -0.172901
  21 S :    1.222469
  22 O :   -0.545266
  23 O :   -0.555026
  24 C :   -0.127572
  25 C :   -0.152779
  26 C :   -0.139456
  27 C :    0.083990
  28 C :    0.527756
  29 O :   -0.443941
  30 O :   -0.623436
  31 C :   -0.148868
  32 C :   -0.136587
  33 N :   -0.408309
  34 C :   -0.060293
  35 C :    0.139556
  36 C :   -0.204060
  37 C :   -0.125122
  38 C :   -0.120233
  39 C :   -0.192878
  40 C :    0.117906
  41 H :    0.176399
  42 H :    0.192976
  43 H :    0.159751
  44 H :    0.173703
  45 H :    0.171584
  46 H :    0.161935
  47 H :    0.154453
  48 H :    0.416697
  49 H :    0.150976
  50 H :    0.147728
  51 H :    0.185754
  52 H :    0.179791
  53 H :    0.434130
  54 H :    0.173293
  55 H :    0.187706
  56 H :    0.149130
  57 H :    0.137284
  58 H :    0.136589
  59 H :    0.140095
  60 H :    0.146610
Sum of atomic charges:    0.0000000

--------------------------------
MULLIKEN REDUCED ORBITAL CHARGES
--------------------------------
  0 C s       :     3.323016  s :     3.323016
      pz      :     1.007302  p :     3.187740
      px      :     1.055650
      py      :     1.124788
      dz2     :     0.008427  d :     0.033774
      dxz     :     0.005715
      dyz     :     0.007203
      dx2y2   :     0.005549
      dxy     :     0.006879

  1 C s       :     3.178627  s :     3.178627
      pz      :     0.857414  p :     2.647541
      px      :     0.909853
      py      :     0.880274
      dz2     :     0.009223  d :     0.040021
      dxz     :     0.005825
      dyz     :     0.012998
      dx2y2   :     0.005583
      dxy     :     0.006392

  2 C s       :     3.045666  s :     3.045666
      pz      :     0.744290  p :     2.569379
      px      :     1.008561
      py      :     0.816527
      dz2     :     0.020458  d :     0.073077
      dxz     :     0.009743
      dyz     :     0.025910
      dx2y2   :     0.009071
      dxy     :     0.007895

  3 N s       :     3.603576  s :     3.603576
      pz      :     1.482811  p :     3.975618
      px      :     1.249004
      py      :     1.243803
      dz2     :     0.004354  d :     0.033757
      dxz     :     0.006846
      dyz     :     0.006612
      dx2y2   :     0.007950
      dxy     :     0.007995

  4 C s       :     3.245338  s :     3.245338
      pz      :     1.100485  p :     2.930144
      px      :     0.899439
      py      :     0.930220
      dz2     :     0.010932  d :     0.055299
      dxz     :     0.005568
      dyz     :     0.013039
      dx2y2   :     0.011807
      dxy     :     0.013952

  5 C s       :     3.121636  s :     3.121636
      pz      :     0.873539  p :     2.677960
      px      :     0.867099
      py      :     0.937322
      dz2     :     0.010587  d :     0.040415
      dxz     :     0.011722
      dyz     :     0.007595
      dx2y2   :     0.005202
      dxy     :     0.005308

  6 C s       :     3.206192  s :     3.206192
      pz      :     0.982518  p :     2.927301
      px      :     0.963340
      py      :     0.981442
      dz2     :     0.008793  d :     0.035986
      dxz     :     0.011741
      dyz     :     0.005977
      dx2y2   :     0.004411
      dxy     :     0.005063

  7 C s       :     3.215145  s :     3.215145
      pz      :     0.989577  p :     2.917703
      px      :     0.951887
      py      :     0.976239
      dz2     :     0.010249  d :     0.035828
      dxz     :     0.010509
      dyz     :     0.004270
      dx2y2   :     0.005596
      dxy     :     0.005204

  8 C s       :     3.156807  s :     3.156807
      pz      :     0.889931  p :     2.749373
      px      :     0.886127
      py      :     0.973314
      dz2     :     0.010441  d :     0.037651
      dxz     :     0.010319
      dyz     :     0.006982
      dx2y2   :     0.004563
      dxy     :     0.005346

  9 C s       :     3.206372  s :     3.206372
      pz      :     0.771455  p :     2.681823
      px      :     0.922172
      py      :     0.988195
      dz2     :     0.019173  d :     0.073546
      dxz     :     0.021370
      dyz     :     0.009509
      dx2y2   :     0.014871
      dxy     :     0.008623

 10 O s       :     3.913426  s :     3.913426
      pz      :     1.472320  p :     4.692604
      px      :     1.818793
      py      :     1.401491
      dz2     :     0.009644  d :     0.027614
      dxz     :     0.005169
      dyz     :     0.003157
      dx2y2   :     0.008020
      dxy     :     0.001624

 11 C s       :     2.825937  s :     2.825937
      pz      :     0.598646  p :     2.083798
      px      :     0.620043
      py      :     0.865109
      dz2     :     0.030726  d :     0.135442
      dxz     :     0.034713
      dyz     :     0.019352
      dx2y2   :     0.026000
      dxy     :     0.024652

 12 F s       :     3.981941  s :     3.981941
      pz      :     1.891311  p :     5.293168
      px      :     1.593401
      py      :     1.808456
      dz2     :     0.002316  d :     0.016893
      dxz     :     0.003054
      dyz     :     0.001241
      dx2y2   :     0.004615
      dxy     :     0.005667

 13 F s       :     3.983137  s :     3.983137
      pz      :     1.661324  p :     5.295644
      px      :     1.742224
      py      :     1.892097
      dz2     :     0.003943  d :     0.016711
      dxz     :     0.006069
      dyz     :     0.002716
      dx2y2   :     0.001988
      dxy     :     0.001994

 14 F s       :     3.981316  s :     3.981316
      pz      :     1.604198  p :     5.294163
      px      :     1.828115
      py      :     1.861850
      dz2     :     0.005151  d :     0.016814
      dxz     :     0.004787
      dyz     :     0.003963
      dx2y2   :     0.001304
      dxy     :     0.001610

 15 C s       :     2.847743  s :     2.847743
      pz      :     0.741784  p :     2.101740
      px      :     0.738963
      py      :     0.620994
      dz2     :     0.025341  d :     0.134039
      dxz     :     0.026652
      dyz     :     0.026549
      dx2y2   :     0.033460
      dxy     :     0.022037

 16 F s       :     3.981987  s :     3.981987
      pz      :     1.869387  p :     5.289403
      px      :     1.547328
      py      :     1.872688
      dz2     :     0.002334  d :     0.016907
      dxz     :     0.004620
      dyz     :     0.000856
      dx2y2   :     0.005153
      dxy     :     0.003943

 17 F s       :     3.983168  s :     3.983168
      pz      :     1.887947  p :     5.300769
      px      :     1.911829
      py      :     1.500993
      dz2     :     0.002320  d :     0.016612
      dxz     :     0.000387
      dyz     :     0.004086
      dx2y2   :     0.006303
      dxy     :     0.003516

 18 F s       :     3.983470  s :     3.983470
      pz      :     1.594566  p :     5.289803
      px      :     1.891751
      py      :     1.803486
      dz2     :     0.005346  d :     0.016790
      dxz     :     0.003306
      dyz     :     0.005599
      dx2y2   :     0.001311
      dxy     :     0.001228

 19 C s       :     3.201174  s :     3.201174
      pz      :     0.977431  p :     2.927266
      px      :     0.967445
      py      :     0.982390
      dz2     :     0.008486  d :     0.035749
      dxz     :     0.011196
      dyz     :     0.006440
      dx2y2   :     0.004544
      dxy     :     0.005082

 20 C s       :     3.201924  s :     3.201924
      pz      :     0.988205  p :     2.934914
      px      :     0.963941
      py      :     0.982768
      dz2     :     0.010313  d :     0.036062
      dxz     :     0.010840
      dyz     :     0.004201
      dx2y2   :     0.005442
      dxy     :     0.005266

 21 S s       :     5.212365  s :     5.212365
      pz      :     3.002640  p :     9.029323
      px      :     3.006466
      py      :     3.020217
      dz2     :     0.105960  d :     0.535843
      dxz     :     0.124789
      dyz     :     0.103787
      dx2y2   :     0.094163
      dxy     :     0.107143

 22 O s       :     3.929706  s :     3.929706
      pz      :     1.684914  p :     4.588535
      px      :     1.518984
      py      :     1.384637
      dz2     :     0.003011  d :     0.027025
      dxz     :     0.002839
      dyz     :     0.005338
      dx2y2   :     0.007891
      dxy     :     0.007946

 23 O s       :     3.927003  s :     3.927003
      pz      :     1.244668  p :     4.601481
      px      :     1.654918
      py      :     1.701896
      dz2     :     0.009662  d :     0.026542
      dxz     :     0.007483
      dyz     :     0.006959
      dx2y2   :     0.001354
      dxy     :     0.001084

 24 C s       :     3.223238  s :     3.223238
      pz      :     0.993286  p :     2.865646
      px      :     0.971332
      py      :     0.901027
      dz2     :     0.008244  d :     0.038688
      dxz     :     0.005588
      dyz     :     0.009490
      dx2y2   :     0.005930
      dxy     :     0.009436

 25 C s       :     3.209584  s :     3.209584
      pz      :     1.005768  p :     2.907228
      px      :     0.987681
      py      :     0.913778
      dz2     :     0.006016  d :     0.035968
      dxz     :     0.006732
      dyz     :     0.008606
      dx2y2   :     0.007593
      dxy     :     0.007021

 26 C s       :     3.214462  s :     3.214462
      pz      :     0.965344  p :     2.889345
      px      :     0.944119
      py      :     0.979882
      dz2     :     0.006977  d :     0.035648
      dxz     :     0.005459
      dyz     :     0.009508
      dx2y2   :     0.008361
      dxy     :     0.005342

 27 C s       :     3.164905  s :     3.164905
      pz      :     0.908922  p :     2.712665
      px      :     0.950704
      py      :     0.853039
      dz2     :     0.007565  d :     0.038440
      dxz     :     0.005512
      dyz     :     0.010275
      dx2y2   :     0.006590
      dxy     :     0.008498

 28 C s       :     2.996361  s :     2.996361
      pz      :     0.717309  p :     2.365416
      px      :     0.792888
      py      :     0.855219
      dz2     :     0.027225  d :     0.110467
      dxz     :     0.016819
      dyz     :     0.025878
      dx2y2   :     0.018979
      dxy     :     0.021567

 29 O s       :     3.877456  s :     3.877456
      pz      :     1.587720  p :     4.540818
      px      :     1.550198
      py      :     1.402901
      dz2     :     0.003861  d :     0.025666
      dxz     :     0.001554
      dyz     :     0.007528
      dx2y2   :     0.006041
      dxy     :     0.006683

 30 O s       :     3.872232  s :     3.872232
      pz      :     1.504878  p :     4.730295
      px      :     1.596644
      py      :     1.628773
      dz2     :     0.004919  d :     0.020909
      dxz     :     0.003629
      dyz     :     0.004319
      dx2y2   :     0.002330
      dxy     :     0.005711

 31 C s       :     3.211584  s :     3.211584
      pz      :     0.984416  p :     2.901564
      px      :     0.964311
      py      :     0.952837
      dz2     :     0.006099  d :     0.035721
      dxz     :     0.006508
      dyz     :     0.008553
      dx2y2   :     0.007405
      dxy     :     0.007155

 32 C s       :     3.203429  s :     3.203429
      pz      :     0.938590  p :     2.897277
      px      :     0.932987
      py      :     1.025700
      dz2     :     0.007173  d :     0.035881
      dxz     :     0.005642
      dyz     :     0.009340
      dx2y2   :     0.008589
      dxy     :     0.005136

 33 N s       :     3.680007  s :     3.680007
      pz      :     1.053495  p :     3.693335
      px      :     1.152744
      py      :     1.487096
      dz2     :     0.008429  d :     0.034967
      dxz     :     0.007157
      dyz     :     0.008358
      dx2y2   :     0.005534
      dxy     :     0.005489

 34 C s       :     3.162307  s :     3.162307
      pz      :     0.938329  p :     2.844253
      px      :     0.961518
      py      :     0.944406
      dz2     :     0.017083  d :     0.053733
      dxz     :     0.004457
      dyz     :     0.014861
      dx2y2   :     0.008918
      dxy     :     0.008414

 35 C s       :     3.138416  s :     3.138416
      pz      :     0.863670  p :     2.680206
      px      :     0.956243
      py      :     0.860293
      dz2     :     0.010546  d :     0.041822
      dxz     :     0.006064
      dyz     :     0.012482
      dx2y2   :     0.006192
      dxy     :     0.006538

 36 C s       :     3.210722  s :     3.210722
      pz      :     0.991597  p :     2.957149
      px      :     0.987720
      py      :     0.977831
      dz2     :     0.010932  d :     0.036190
      dxz     :     0.003169
      dyz     :     0.010261
      dx2y2   :     0.005585
      dxy     :     0.006243

 37 C s       :     3.194289  s :     3.194289
      pz      :     0.944651  p :     2.894417
      px      :     0.976144
      py      :     0.973622
      dz2     :     0.008194  d :     0.036416
      dxz     :     0.004691
      dyz     :     0.013938
      dx2y2   :     0.005768
      dxy     :     0.003825

 38 C s       :     3.196791  s :     3.196791
      pz      :     0.931756  p :     2.886958
      px      :     0.968357
      py      :     0.986846
      dz2     :     0.009848  d :     0.036484
      dxz     :     0.005802
      dyz     :     0.011253
      dx2y2   :     0.005916
      dxy     :     0.003665

 39 C s       :     3.210109  s :     3.210109
      pz      :     0.980775  p :     2.947267
      px      :     0.990471
      py      :     0.976021
      dz2     :     0.010817  d :     0.035502
      dxz     :     0.003327
      dyz     :     0.009881
      dx2y2   :     0.005558
      dxy     :     0.005919

 40 C s       :     3.136639  s :     3.136639
      pz      :     0.880951  p :     2.704183
      px      :     0.963275
      py      :     0.859957
      dz2     :     0.010520  d :     0.041273
      dxz     :     0.005426
      dyz     :     0.012234
      dx2y2   :     0.006374
      dxy     :     0.006719

 41 H s       :     0.823601  s :     0.823601

 42 H s       :     0.807024  s :     0.807024

 43 H s       :     0.840249  s :     0.840249

 44 H s       :     0.826297  s :     0.826297

 45 H s       :     0.828416  s :     0.828416

 46 H s       :     0.838065  s :     0.838065

 47 H s       :     0.845547  s :     0.845547

 48 H s       :     0.583303  s :     0.583303

 49 H s       :     0.849024  s :     0.849024

 50 H s       :     0.852272  s :     0.852272

 51 H s       :     0.814246  s :     0.814246

 52 H s       :     0.820209  s :     0.820209

 53 H s       :     0.565870  s :     0.565870

 54 H s       :     0.826707  s :     0.826707

 55 H s       :     0.812294  s :     0.812294

 56 H s       :     0.850870  s :     0.850870

 57 H s       :     0.862716  s :     0.862716

 58 H s       :     0.863411  s :     0.863411

 59 H s       :     0.859905  s :     0.859905

 60 H s       :     0.853390  s :     0.853390



                     *******************************
                     * LOEWDIN POPULATION ANALYSIS *
                     *******************************

----------------------
LOEWDIN ATOMIC CHARGES
----------------------
   0 C :   -0.361464
   1 C :    0.010484
   2 C :    0.024080
   3 N :   -0.280119
   4 C :   -0.146250
   5 C :   -0.021605
   6 C :   -0.121187
   7 C :   -0.122599
   8 C :   -0.047722
   9 C :    0.001420
  10 O :   -0.347577
  11 C :    0.313171
  12 F :   -0.102518
  13 F :   -0.101125
  14 F :   -0.102786
  15 C :    0.300594
  16 F :   -0.101272
  17 F :   -0.108967
  18 F :   -0.104192
  19 C :   -0.125227
  20 C :   -0.125825
  21 S :    1.262857
  22 O :   -0.567720
  23 O :   -0.579497
  24 C :   -0.175998
  25 C :   -0.108624
  26 C :   -0.086801
  27 C :   -0.039395
  28 C :    0.179189
  29 O :   -0.260001
  30 O :   -0.334264
  31 C :   -0.098286
  32 C :   -0.096476
  33 N :   -0.142613
  34 C :   -0.065938
  35 C :   -0.027224
  36 C :   -0.113876
  37 C :   -0.123950
  38 C :   -0.116194
  39 C :   -0.116502
  40 C :   -0.005290
  41 H :    0.146352
  42 H :    0.149982
  43 H :    0.135867
  44 H :    0.144104
  45 H :    0.132512
  46 H :    0.146710
  47 H :    0.144445
  48 H :    0.331159
  49 H :    0.141268
  50 H :    0.140831
  51 H :    0.160659
  52 H :    0.160069
  53 H :    0.349819
  54 H :    0.155092
  55 H :    0.160920
  56 H :    0.135201
  57 H :    0.136183
  58 H :    0.135760
  59 H :    0.137665
  60 H :    0.142691

-------------------------------
LOEWDIN REDUCED ORBITAL CHARGES
-------------------------------
  0 C s       :     2.974898  s :     2.974898
      pz      :     1.055013  p :     3.321010
      px      :     1.115811
      py      :     1.150187
      dz2     :     0.017647  d :     0.065556
      dxz     :     0.011664
      dyz     :     0.014379
      dx2y2   :     0.009803
      dxy     :     0.012064

  1 C s       :     2.890394  s :     2.890394
      pz      :     1.032100  p :     3.001579
      px      :     0.926441
      py      :     1.043038
      dz2     :     0.023747  d :     0.097542
      dxz     :     0.011898
      dyz     :     0.033433
      dx2y2   :     0.014430
      dxy     :     0.014035

  2 C s       :     2.846425  s :     2.846425
      pz      :     0.973520  p :     2.953088
      px      :     1.007156
      py      :     0.972412
      dz2     :     0.050329  d :     0.176407
      dxz     :     0.020611
      dyz     :     0.066950
      dx2y2   :     0.021091
      dxy     :     0.017425

  3 N s       :     3.177762  s :     3.177762
      pz      :     1.476007  p :     4.016342
      px      :     1.281607
      py      :     1.258728
      dz2     :     0.010525  d :     0.086015
      dxz     :     0.018040
      dyz     :     0.016302
      dx2y2   :     0.020472
      dxy     :     0.020677

  4 C s       :     2.920866  s :     2.920866
      pz      :     1.120467  p :     3.107581
      px      :     0.977571
      py      :     1.009544
      dz2     :     0.022332  d :     0.117802
      dxz     :     0.011254
      dyz     :     0.026033
      dx2y2   :     0.026323
      dxy     :     0.031860

  5 C s       :     2.878404  s :     2.878404
      pz      :     1.071194  p :     3.041751
      px      :     1.004352
      py      :     0.966206
      dz2     :     0.029845  d :     0.101450
      dxz     :     0.030489
      dyz     :     0.017869
      dx2y2   :     0.011588
      dxy     :     0.011659

  6 C s       :     2.917813  s :     2.917813
      pz      :     1.070876  p :     3.118711
      px      :     1.049798
      py      :     0.998037
[...]

 33 N s       :     3.235410  s :     3.235410
      pz      :     1.177582  p :     3.827765
      px      :     1.143924
      py      :     1.506259
      dz2     :     0.023586  d :     0.079438
      dxz     :     0.017125
      dyz     :     0.021381
      dx2y2   :     0.009639
      dxy     :     0.007707

 34 C s       :     2.912225  s :     2.912225
      pz      :     1.049573  p :     3.030129
      px      :     0.959350
      py      :     1.021206
      dz2     :     0.037858  d :     0.123584
      dxz     :     0.007481
      dyz     :     0.037019
      dx2y2   :     0.023344
      dxy     :     0.017883

 35 C s       :     2.858899  s :     2.858899
      pz      :     1.046994  p :     3.059597
      px      :     0.962084
      py      :     1.050519
      dz2     :     0.028456  d :     0.108727
      dxz     :     0.013269
      dyz     :     0.036425
      dx2y2   :     0.015982
      dxy     :     0.014596

 36 C s       :     2.916099  s :     2.916099
      pz      :     1.067951  p :     3.113403
      px      :     0.984601
      py      :     1.060851
      dz2     :     0.023671  d :     0.084374
      dxz     :     0.005526
      dyz     :     0.026338
      dx2y2   :     0.015045
      dxy     :     0.013794

 37 C s       :     2.917448  s :     2.917448
      pz      :     1.068283  p :     3.120683
      px      :     0.979228
      py      :     1.073171
      dz2     :     0.021461  d :     0.085819
      dxz     :     0.010514
      dyz     :     0.033307
      dx2y2   :     0.012221
      dxy     :     0.008316

 38 C s       :     2.918646  s :     2.918646
      pz      :     1.066758  p :     3.111799
      px      :     0.969963
      py      :     1.075078
      dz2     :     0.025879  d :     0.085750
      dxz     :     0.013014
      dyz     :     0.028844
      dx2y2   :     0.011186
      dxy     :     0.006827

 39 C s       :     2.917921  s :     2.917921
      pz      :     1.076653  p :     3.116324
      px      :     0.986120
      py      :     1.053551
      dz2     :     0.023074  d :     0.082256
      dxz     :     0.005674
      dyz     :     0.026219
      dx2y2   :     0.014424
      dxy     :     0.012864

 40 C s       :     2.856241  s :     2.856241
      pz      :     1.036026  p :     3.043494
      px      :     0.966487
      py      :     1.040981
      dz2     :     0.028377  d :     0.105554
      dxz     :     0.011832
      dyz     :     0.035246
      dx2y2   :     0.015609
      dxy     :     0.014490

 41 H s       :     0.853648  s :     0.853648

 42 H s       :     0.850018  s :     0.850018

 43 H s       :     0.864133  s :     0.864133

 44 H s       :     0.855896  s :     0.855896

 45 H s       :     0.867488  s :     0.867488

 46 H s       :     0.853290  s :     0.853290

 47 H s       :     0.855555  s :     0.855555

 48 H s       :     0.668841  s :     0.668841

 49 H s       :     0.858732  s :     0.858732

 50 H s       :     0.859169  s :     0.859169

 51 H s       :     0.839341  s :     0.839341

 52 H s       :     0.839931  s :     0.839931

 53 H s       :     0.650181  s :     0.650181

 54 H s       :     0.844908  s :     0.844908

 55 H s       :     0.839080  s :     0.839080

 56 H s       :     0.864799  s :     0.864799

 57 H s       :     0.863817  s :     0.863817

 58 H s       :     0.864240  s :     0.864240

 59 H s       :     0.862335  s :     0.862335

 60 H s       :     0.857309  s :     0.857309



                      *****************************
                      * MAYER POPULATION ANALYSIS *
                      *****************************

  NA   - Mulliken gross atomic population
  ZA   - Total nuclear charge
  QA   - Mulliken gross atomic charge
  VA   - Mayer's total valence
  BVA  - Mayer's bonded valence
  FA   - Mayer's free valence

  ATOM       NA         ZA         QA         VA         BVA        FA
  0 C      6.5445     6.0000    -0.5445     3.8217     3.8217     0.0000
  1 C      5.8662     6.0000     0.1338     3.8819     3.8819     0.0000
  2 C      5.6881     6.0000     0.3119     3.8620     3.8620     0.0000
  3 N      7.6130     7.0000    -0.6130     2.7874     2.7874     0.0000
  4 C      6.2308     6.0000    -0.2308     3.8229     3.8229     0.0000
  5 C      5.8400     6.0000     0.1600     3.9351     3.9351     0.0000
  6 C      6.1695     6.0000    -0.1695     3.9113     3.9113     0.0000
  7 C      6.1687     6.0000    -0.1687     3.9213     3.9213     0.0000
  8 C      5.9438     6.0000     0.0562     3.9321     3.9321     0.0000
  9 C      5.9617     6.0000     0.0383     3.7915     3.7915     0.0000
 10 O      8.6336     8.0000    -0.6336     1.7866     1.7866    -0.0000
 11 C      5.0452     6.0000     0.9548     3.8661     3.8661    -0.0000
 12 F      9.2920     9.0000    -0.2920     1.0727     1.0727    -0.0000
 13 F      9.2955     9.0000    -0.2955     1.0701     1.0701    -0.0000
 14 F      9.2923     9.0000    -0.2923     1.0710     1.0710     0.0000
 15 C      5.0835     6.0000     0.9165     3.8639     3.8639     0.0000
 16 F      9.2883     9.0000    -0.2883     1.0749     1.0749    -0.0000
 17 F      9.3005     9.0000    -0.3005     1.0614     1.0614     0.0000
 18 F      9.2901     9.0000    -0.2901     1.0732     1.0732     0.0000
 19 C      6.1642     6.0000    -0.1642     3.9090     3.9090    -0.0000
 20 C      6.1729     6.0000    -0.1729     3.9361     3.9361    -0.0000
 21 S     14.7775    16.0000     1.2225     5.0636     5.0636    -0.0000
 22 O      8.5453     8.0000    -0.5453     1.8871     1.8871     0.0000
 23 O      8.5550     8.0000    -0.5550     1.8813     1.8813    -0.0000
 24 C      6.1276     6.0000    -0.1276     3.8304     3.8304    -0.0000
 25 C      6.1528     6.0000    -0.1528     3.9108     3.9108     0.0000
 26 C      6.1395     6.0000    -0.1395     3.8938     3.8938     0.0000
 27 C      5.9160     6.0000     0.0840     3.9258     3.9258     0.0000
 28 C      5.4722     6.0000     0.5278     3.9546     3.9546    -0.0000
 29 O      8.4439     8.0000    -0.4439     2.0681     2.0681     0.0000
 30 O      8.6234     8.0000    -0.6234     1.8689     1.8689    -0.0000
 31 C      6.1489     6.0000    -0.1489     3.8732     3.8732     0.0000
 32 C      6.1366     6.0000    -0.1366     3.9213     3.9213    -0.0000
 33 N      7.4083     7.0000    -0.4083     2.9580     2.9580     0.0000
 34 C      6.0603     6.0000    -0.0603     3.8665     3.8665    -0.0000
 35 C      5.8604     6.0000     0.1396     3.9655     3.9655    -0.0000
 36 C      6.2041     6.0000    -0.2041     3.9000     3.9000    -0.0000
 37 C      6.1251     6.0000    -0.1251     3.9270     3.9270     0.0000
 38 C      6.1202     6.0000    -0.1202     3.9244     3.9244    -0.0000
 39 C      6.1929     6.0000    -0.1929     3.8737     3.8737     0.0000
 40 C      5.8821     6.0000     0.1179     3.9968     3.9968     0.0000
 41 H      0.8236     1.0000     0.1764     0.9282     0.9282     0.0000
 42 H      0.8070     1.0000     0.1930     0.9385     0.9385     0.0000
 43 H      0.8402     1.0000     0.1598     0.9326     0.9326    -0.0000
 44 H      0.8263     1.0000     0.1737     0.9368     0.9368     0.0000
 45 H      0.8284     1.0000     0.1716     0.9272     0.9272    -0.0000
 46 H      0.8381     1.0000     0.1619     0.9386     0.9386     0.0000
 47 H      0.8455     1.0000     0.1545     0.9455     0.9455    -0.0000
 48 H      0.5833     1.0000     0.4167     0.8049     0.8049    -0.0000
 49 H      0.8490     1.0000     0.1510     0.9554     0.9554     0.0000
 50 H      0.8523     1.0000     0.1477     0.9407     0.9407    -0.0000
 51 H      0.8142     1.0000     0.1858     0.9373     0.9373     0.0000
 52 H      0.8202     1.0000     0.1798     0.9387     0.9387    -0.0000
 53 H      0.5659     1.0000     0.4341     0.7955     0.7955     0.0000
 54 H      0.8267     1.0000     0.1733     0.9361     0.9361     0.0000
 55 H      0.8123     1.0000     0.1877     0.9352     0.9352    -0.0000
 56 H      0.8509     1.0000     0.1491     0.9355     0.9355     0.0000
 57 H      0.8627     1.0000     0.1373     0.9374     0.9374     0.0000
 58 H      0.8634     1.0000     0.1366     0.9365     0.9365     0.0000
 59 H      0.8599     1.0000     0.1401     0.9362     0.9362    -0.0000
 60 H      0.8534     1.0000     0.1466     0.9414     0.9414     0.0000

  Mayer bond orders larger than 0.100000
B(  0-C ,  1-C ) :   1.0097 B(  0-C , 41-H ) :   0.9211 B(  0-C , 42-H ) :   0.9169 
B(  0-C , 43-H ) :   0.9243 B(  1-C ,  2-C ) :   1.4325 B(  1-C , 40-C ) :   1.2630 
B(  2-C ,  3-N ) :   0.8892 B(  2-C , 33-N ) :   1.2764 B(  3-N ,  4-C ) :   0.9199 
B(  3-N , 21-S ) :   0.8050 B(  4-C ,  5-C ) :   0.9652 B(  4-C , 44-H ) :   0.9173 
B(  4-C , 45-H ) :   0.9179 B(  5-C ,  6-C ) :   1.4283 B(  5-C , 20-C ) :   1.4368 
B(  6-C ,  7-C ) :   1.4214 B(  6-C , 46-H ) :   0.9150 B(  7-C ,  8-C ) :   1.4209 
B(  7-C , 47-H ) :   0.9136 B(  8-C ,  9-C ) :   0.9339 B(  8-C , 19-C ) :   1.4117 
B(  9-C , 10-O ) :   0.8999 B(  9-C , 11-C ) :   0.8891 B(  9-C , 15-C ) :   0.8931 
B( 10-O , 48-H ) :   0.7601 B( 11-C , 12-F ) :   0.9811 B( 11-C , 13-F ) :   0.9693 
B( 11-C , 14-F ) :   0.9673 B( 15-C , 16-F ) :   0.9858 B( 15-C , 17-F ) :   0.9553 
B( 15-C , 18-F ) :   0.9421 B( 19-C , 20-C ) :   1.4233 B( 19-C , 49-H ) :   0.9083 
B( 20-C , 50-H ) :   0.9179 B( 21-S , 22-O ) :   1.6419 B( 21-S , 23-O ) :   1.6159 
B( 21-S , 24-C ) :   0.8108 B( 24-C , 25-C ) :   1.3884 B( 24-C , 32-C ) :   1.3907 
B( 25-C , 26-C ) :   1.4145 B( 25-C , 51-H ) :   0.9088 B( 26-C , 27-C ) :   1.4058 
B( 26-C , 52-H ) :   0.9098 B( 27-C , 28-C ) :   1.0076 B( 27-C , 31-C ) :   1.3799 
B( 28-C , 29-O ) :   1.8642 B( 28-C , 30-O ) :   1.0254 B( 30-O , 53-H ) :   0.7418 
B( 31-C , 32-C ) :   1.4265 B( 31-C , 54-H ) :   0.9149 B( 32-C , 55-H ) :   0.9073 
B( 33-N , 34-C ) :   1.4923 B( 34-C , 35-C ) :   1.2425 B( 34-C , 56-H ) :   0.9268 
B( 35-C , 36-C ) :   1.2833 B( 35-C , 40-C ) :   1.2911 B( 36-C , 37-C ) :   1.5122 
B( 36-C , 39-C ) :   0.1061 B( 36-C , 57-H ) :   0.9237 B( 37-C , 38-C ) :   1.3529 
B( 37-C , 58-H ) :   0.9292 B( 38-C , 39-C ) :   1.5074 B( 38-C , 59-H ) :   0.9287 
B( 39-C , 40-C ) :   1.2962 B( 39-C , 60-H ) :   0.9146 

-------
TIMINGS
-------

Total SCF time: 0 days 0 hours 10 min 32 sec 

Total time                  ....     632.464 sec
Sum of individual times     ....     631.656 sec  ( 99.9%)

SCF preparation             ....       0.593 sec  (  0.1%)
Fock matrix formation       ....     627.193 sec  ( 99.2%)
  Startup                   ....       0.161 sec  (  0.0% of F)
  Split-RI-J                ....      87.542 sec  ( 14.0% of F)
  Chain of spheres X        ....     488.924 sec  ( 78.0% of F)
  XC integration            ....      48.785 sec  (  7.8% of F)
    XC Preparation          ....       0.000 sec  (  0.0% of XC)
    Basis function eval.    ....      18.540 sec  ( 38.0% of XC)
    Density eval.           ....      12.552 sec  ( 25.7% of XC)
    XC-Functional eval.     ....       2.096 sec  (  4.3% of XC)
    XC-Potential eval.      ....      13.536 sec  ( 27.7% of XC)
Diagonalization             ....       0.000 sec  (  0.0%)
Density matrix formation    ....       0.753 sec  (  0.1%)
Total Energy calculation    ....       0.117 sec  (  0.0%)
Population analysis         ....       0.109 sec  (  0.0%)
Orbital Transformation      ....       0.292 sec  (  0.0%)
Orbital Orthonormalization  ....       0.000 sec  (  0.0%)
DIIS solution               ....       1.461 sec  (  0.2%)
SOSCF solution              ....       1.138 sec  (  0.2%)
Finished LeanSCF after 632.6 sec

Maximum memory used throughout the entire LEANSCF-calculation: 111.1 MB

-------------------------   --------------------
FINAL SINGLE POINT ENERGY     -2522.503132310741
-------------------------   --------------------


------------------------------------------------------------------------------
                              ORCA PROPERTY CALCULATIONS
------------------------------------------------------------------------------

GBWName                                 ... /home/nmrbox/aojoawo/Documents/ERDOS/inputs/CHEMBL3682605.gbw
Number of atoms                         ...     61
Number of basis functions               ...    618
Max core memory                         ...   1024 MB

Electric properties:
Dipole moment                           ... YES
Quadrupole moment                       ...  NO
Static polarizability (Dipole/Dipole)   ...  NO
Static polarizability (Dipole/Quad.)    ...  NO
Static polarizability (Quad./Quad.)     ...  NO
Static polarizability (Velocity)        ...  NO

Atomic electric properties:
Dipole moment                           ...  NO
Quadrupole moment                       ...  NO
Static polarizability                   ...  NO

Choice of electric origin               ... Center of mass
Position of electric origin             ...    -0.871300     0.050560     0.237600

General magnetic properties:
Magnetizability                         ...  NO

EPR properties:
g-Tensor (aka g-matrix)                 ...  NO
Zero-Field splitting spin-orbit         ...  NO
Zero-field splitting spin-spin          ...  NO
Hyperfine couplings                     ...  NO (   0 nuclei)
Quadrupole couplings                    ...  NO (   0 nuclei)
Contact density                         ...  NO (   0 nuclei)

NMR properties:
Chemical shifts                         ...  NO (   0 nuclei)
Spin-rotation constants                 ...  NO (   0 nuclei)
Spin-spin couplings                     ...  NO (   0 nuclei,    0 pairs)

Choice of magnetic origin               ... GIAO
Position of magnetic origin             ...     0.000000     0.000000     0.000000

Properties with geometric perturbations:
SCF Hessian                             ...  NO
IR spectrum                             ...  NO
VCD spectrum                            ...  NO
X-ray spectroscopy properties:
SCF XES/XAS/RIXS spectra                ...  NO


-------------
DIPOLE MOMENT
-------------

Method             : SCF
Type of density    : Electron Density
Multiplicity       :   1
Irrep              :   0
Energy             : -2522.5031323107405115 Eh
Relativity type    : 
Basis              : AO
                                X                 Y                 Z
Electronic contribution:    -49.296406360      -7.322844273       2.944953413
Nuclear contribution   :     49.410312523       7.603999903      -4.844066690
                        -----------------------------------------
Total Dipole Moment    :      0.113906163       0.281155630      -1.899113277
                        -----------------------------------------
Magnitude (a.u.)       :      1.923188587
Magnitude (Debye)      :      4.888356905



--------------------
Rotational spectrum 
--------------------
 
Rotational constants in cm-1:             0.004189             0.001371             0.001177 
Rotational constants in MHz :           125.597339            41.107846            35.294044 

Dipole components along the rotational axes: 
x,y,z [a.u.] :     0.321346    -0.365532    -1.860585 
x,y,z [Debye]:     0.816796    -0.929110    -4.729232 

 

Dipole moment calculation done in   0.0 sec 

Maximum memory used throughout the entire PROP-calculation: 55.6 MB

--------------------------------
SUGGESTED CITATIONS FOR THIS RUN
--------------------------------

Below you find a list of papers that are relevant to this ORCA run
We neither can nor want to force you to cite these papers, but we appreciate if you do
You receive ORCA, which is the product of decades of hard work by many enthusiastic individuals, for free
The only thing we kindly ask in return is that you cite our papers,
We deeply appreciate it, if you show your appreciation for ORCA by not just citing the generic ORCA reference.

Please note that relegating all ORCA citations to the supporting information does *not* help us.
SI sections are not indexed - citations you put there will not count into any citation statistics
But we need these citations in order to attract the funding resources that allow us to do what we are doing

Therefore, if you are a happy ORCA user, please consider citing a few of the papers listed below in the main body of your paper

In addition to the list printed below, the program has created the file /home/nmrbox/aojoawo/Documents/ERDOS/inputs/CHEMBL3682605.bibtex that contains the list in bibtex format
You can import this file easily into all common literature databanks and citation aid programs


List of essential papers. We consider these as the minimum necessary citations

  1. Neese,F.
     Software update: the ORCA program system, version 5.0
     WIRES Comput. Molec. Sci., 2022 12(1)e1606
     doi.org/10.1002/wcms.1606

List of papers to cite with high priority. The work reported in these papers was absolutely
necessary for this run to complete.
Our perspective: the developers of density functionals and basis sets usually get cited in chemistry papers
Good! But without the algorithms to do something with them, the functionals or basis sets would not do anything.
Hence, in our opinion, the algorithm design and method developments papers are equally worthy of getting cited

  1. Neese,F.
     An improvement of the resolution of the identity approximation for the formation of the Coulomb matrix
     J. Comp. Chem., 2003 24(14)1740-1747
     doi.org/10.1002/jcc.10318
  2. Neese,F.; Wennmohs,F.; Hansen,A.; Becker,U.
     Efficient, approximate and parallel Hartree-Fock and hybrid DFT calculations. A 'chain-of-spheres' algorithm for the Hartree-Fock exchange
     Chem. Phys., 2009 356(1-3)98-109
     doi.org/10.1016/j.chemphys.2008.10.036
  3. Helmich-Paris,B.; de Souza,B.; Neese,F.; Izsák,R.
     An improved chain of spheres for exchange algorithm
     J. Chem. Phys., 2021 155 104109
     doi.org/doi: 10.1063/5.0058766.
  4. Neese,F.
     The SHARK Integral Generation and Digestion System
     J. Comp. Chem., 2022  1-16
     doi.org/10.1002/jcc.26942

List of suggested additional citations. These are papers that are important in the 'surrounding' of 
of this run, or papers that preceded the highly important papers. If you like your results we are grateful for a citation.

  1. Izsak,R.; Neese,F.
     An overlap fitted chain of spheres exchange method
     J. Chem. Phys., 2011 135 144105
     doi.org/10.1063/1.3646921
  2. Izsak,R.; Hansen,A.; Neese,F.
     The resolution of identity and chain of spheres approximations for the LPNO-CCSD singles Fock term
     Molec. Phys., 2012 110 2413-2417
     doi.org/10.1080/00268976.2012.687466
  3. Neese,F.
     The ORCA program system
     WIRES Comput. Molec. Sci., 2012 2(1)73-78
     doi.org/10.1002/wcms.81
  4. Izsak,R.; Neese,F.; Klopper,W.
     Robust fitting techniques in the chain of spheres approximation to the Fock exchange: The role of the complementary space
     J. Chem. Phys., 2013 139 
     doi.org/10.1063/1.4819264
  5. Neese,F.
     Software update: the ORCA program system, version 4.0
     WIRES Comput. Molec. Sci., 2018 8(1)1-6
     doi.org/10.1002/wcms.1327
  6. Neese,F.; Wennmohs,F.; Becker,U.; Riplinger,C.
     The ORCA quantum chemistry program package
     J. Chem. Phys., 2020 152 Art. No. L224108
     doi.org/10.1063/5.0004608

List of optional additional citations

  1. Neese,F.
     Approximate second-order SCF convergence for spin unrestricted wavefunctions
     Chem. Phys. Lett., 2000 325(1-3)93-98
     doi.org/10.1016/s0009-2614(00)00662-x

Timings for individual modules:

Sum of individual times          ...      655.471 sec (=  10.925 min)
Startup calculation              ...       14.821 sec (=   0.247 min)   2.3 %
SCF iterations                   ...      640.429 sec (=  10.674 min)  97.7 %
Property calculations            ...        0.222 sec (=   0.004 min)   0.0 %
                             ****ORCA TERMINATED NORMALLY****
TOTAL RUN TIME: 0 days 0 hours 10 minutes 56 seconds 404 msec
