
                                 *****************
                                 * O   R   C   A *
                                 *****************

                                            #,                                       
                                            ###                                      
                                            ####                                     
                                            #####                                    
                                            ######                                   
                                           ########,                                 
                                     ,,################,,,,,                         
                               ,,#################################,,                 
                          ,,##########################################,,             
                       ,#########################################, ''#####,          
                    ,#############################################,,   '####,        
                  ,##################################################,,,,####,       
                ,###########''''           ''''###############################       
              ,#####''   ,,,,##########,,,,          '''####'''          '####       
            ,##' ,,,,###########################,,,                        '##       
           ' ,,###''''                  '''############,,,                           
         ,,##''                                '''############,,,,        ,,,,,,###''
      ,#''                                            '''#######################'''  
     '                                                          ''''####''''         
             ,#######,   #######,   ,#######,      ##                                
            ,#'     '#,  ##    ##  ,#'     '#,    #''#        ,####,   ,####,        
            ##       ##  ##   ,#'  ##            #'  '#       #'       #'  '#        
            ##       ##  #######   ##           ,######,      #####,   #    #        
            '#,     ,#'  ##    ##  '#,     ,#' ,#      #,     #,   #   #,  ,#        
             '#######'   ##     ##  '#######'  #'      '#     '####' # '####'        



                #########################################################
                #                        -***-                          #
                #          Department of theory and spectroscopy        #
                #                                                       #
                #                      Frank Neese                      #
                #                                                       #
                #     Directorship, Architecture, Infrastructure        #
                #                    SHARK, DRIVERS                     #
                #        Core code/Algorithms in most modules           #
                #                                                       #
                #        Max Planck Institute fuer Kohlenforschung      #
                #                Kaiser Wilhelm Platz 1                 #
                #                 D-45470 Muelheim/Ruhr                 #
                #                      Germany                          #
                #                                                       #
                #                  All rights reserved                  #
                #                        -***-                          #
                #########################################################


                         Program Version 6.0.0  -   RELEASE  -


 With contributions from (in alphabetic order):
   Daniel Aravena         : Magnetic Suceptibility
   Michael Atanasov       : Ab Initio Ligand Field Theory (pilot matlab implementation)
   Alexander A. Auer      : GIAO ZORA, VPT2 properties, NMR spectrum
   Ute Becker             : All parallelization in ORCA, NUMFREQ, NUMCALC
   Giovanni Bistoni       : ED, misc. LED, open-shell LED, HFLD
   Martin Brehm           : Molecular dynamics
   Dmytro Bykov           : pre 5.0 version of the SCF Hessian
   Marcos Casanova-Páez   : Triplet and SCS-CIS(D). UHF-(DLPNO)-IP/EA/STEOM-CCSD. UHF-CVS-IP/STEOM-CCSD
   Vijay G. Chilkuri      : MRCI spin determinant printing, contributions to CSF-ICE
   Pauline Colinet        : FMM embedding
   Dipayan Datta          : RHF DLPNO-CCSD density
   Achintya Kumar Dutta   : EOM-CC, STEOM-CC
   Nicolas Foglia         : Exact transition moments, OPA infrastructure, MCD improvements
   Dmitry Ganyushin       : Spin-Orbit,Spin-Spin,Magnetic field MRCI
   Miquel Garcia          : C-PCM and meta-GGA Hessian, CCSD/C-PCM, Gaussian charge scheme
   Tiago L. C. Gouveia    : GS-ROHF, GS-ROCIS
   Yang Guo               : DLPNO-NEVPT2, F12-NEVPT2, CIM, IAO-localization
   Andreas Hansen         : Spin unrestricted coupled pair/coupled cluster methods
   Ingolf Harden          : AUTO-CI MPn and infrastructure 
   Benjamin Helmich-Paris : MC-RPA, TRAH-(SCF,CASSCF), AVAS, COSX integrals, SCF dyn. polar.
   Lee Huntington         : MR-EOM, pCC
   Robert Izsak           : Overlap fitted RIJCOSX, COSX-SCS-MP3, EOM
   Riya Kayal             : Wick's Theorem for AUTO-CI, AUTO-CI UHF-CCSDT
   Emily Kempfer          : AUTO-CI, RHF CISDT and CCSDT
   Christian Kollmar      : KDIIS, OOCD, Brueckner-CCSD(T), CCSD density, CASPT2, CASPT2-K, improved NEVPT2
   Axel Koslowski         : Symmetry handling
   Simone Kossmann        : Meta GGA functionals, TD-DFT gradient, OOMP2, (MP2 Hessian; deprecated post 5.0)
   Lucas Lang             : DCDCAS
   Marvin Lechner         : AUTO-CI (C++ implementation), FIC-MRCC
   Spencer Leger          : CASSCF response
   Dagmar Lenk            : GEPOL surface, SMD, ORCA-2-JSON
   Dimitrios Liakos       : Extrapolation schemes; Compound Job, initial MDCI parallelization
   Dimitrios Manganas     : Further ROCIS development; embedding schemes. LFT, Crystal Embedding
   Dimitrios Pantazis     : SARC Basis sets
   Anastasios Papadopoulos: AUTO-CI, single reference methods and gradients
   Taras Petrenko         : pre 6.0 DFT Hessian and TD-DFT gradient, (ASA, deprecated), ECA, 1-Electron XAS/XES, NRVS
   Peter Pinski           : DLPNO-MP2, DLPNO-MP2 Gradient
   Christoph Reimann      : Effective Core Potentials
   Marius Retegan         : Local ZFS, SOC
   Christoph Riplinger    : Optimizer, TS searches, QM/MM, DLPNO-CCSD(T), (RO)-DLPNO pert. Triples
   Michael Roemelt        : Original ROCIS implementation
   Masaaki Saitow         : Open-shell DLPNO-CCSD energy and density
   Barbara Sandhoefer     : DKH picture change effects
   Kantharuban Sivalingam : CASSCF convergence/infrastructure, NEVPT2 and variants, FIC-MRCI
   Bernardo de Souza      : ESD, SOC TD-DFT
   Georgi Stoychev        : AutoAux, RI-MP2 NMR, DLPNO-MP2 response, X2C
   Van Anh Tran           : RI-MP2 g-tensors
   Willem Van den Heuvel  : Paramagnetic NMR
   Zikuan Wang            : NOTCH, Electric field optimization 
   Frank Wennmohs         : Technical directorship and infrastructure
   Hang Xu                : AUTO-CI-Response properties 


 We gratefully acknowledge several colleagues who have allowed us to
 interface, adapt or use parts of their codes:
   Stefan Grimme, W. Hujo, H. Kruse, P. Pracht,  : VdW corrections, initial TS optimization,
                  C. Bannwarth, S. Ehlert,         DFT functionals, gCP, sTDA/sTD-DF
                  L. Wittmann, M. Mueller
   Ed Valeev, F. Pavosevic, A. Kumar             : LibInt (2-el integral package), F12 methods
   Garnet Chan, S. Sharma, J. Yang, R. Olivares  : DMRG
   Ulf Ekstrom                                   : XCFun DFT Library
   Mihaly Kallay                                 : mrcc  (arbitrary order and MRCC methods)
   Frank Weinhold                                : gennbo (NPA and NBO analysis)
   Simon Mueller                                 : openCOSMO-RS
   Christopher J. Cramer and Donald G. Truhlar   : smd solvation model
   Lars Goerigk                                  : TD-DFT with DH, B97 family of functionals
   V. Asgeirsson, H. Jonsson                     : NEB implementation
   FAccTs GmbH                                   : IRC, NEB, NEB-TS, DLPNO-Multilevel, CI-OPT
                                                   MM, QMMM, 2- and 3-layer-ONIOM, Crystal-QMMM,
                                                   LR-CPCM, SF, NACMEs, symmetry and pop. for TD-DFT,
                                                   nearIR, NL-DFT gradient (VV10), updates on ESD,
                                                   ML-optimized integration grids, MBIS, APM,
                                                   GOAT, DOCKER, SOLVATOR, interface openCOSMO-RS
   S Lehtola, MJT Oliveira, MAL Marques          : LibXC Library
   Liviu Ungur et al                             : ANISO software


 Your calculation uses the libint2 library for the computation of 2-el integrals
 For citations please refer to: http://libint.valeyev.net

 Your ORCA version has been built with support for libXC version: 6.2.2
 For citations please refer to: https://libxc.gitlab.io

 This ORCA versions uses:
   CBLAS   interface :  Fast vector & matrix operations
   LAPACKE interface :  Fast linear algebra routines
   SCALAPACK package :  Parallel linear algebra routines
   Shared memory     :  Shared parallel matrices
   BLAS/LAPACK       :  OpenBLAS 0.3.27  USE64BITINT DYNAMIC_ARCH NO_AFFINITY SkylakeX SINGLE_THREADED
        Core in use  :  SkylakeX
   Copyright (c) 2011-2014, The OpenBLAS Project


Warning: RI is on but no J-basis has been assigned. Assigning Def2/J (nothing to worry about!)
================================================================================

----- Orbital basis set information -----
Your calculation utilizes the basis: 6-31G*
   H-He, Li-Ne : W. J. Hehre, R. Ditchfield and J.A. Pople, J. Chem. Phys. 56, 2257 (1972).
                 Note: He and Ne are unpublished basis sets taken from the Gaussian program.
                 Note: Li and B from J. D. Dill and J. A. Pople, J. Chem. Phys. 62, 2921 (1975).
   Na - Ar     : M. M. Francl, W. J. Pietro, W. J. Hehre, J. S. Binkley, M. S. Gordon, 
                 D. J. DeFrees and J. A. Pople, J. Chem. Phys. 77, 3654 (1982).
   K - Zn      : V. A. Rassolov, J. A. Pople, M. A. Ratner, and T. L. Windus, J. Chem. Phys. 109, 1223 (1998).

----- AuxJ basis set information -----
Your calculation utilizes the auxiliary basis: def2/J
   F. Weigend, Phys. Chem. Chem. Phys. 8, 1057 (2006).

================================================================================
                                        WARNINGS
                       Please study these warnings very carefully!
================================================================================


================================================================================
                                       INPUT FILE
================================================================================
NAME = /home/nmrbox/aojoawo/Documents/ERDOS/inputs/CHEMBL4587626.inp
|  1> ! B3LYP 6-31G* SP
|  2> 
|  3> * xyz 0 1
|  4> C -2.9517 1.5787 -0.0398
|  5> C -1.4539 1.6735 0.2870
|  6> C -0.6518 2.4524 -0.7401
|  7> C 0.3519 3.3351 -0.2980
|  8> C 1.1676 4.0011 -1.2158
|  9> C 0.9994 3.7889 -2.5852
| 10> F 1.7956 4.4316 -3.4743
| 11> C 0.0118 2.9131 -3.0388
| 12> C -0.8033 2.2398 -2.1249
| 13> N -0.8428 0.3512 0.5232
| 14> C -1.0129 -0.7853 -0.3980
| 15> C -1.8263 -1.8738 0.2527
| 16> C -1.2210 -2.7642 1.1487
| 17> C -1.9750 -3.7571 1.7728
| 18> C -3.3429 -3.8868 1.5044
| 19> Cl -4.2247 -5.1305 2.3861
| 20> C -3.9700 -3.0031 0.5936
| 21> C -5.4081 -3.1099 0.2473
| 22> O -6.0331 -2.0970 -0.1700
| 23> O -6.0785 -4.3257 0.3402
| 24> C -3.1990 -1.9936 -0.0131
| 25> C 0.0641 0.2151 1.6317
| 26> O -0.3985 0.2473 2.8034
| 27> C 1.5251 0.0539 1.4176
| 28> C 2.3573 -0.3548 2.4746
| 29> N 3.6980 -0.4804 2.2888
| 30> C 4.2841 -0.2159 1.0916
| 31> C 5.6691 -0.3465 0.9421
| 32> C 6.2690 -0.0643 -0.2892
| 33> C 5.4881 0.3469 -1.3747
| 34> C 4.1031 0.4791 -1.2352
| 35> C 3.4951 0.2015 -0.0014
| 36> C 2.1136 0.3348 0.1721
| 37> H -3.1495 1.0531 -0.9933
| 38> H -3.3842 2.5987 -0.1123
| 39> H -3.4771 1.0358 0.7740
| 40> H -1.4236 2.2483 1.2415
| 41> H 0.5147 3.4969 0.7604
| 42> H 1.9357 4.6774 -0.8635
| 43> H -0.1160 2.7456 -4.1001
| 44> H -1.5452 1.5562 -2.5090
| 45> H -0.0230 -1.1943 -0.6926
| 46> H -1.4939 -0.4660 -1.3436
| 47> H -0.1640 -2.6866 1.3689
| 48> H -1.4928 -4.4272 2.4732
| 49> H -7.0550 -4.4052 0.0795
| 50> H -3.6633 -1.3122 -0.7149
| 51> H 1.9417 -0.5786 3.4487
| 52> H 6.2810 -0.6632 1.7769
| 53> H 7.3408 -0.1614 -0.4016
| 54> H 5.9574 0.5630 -2.3259
| 55> H 3.5106 0.8007 -2.0846
| 56> H 1.5063 0.6640 -0.6610
| 57> *
| 58> 
| 59>                          ****END OF INPUT****
================================================================================

                       ****************************
                       * Single Point Calculation *
                       ****************************

---------------------------------
CARTESIAN COORDINATES (ANGSTROEM)
---------------------------------
  C     -2.951700    1.578700   -0.039800
  C     -1.453900    1.673500    0.287000
  C     -0.651800    2.452400   -0.740100
  C      0.351900    3.335100   -0.298000
  C      1.167600    4.001100   -1.215800
  C      0.999400    3.788900   -2.585200
  F      1.795600    4.431600   -3.474300
  C      0.011800    2.913100   -3.038800
  C     -0.803300    2.239800   -2.124900
  N     -0.842800    0.351200    0.523200
  C     -1.012900   -0.785300   -0.398000
  C     -1.826300   -1.873800    0.252700
  C     -1.221000   -2.764200    1.148700
  C     -1.975000   -3.757100    1.772800
  C     -3.342900   -3.886800    1.504400
  Cl    -4.224700   -5.130500    2.386100
  C     -3.970000   -3.003100    0.593600
  C     -5.408100   -3.109900    0.247300
  O     -6.033100   -2.097000   -0.170000
  O     -6.078500   -4.325700    0.340200
  C     -3.199000   -1.993600   -0.013100
  C      0.064100    0.215100    1.631700
  O     -0.398500    0.247300    2.803400
  C      1.525100    0.053900    1.417600
  C      2.357300   -0.354800    2.474600
  N      3.698000   -0.480400    2.288800
  C      4.284100   -0.215900    1.091600
  C      5.669100   -0.346500    0.942100
  C      6.269000   -0.064300   -0.289200
  C      5.488100    0.346900   -1.374700
  C      4.103100    0.479100   -1.235200
  C      3.495100    0.201500   -0.001400
  C      2.113600    0.334800    0.172100
  H     -3.149500    1.053100   -0.993300
  H     -3.384200    2.598700   -0.112300
  H     -3.477100    1.035800    0.774000
  H     -1.423600    2.248300    1.241500
  H      0.514700    3.496900    0.760400
  H      1.935700    4.677400   -0.863500
  H     -0.116000    2.745600   -4.100100
  H     -1.545200    1.556200   -2.509000
  H     -0.023000   -1.194300   -0.692600
  H     -1.493900   -0.466000   -1.343600
  H     -0.164000   -2.686600    1.368900
  H     -1.492800   -4.427200    2.473200
  H     -7.055000   -4.405200    0.079500
  H     -3.663300   -1.312200   -0.714900
  H      1.941700   -0.578600    3.448700
  H      6.281000   -0.663200    1.776900
  H      7.340800   -0.161400   -0.401600
  H      5.957400    0.563000   -2.325900
  H      3.510600    0.800700   -2.084600
  H      1.506300    0.664000   -0.661000

----------------------------
CARTESIAN COORDINATES (A.U.)
----------------------------
  NO LB      ZA    FRAG     MASS         X           Y           Z
   0 C     6.0000    0    12.011   -5.577905    2.983311   -0.075211
   1 C     6.0000    0    12.011   -2.747473    3.162457    0.542351
   2 C     6.0000    0    12.011   -1.231723    4.634364   -1.398586
   3 C     6.0000    0    12.011    0.664995    6.302426   -0.563138
   4 C     6.0000    0    12.011    2.206444    7.560983   -2.297529
   5 C     6.0000    0    12.011    1.888592    7.159983   -4.885320
   6 F     9.0000    0    18.998    3.393192    8.374510   -6.565476
   7 C     6.0000    0    12.011    0.022299    5.504961   -5.742500
   8 C     6.0000    0    12.011   -1.518017    4.232609   -4.015479
   9 N     7.0000    0    14.007   -1.592661    0.663672    0.988705
  10 C     6.0000    0    12.011   -1.914104   -1.484002   -0.752111
  11 C     6.0000    0    12.011   -3.451207   -3.540969    0.477534
  12 C     6.0000    0    12.011   -2.307356   -5.223581    2.170728
  13 C     6.0000    0    12.011   -3.732209   -7.099890    3.350106
  14 C     6.0000    0    12.011   -6.317165   -7.344988    2.842904
  15 Cl   17.0000    0    35.453   -7.983526   -9.695240    4.509076
  16 C     6.0000    0    12.011   -7.502213   -5.675037    1.121741
  17 C     6.0000    0    12.011  -10.219828   -5.876859    0.467329
  18 O     8.0000    0    15.999  -11.400907   -3.962756   -0.321253
  19 O     8.0000    0    15.999  -11.486700   -8.174388    0.642885
  20 C     6.0000    0    12.011   -6.045234   -3.767358   -0.024755
  21 C     6.0000    0    12.011    0.121131    0.406480    3.083466
  22 O     8.0000    0    15.999   -0.753056    0.467329    5.297658
  23 C     6.0000    0    12.011    2.882021    0.101856    2.678876
  24 C     6.0000    0    12.011    4.454651   -0.670475    4.676316
  25 N     7.0000    0    14.007    6.988207   -0.907824    4.325205
  26 C     6.0000    0    12.011    8.095776   -0.407992    2.062825
  27 C     6.0000    0    12.011   10.713046   -0.654790    1.780311
  28 C     6.0000    0    12.011   11.846693   -0.121509   -0.546509
  29 C     6.0000    0    12.011   10.371006    0.655546   -2.597807
  30 C     6.0000    0    12.011    7.753735    0.905368   -2.334190
  31 C     6.0000    0    12.011    6.604782    0.380780   -0.002646
  32 C     6.0000    0    12.011    3.994125    0.632680    0.325222
  33 H     1.0000    0     1.008   -5.951692    1.990071   -1.877065
  34 H     1.0000    0     1.008   -6.395211    4.910831   -0.212216
  35 H     1.0000    0     1.008   -6.570767    1.957378    1.462648
  36 H     1.0000    0     1.008   -2.690214    4.248671    2.346095
  37 H     1.0000    0     1.008    0.972642    6.608183    1.436948
  38 H     1.0000    0     1.008    3.657943    8.839005   -1.631779
  39 H     1.0000    0     1.008   -0.219208    5.188432   -7.748066
  40 H     1.0000    0     1.008   -2.920005    2.940792   -4.741323
  41 H     1.0000    0     1.008   -0.043464   -2.256900   -1.308824
  42 H     1.0000    0     1.008   -2.823062   -0.880612   -2.539036
  43 H     1.0000    0     1.008   -0.309915   -5.076938    2.586846
  44 H     1.0000    0     1.008   -2.820983   -8.366196    4.673671
  45 H     1.0000    0     1.008  -13.332018   -8.324622    0.150233
  46 H     1.0000    0     1.008   -6.922634   -2.479699   -1.350965
  47 H     1.0000    0     1.008    3.669281   -1.093396    6.517099
  48 H     1.0000    0     1.008   11.869370   -1.253266    3.357854
  49 H     1.0000    0     1.008   13.872102   -0.305002   -0.758914
  50 H     1.0000    0     1.008   11.257854    1.063916   -4.395314
  51 H     1.0000    0     1.008    6.634073    1.513104   -3.939323
  52 H     1.0000    0     1.008    2.846494    1.254778   -1.249109

--------------------------------
INTERNAL COORDINATES (ANGSTROEM)
--------------------------------
 C      0   0   0     0.000000000000     0.00000000     0.00000000
 C      1   0   0     1.535965533467     0.00000000     0.00000000
 C      2   1   0     1.518217385620   113.76052043     0.00000000
 C      3   2   1     1.407844234992   119.07000181   139.13549058
 C      4   3   2     1.396882002891   120.59187658   175.77816485
 C      5   4   3     1.395914195071   120.11358102   359.56238567
 F      6   5   4     1.355542894932   120.03920143   180.28350620
 C      6   5   4     1.395755121789   119.96407114     0.20418517
 C      8   6   5     1.397474189386   120.16491358   359.52230054
 N      2   1   3     1.475706928899   112.49283296   233.46976214
 C     10   2   1     1.472812174040   122.92203725    49.73562503
 C     11  10   2     1.506606219289   110.47030749   247.34855810
 C     12  11  10     1.400719904192   120.14776734   279.60158957
 C     13  12  11     1.394226387643   120.35347061   178.77285766
 C     14  13  12     1.400003949994   120.56787807     0.60150156
 Cl    15  14  13     1.761180234956   117.30000777   182.27075728
 C     15  14  13     1.415534082952   119.89243610   359.91192164
 C     17  15  14     1.483058171482   122.33510941   178.64573105
 O     18  17  15     1.261241729408   119.99640447   155.59538444
 O     18  17  15     1.391487049886   120.96492326   333.81881226
 C     12  11  10     1.403319981330   120.52947878    98.52776123
 C     10   2   1     1.438667115771   117.97821638   223.35003475
 O     22  10   2     1.260125585011   118.85567324    70.94680756
 C     22  10   2     1.485377140662   121.28108439   251.62757924
 C     24  22  10     1.406001966570   120.35548478   193.37731547
 N     25  24  22     1.359328323107   120.52282881   181.17836827
 C     26  25  24     1.358955959551   121.85748256     0.21649068
 C     27  26  25     1.399153890750   120.19127867   179.48962202
 C     28  27  26     1.398433602285   119.99234577   180.44325709
 C     29  28  27     1.398999821301   120.20143849   359.90300944
 C     30  29  28     1.398271107475   120.21632963     0.03865501
 C     31  30  29     1.403206399643   119.88087007     0.15537276
 C     32  31  30     1.398718481325   121.20974130   179.48485691
 H      1   2   3     1.106590461734   112.76494289    61.65234804
 H      1   2   3     1.110275866621   109.69756014   301.13199751
 H      1   2   3     1.110430551633   109.61143587   182.43690160
 H      2   1   3     1.114622528034   103.91825034   116.56709478
 H      4   3   2     1.083002142195   120.51303990   356.75737354
 H      5   4   3     1.082346797473   119.89759796   179.98911473
 H      8   6   5     1.082010526751   119.96524867   180.24273714
 H      9   8   6     1.079470879644   118.24755911   181.09193111
 H     11  10   2     1.110842999708   110.30834247   126.46289773
 H     11  10   2     1.107913737617   111.19773642     9.81694652
 H     13  12  11     1.082478082919   120.43213104   359.09852809
 H     14  13  12     1.082640757592   119.30812206   180.87469142
 H     20  18  17     1.013822957917   121.02404364   181.69242298
 H     21  12  11     1.082775918646   119.24138259     1.79005169
 H     25  24  22     1.082441966112   120.62232656     1.42325896
 H     28  27  26     1.082410060929   120.29797994     0.29074915
 H     29  28  27     1.082043164573   119.88579934   179.71336579
 H     30  29  28     1.082461611329   119.90086684   180.06852796
 H     31  30  29     1.084418355617   119.41188591   179.87570027
 H     33  32  31     1.082239132540   119.19253956   359.62983625

---------------------------
INTERNAL COORDINATES (A.U.)
---------------------------
 C      0   0   0     0.000000000000     0.00000000     0.00000000
 C      1   0   0     2.902554209396     0.00000000     0.00000000
 C      2   1   0     2.869015070580   113.76052043     0.00000000
 C      3   2   1     2.660440043355   119.07000181   139.13549058
 C      4   3   2     2.639724426867   120.59187658   175.77816485
 C      5   4   3     2.637895535137   120.11358102   359.56238567
 F      6   5   4     2.561604834204   120.03920143   180.28350620
 C      6   5   4     2.637594930199   119.96407114     0.20418517
 C      8   6   5     2.640843497163   120.16491358   359.52230054
 N      2   1   3     2.788681949549   112.49283296   233.46976214
 C     10   2   1     2.783211655640   122.92203725    49.73562503
 C     11  10   2     2.847073146119   110.47030749   247.34855810
 C     12  11  10     2.646977009256   120.14776734   279.60158957
 C     13  12  11     2.634706041332   120.35347061   178.77285766
 C     14  13  12     2.645624051897   120.56787807     0.60150156
 Cl    15  14  13     3.328148316542   117.30000777   182.27075728
 C     15  14  13     2.674971750011   119.89243610   359.91192164
 C     17  15  14     2.802573784775   122.33510941   178.64573105
 O     18  17  15     2.383401457254   119.99640447   155.59538444
 O     18  17  15     2.629529443182   120.96492326   333.81881226
 C     12  11  10     2.651890442973   120.52947878    98.52776123
 C     10   2   1     2.718686846685   117.97821638   223.35003475
 O     22  10   2     2.381292250019   118.85567324    70.94680756
 C     22  10   2     2.806956001437   121.28108439   251.62757924
 C     24  22  10     2.656958660573   120.35548478   193.37731547
 N     25  24  22     2.568758256754   120.52282881   181.17836827
 C     26  25  24     2.568054591612   121.85748256     0.21649068
 C     27  26  25     2.644017672727   120.19127867   179.48962202
 C     28  27  26     2.642656524792   119.99234577   180.44325709
 C     29  28  27     2.643726523664   120.20143849   359.90300944
 C     30  29  28     2.642349454103   120.21632963     0.03865501
 C     31  30  29     2.651675804692   119.88087007     0.15537276
 C     32  31  30     2.643194868158   121.20974130   179.48485691
 H      1   2   3     2.091152915086   112.76494289    61.65234804
 H      1   2   3     2.098117321015   109.69756014   301.13199751
 H      1   2   3     2.098409633325   109.61143587   182.43690160
 H      2   1   3     2.106331320682   103.91825034   116.56709478
 H      4   3   2     2.046577451199   120.51303990   356.75737354
 H      5   4   3     2.045339029151   119.89759796   179.98911473
 H      8   6   5     2.044703569579   119.96524867   180.24273714
 H      9   8   6     2.039904332071   118.24755911   181.09193111
 H     11  10   2     2.099189047231   110.30834247   126.46289773
 H     11  10   2     2.093653544105   111.19773642     9.81694652
 H     13  12  11     2.045587122689   120.43213104   359.09852809
 H     14  13  12     2.045894533270   119.30812206   180.87469142
 H     20  18  17     1.915847738745   121.02404364   181.69242298
 H     21  12  11     2.046149950646   119.24138259     1.79005169
 H     25  24  22     2.045518871815   120.62232656     1.42325896
 H     28  27  26     2.045458579757   120.29797994     0.29074915
 H     29  28  27     2.044765246125   119.88579934   179.71336579
 H     30  29  28     2.045555995894   119.90086684   180.06852796
 H     31  30  29     2.049253706714   119.41188591   179.87570027
 H     33  32  31     2.045135571912   119.19253956   359.62983625

---------------------
BASIS SET INFORMATION
---------------------
There are 6 groups of distinct atoms

 Group   1 Type C   : 10s4p1d contracted to 3s2p1d pattern {631/31/1}
 Group   2 Type F   : 10s4p1d contracted to 3s2p1d pattern {631/31/1}
 Group   3 Type N   : 10s4p1d contracted to 3s2p1d pattern {631/31/1}
 Group   4 Type Cl  : 16s10p1d contracted to 4s3p1d pattern {6631/631/1}
 Group   5 Type O   : 10s4p1d contracted to 3s2p1d pattern {631/31/1}
 Group   6 Type H   : 4s contracted to 2s pattern {31}

Atom   0C    basis set group =>   1
Atom   1C    basis set group =>   1
Atom   2C    basis set group =>   1
Atom   3C    basis set group =>   1
Atom   4C    basis set group =>   1
Atom   5C    basis set group =>   1
Atom   6F    basis set group =>   2
Atom   7C    basis set group =>   1
Atom   8C    basis set group =>   1
Atom   9N    basis set group =>   3
Atom  10C    basis set group =>   1
Atom  11C    basis set group =>   1
Atom  12C    basis set group =>   1
Atom  13C    basis set group =>   1
Atom  14C    basis set group =>   1
Atom  15Cl   basis set group =>   4
Atom  16C    basis set group =>   1
Atom  17C    basis set group =>   1
Atom  18O    basis set group =>   5
Atom  19O    basis set group =>   5
Atom  20C    basis set group =>   1
Atom  21C    basis set group =>   1
Atom  22O    basis set group =>   5
Atom  23C    basis set group =>   1
Atom  24C    basis set group =>   1
Atom  25N    basis set group =>   3
Atom  26C    basis set group =>   1
Atom  27C    basis set group =>   1
Atom  28C    basis set group =>   1
Atom  29C    basis set group =>   1
Atom  30C    basis set group =>   1
Atom  31C    basis set group =>   1
Atom  32C    basis set group =>   1
Atom  33H    basis set group =>   6
Atom  34H    basis set group =>   6
Atom  35H    basis set group =>   6
Atom  36H    basis set group =>   6
Atom  37H    basis set group =>   6
Atom  38H    basis set group =>   6
Atom  39H    basis set group =>   6
Atom  40H    basis set group =>   6
Atom  41H    basis set group =>   6
Atom  42H    basis set group =>   6
Atom  43H    basis set group =>   6
Atom  44H    basis set group =>   6
Atom  45H    basis set group =>   6
Atom  46H    basis set group =>   6
Atom  47H    basis set group =>   6
Atom  48H    basis set group =>   6
Atom  49H    basis set group =>   6
Atom  50H    basis set group =>   6
Atom  51H    basis set group =>   6
Atom  52H    basis set group =>   6
---------------------------------
AUXILIARY/J BASIS SET INFORMATION
---------------------------------
There are 6 groups of distinct atoms

 Group   1 Type C   : 12s5p4d2f1g contracted to 6s4p3d1f1g pattern {711111/2111/211/2/1}
 Group   2 Type F   : 12s5p4d2f1g contracted to 6s4p3d1f1g pattern {711111/2111/211/2/1}
 Group   3 Type N   : 12s5p4d2f1g contracted to 6s4p3d1f1g pattern {711111/2111/211/2/1}
 Group   4 Type Cl  : 14s5p5d2f1g contracted to 8s4p3d1f1g pattern {71111111/2111/311/2/1}
 Group   5 Type O   : 12s5p4d2f1g contracted to 6s4p3d1f1g pattern {711111/2111/211/2/1}
 Group   6 Type H   : 5s2p1d contracted to 3s1p1d pattern {311/2/1}

Atom   0C    basis set group =>   1
Atom   1C    basis set group =>   1
Atom   2C    basis set group =>   1
Atom   3C    basis set group =>   1
Atom   4C    basis set group =>   1
Atom   5C    basis set group =>   1
Atom   6F    basis set group =>   2
Atom   7C    basis set group =>   1
Atom   8C    basis set group =>   1
Atom   9N    basis set group =>   3
Atom  10C    basis set group =>   1
Atom  11C    basis set group =>   1
Atom  12C    basis set group =>   1
Atom  13C    basis set group =>   1
Atom  14C    basis set group =>   1
Atom  15Cl   basis set group =>   4
Atom  16C    basis set group =>   1
Atom  17C    basis set group =>   1
Atom  18O    basis set group =>   5
Atom  19O    basis set group =>   5
Atom  20C    basis set group =>   1
Atom  21C    basis set group =>   1
Atom  22O    basis set group =>   5
Atom  23C    basis set group =>   1
Atom  24C    basis set group =>   1
Atom  25N    basis set group =>   3
Atom  26C    basis set group =>   1
Atom  27C    basis set group =>   1
Atom  28C    basis set group =>   1
Atom  29C    basis set group =>   1
Atom  30C    basis set group =>   1
Atom  31C    basis set group =>   1
Atom  32C    basis set group =>   1
Atom  33H    basis set group =>   6
Atom  34H    basis set group =>   6
Atom  35H    basis set group =>   6
Atom  36H    basis set group =>   6
Atom  37H    basis set group =>   6
Atom  38H    basis set group =>   6
Atom  39H    basis set group =>   6
Atom  40H    basis set group =>   6
Atom  41H    basis set group =>   6
Atom  42H    basis set group =>   6
Atom  43H    basis set group =>   6
Atom  44H    basis set group =>   6
Atom  45H    basis set group =>   6
Atom  46H    basis set group =>   6
Atom  47H    basis set group =>   6
Atom  48H    basis set group =>   6
Atom  49H    basis set group =>   6
Atom  50H    basis set group =>   6
Atom  51H    basis set group =>   6
Atom  52H    basis set group =>   6
------------------------------------------------------------------------------
                             ORCA STARTUP CALCULATIONS
                           -- RI-GTO INTEGRALS CHOSEN --
------------------------------------------------------------------------------
------------------------------------------------------------------------------
                   ___                                                        
                  /   \      - P O W E R E D   B Y -                         
                 /     \                                                     
                 |  |  |   _    _      __       _____    __    __             
                 |  |  |  | |  | |    /  \     |  _  \  |  |  /  |          
                  \  \/   | |  | |   /    \    | | | |  |  | /  /          
                 / \  \   | |__| |  /  /\  \   | |_| |  |  |/  /          
                |  |  |   |  __  | /  /__\  \  |    /   |      \           
                |  |  |   | |  | | |   __   |  |    \   |  |\   \          
                \     /   | |  | | |  |  |  |  | |\  \  |  | \   \       
                 \___/    |_|  |_| |__|  |__|  |_| \__\ |__|  \__/        
                                                                              
                      - O R C A' S   B I G   F R I E N D -                    
                                      &                                       
                       - I N T E G R A L  F E E D E R -                       
                                                                              
 v1 FN, 2020, v2 2021, v3 2022-2024                                           
------------------------------------------------------------------------------


----------------------
SHARK INTEGRAL PACKAGE
----------------------

Number of atoms                             ...     53
Number of basis functions                   ...    506
Number of shells                            ...    240
Maximum angular momentum                    ...      2
Integral batch strategy                     ... SHARK/LIBINT Hybrid
RI-J (if used) integral strategy            ... SPLIT-RIJ (Revised 2003 algorithm where possible)
Printlevel                                  ...      1
Contraction scheme used                     ... SEGMENTED contraction
Prescreening option                         ... SCHWARTZ
   Thresh                                   ... 1.000e-10
   Tcut                                     ... 1.000e-11
   Tpresel                                  ... 1.000e-11 
Coulomb Range Separation                    ... NOT USED
Exchange Range Separation                   ... NOT USED
Multipole approximations                    ... NOT USED
Finite Nucleus Model                        ... NOT USED
CABS basis                                  ... NOT available
Auxiliary Coulomb fitting basis             ... AVAILABLE
   # of basis functions in Aux-J            ...   1839
   # of shells in Aux-J                     ...    597
   Maximum angular momentum in Aux-J        ...      4
Auxiliary J/K fitting basis                 ... NOT available
Auxiliary Correlation fitting basis         ... NOT available
Auxiliary 'external' fitting basis          ... NOT available

Checking pre-screening integrals            ... done (  0.0 sec) Dimension = 240
Check shell pair data                       ... done (  0.0 sec)
Shell pair information
Shell pair cut-off parameter TPreSel        ...   1.0e-11
Total number of shell pairs                 ...     28920
Shell pairs after pre-screening             ...     16924
Total number of primitive shell pairs       ...    173361
Primitive shell pairs kept                  ...     51229
          la=0 lb=0:   5485 shell pairs
          la=1 lb=0:   5988 shell pairs
          la=1 lb=1:   1642 shell pairs
          la=2 lb=0:   2266 shell pairs
          la=2 lb=1:   1306 shell pairs
          la=2 lb=2:    237 shell pairs

Calculating one electron integrals          ... done (  0.3 sec)
Calculating RI/J V-Matrix + Cholesky decomp.... done (  0.4 sec)
Calculating Nuclear repulsion               ... done (  0.0 sec) ENN=   3343.772606891691 Eh

Diagonalization of the overlap matrix:
Smallest eigenvalue                        ... 3.902e-04
Time for diagonalization                   ...    0.047 sec
Threshold for overlap eigenvalues          ... 1.000e-07
Number of eigenvalues below threshold      ... 0
Time for construction of square roots      ...    0.059 sec
Total time needed                          ...    0.176 sec

-------------------
DFT GRID GENERATION
-------------------

General Integration Accuracy     IntAcc      ... 4.388
Radial Grid Type                 RadialGrid  ... OptM3 with GC (2021)
Angular Grid (max. ang.)         AngularGrid ... 4 (Lebedev-302)
Angular grid pruning method      GridPruning ... 4 (adaptive)
Weight generation scheme         WeightScheme... mBecke (2022)
Basis function cutoff            BFCut       ... 1.0000e-10
Integration weight cutoff        WCut        ... 1.0000e-14
Partially contracted basis set               ... off
Rotationally invariant grid construction     ... off
Angular grids for H and He will be reduced by one unit

Total number of grid points                  ...   261247
Total number of batches                      ...     4108
Average number of points per batch           ...       63
Average number of grid points per atom       ...     4929

--------------------
COSX GRID GENERATION
--------------------

GRIDX 1
-------
General Integration Accuracy     IntAcc      ... 3.816
Radial Grid Type                 RadialGrid  ... OptM3 with GC (2021)
Angular Grid (max. ang.)         AngularGrid ... 1 (Lebedev-50)
Angular grid pruning method      GridPruning ... 4 (adaptive)
Weight generation scheme         WeightScheme... mBecke (2022)
Basis function cutoff            BFCut       ... 1.0000e-10
Integration weight cutoff        WCut        ... 1.0000e-14
Partially contracted basis set               ... on
Rotationally invariant grid construction     ... off
Angular grids for H and He will be reduced by one unit

Total number of grid points                  ...    34114
Total number of batches                      ...      295
Average number of points per batch           ...      115
Average number of grid points per atom       ...      644
UseSFitting                                  ... on

GRIDX 2
-------
General Integration Accuracy     IntAcc      ... 4.020
Radial Grid Type                 RadialGrid  ... OptM3 with GC (2021)
Angular Grid (max. ang.)         AngularGrid ... 2 (Lebedev-110)
Angular grid pruning method      GridPruning ... 4 (adaptive)
Weight generation scheme         WeightScheme... mBecke (2022)
Basis function cutoff            BFCut       ... 1.0000e-10
Integration weight cutoff        WCut        ... 1.0000e-14
Partially contracted basis set               ... on
Rotationally invariant grid construction     ... off
Angular grids for H and He will be reduced by one unit

Total number of grid points                  ...    72238
Total number of batches                      ...      594
Average number of points per batch           ...      121
Average number of grid points per atom       ...     1363
UseSFitting                                  ... on

GRIDX 3
-------
General Integration Accuracy     IntAcc      ... 4.338
Radial Grid Type                 RadialGrid  ... OptM3 with GC (2021)
Angular Grid (max. ang.)         AngularGrid ... 3 (Lebedev-194)
Angular grid pruning method      GridPruning ... 4 (adaptive)
Weight generation scheme         WeightScheme... mBecke (2022)
Basis function cutoff            BFCut       ... 1.0000e-10
Integration weight cutoff        WCut        ... 1.0000e-14
Partially contracted basis set               ... on
Rotationally invariant grid construction     ... off
Angular grids for H and He will be reduced by one unit

Total number of grid points                  ...   158372
Total number of batches                      ...     1264
Average number of points per batch           ...      125
Average number of grid points per atom       ...     2988
UseSFitting                                  ... on
Initializing property integral containers    ... done (  0.0 sec)

SHARK setup successfully completed in  13.9 seconds

Maximum memory used throughout the entire STARTUP-calculation: 115.2 MB
-------------------------------------------------------------------------------
                                 ORCA GUESS
                   Start orbitals & Density for SCF / CASSCF
-------------------------------------------------------------------------------

------------
SCF SETTINGS
------------
Hamiltonian:
 Density Functional     Method          .... DFT(GTOs)
 Exchange Functional    Exchange        .... B88
   X-Alpha parameter    XAlpha          ....  0.666667
   Becke's b parameter  XBeta           ....  0.004200
 Correlation Functional Correlation     .... LYP
 LDA part of GGA corr.  LDAOpt          .... VWN-5
 Gradients option       PostSCFGGA      .... off
 Hybrid DFT is turned on
   Fraction HF Exchange ScalHFX         ....  0.200000
   Scaling of DF-GGA-X  ScalDFX         ....  0.720000
   Scaling of DF-GGA-C  ScalDFC         ....  0.810000
   Scaling of DF-LDA-C  ScalLDAC        ....  1.000000
   Perturbative correction              ....  0.000000
   NL short-range parameter             ....  4.800000
 RI-approximation to the Coulomb term is turned on
   Number of AuxJ basis functions       .... 1839
   RIJ-COSX (HFX calculated with COS-X)).... on


General Settings:
 Integral files         IntName         .... /home/nmrbox/aojoawo/Documents/ERDOS/inputs/CHEMBL4587626
 Hartree-Fock type      HFTyp           .... RHF
 Total Charge           Charge          ....    0
 Multiplicity           Mult            ....    1
 Number of Electrons    NEL             ....  240
 Basis Dimension        Dim             ....  506
 Nuclear Repulsion      ENuc            ....   3343.7726068917 Eh

Convergence Acceleration:
 AO-DIIS                CNVDIIS         .... on
   Start iteration      DIISMaxIt       ....    12
   Startup error        DIISStart       ....  0.200000
   # of expansion vecs  DIISMaxEq       ....     5
   Bias factor          DIISBfac        ....   1.050
   Max. coefficient     DIISMaxC        ....  10.000
 MO-DIIS                CNVKDIIS        .... off
 Trust-Rad. Augm. Hess. CNVTRAH         .... auto
   Auto Start mean grad. ratio tolernc. ....  1.125000
   Auto Start start iteration           ....    50
   Auto Start num. interpolation iter.  ....    10
   Max. Number of Micro iterations      ....    24
   Max. Number of Macro iterations      .... Maxiter - #DIIS iter
   Number of Davidson start vectors     ....     2
   Converg. threshold    (grad. norm)   ....   5.000e-05
   Grad. Scal. Fac. for Micro threshold ....   0.100
   Minimum threshold for Micro iter.    ....   1.000e-02
   NR start threshold (gradient norm)   ....   1.000e-04
   Initial trust radius                 ....   0.400
   Minimum AH scaling param. (alpha)    ....   1.000
   Maximum AH scaling param. (alpha)    .... 1000.000
   Quad. conv. algorithm                .... NR
   White noise on init. David. guess    .... on
   Maximum white noise                  ....   0.010
   Pseudo random numbers                .... off
   Inactive MOs                         .... canonical
   Orbital update algorithm             .... Taylor
   Preconditioner                       .... Diag
   Full preconditioner red. dimension   ....   250
 SOSCF                  CNVSOSCF        .... on
   Start iteration      SOSCFMaxIt      ....   150
   Startup grad/error   SOSCFStart      ....  0.003300
   Hessian update       SOSCFHessUp     .... L-BFGS
 Level Shifting         CNVShift        .... on
   Level shift para.    LevelShift      ....    0.2500
   Turn off err/grad.   ShiftErr        ....    0.0010
 Zerner damping         CNVZerner       .... off
 Static damping         CNVDamp         .... on
   Fraction old density DampFac         ....    0.7000
   Max. Damping (<1)    DampMax         ....    0.9800
   Min. Damping (>=0)   DampMin         ....    0.0000
   Turn off err/grad.   DampErr         ....    0.1000

SCF Procedure:
 Maximum # iterations   MaxIter         ....   125
 SCF integral mode      SCFMode         .... Direct
   Integral package                     .... SHARK and LIBINT hybrid scheme
 Reset frequency        DirectResetFreq ....    20
 Integral Threshold     Thresh          ....  1.000e-10 Eh
 Primitive CutOff       TCut            ....  1.000e-11 Eh

Convergence Tolerance:
 Convergence Check Mode ConvCheckMode   .... Total+1el-Energy
 Convergence forced     ConvForced      .... 0
 Energy Change          TolE            ....  1.000e-06 Eh
 1-El. energy change                    ....  1.000e-03 Eh
 Orbital Gradient       TolG            ....  5.000e-05
 Orbital Rotation angle TolX            ....  5.000e-05
 DIIS Error             TolErr          ....  1.000e-06

------------------------------
INITIAL GUESS: MODEL POTENTIAL
------------------------------
Loading Hartree-Fock densities                     ... done
Calculating cut-offs                               ... done
Initializing the effective Hamiltonian             ... done
Setting up the integral package (SHARK)            ... done
Starting the Coulomb interaction                   ... done (   4.3 sec)
Making the grid                                    ... done (   1.7 sec)
Mapping shells                                     ... done
Starting the XC term evaluation                    ... done (   1.3 sec)
  promolecular density results
     # of electrons  =    239.973772753
     EX              =   -214.864623893
     EC              =     -8.367986384
     EX+EC           =   -223.232610276
Transforming the Hamiltonian                       ... done (   0.0 sec)
Diagonalizing the Hamiltonian                      ... done (   0.1 sec)
Back transforming the eigenvectors                 ... done (   0.0 sec)
Now organizing SCF variables                       ... done
                      ------------------
                      INITIAL GUESS DONE (   7.5 sec)
                      ------------------
             **** ENERGY FILE WAS UPDATED (/home/nmrbox/aojoawo/Documents/ERDOS/inputs/CHEMBL4587626.en.tmp) ****
Finished Guess after   7.8 sec
Maximum memory used throughout the entire GUESS-calculation: 62.9 MB

-------------------------------------------------------------------------------------------
                                      ORCA LEAN-SCF
                              memory conserving SCF solver
-------------------------------------------------------------------------------------------

----------------------------------------D-I-I-S--------------------------------------------
Iteration    Energy (Eh)           Delta-E    RMSDP     MaxDP     DIISErr   Damp  Time(sec)
-------------------------------------------------------------------------------------------
               ***  Starting incremental Fock matrix formation  ***
    1    -1896.3389915065963578     0.00e+00  2.06e-03  1.09e-01  2.76e-01  0.700  77.4
    2    -1896.6816194752636875    -3.43e-01  1.36e-03  6.27e-02  9.97e-02  0.700  34.0
                               ***Turning on AO-DIIS***
    3    -1896.8110916543837448    -1.29e-01  5.81e-04  1.62e-02  4.32e-02  0.700  33.0
    4    -1896.8921190470300644    -8.10e-02  9.97e-04  2.95e-02  1.95e-02  0.000  29.9
    5    -1897.0706002387696572    -1.78e-01  2.23e-04  7.08e-03  6.67e-03  0.000  32.2
                              *** Initializing SOSCF ***
---------------------------------------S-O-S-C-F--------------------------------------
Iteration    Energy (Eh)           Delta-E    RMSDP     MaxDP     MaxGrad    Time(sec)
--------------------------------------------------------------------------------------
    6    -1897.0718826878355685    -1.28e-03  7.32e-05  2.43e-03  2.73e-03    26.8
               *** Restarting incremental Fock matrix formation ***
    7    -1897.0720126309824991    -1.30e-04  5.42e-05  3.85e-03  3.75e-04    75.2
    8    -1897.0719698662351220     4.28e-05  3.41e-05  3.00e-03  8.68e-04    41.1
    9    -1897.0720302375966639    -6.04e-05  8.48e-06  4.77e-04  6.41e-05    36.9
   10    -1897.0720291358811664     1.10e-06  5.75e-06  3.76e-04  1.45e-04    28.2
   11    -1897.0720306032781082    -1.47e-06  2.34e-06  9.93e-05  2.36e-05    25.6
   12    -1897.0720305935019496     9.78e-09  1.43e-06  6.43e-05  3.23e-05    22.1
                 **** Energy Check signals convergence ****

               *****************************************************
               *                     SUCCESS                       *
               *           SCF CONVERGED AFTER  12 CYCLES          *
               *****************************************************

Recomputing exchange energy using gridx3       ... done (  127.068 sec)
Old exchange energy                            :    -43.482500517 Eh
New exchange energy                            :    -43.482589513 Eh
Exchange energy change after final integration :     -0.000088996 Eh
Total energy after final integration           :  -1897.072119589 Eh
             **** ENERGY FILE WAS UPDATED (/home/nmrbox/aojoawo/Documents/ERDOS/inputs/CHEMBL4587626.en.tmp) ****

----------------
TOTAL SCF ENERGY
----------------

Total Energy       :      -1897.07211958938001 Eh          -51621.95678 eV

Components:
Nuclear Repulsion  :       3343.77260689169088 Eh           90988.67841 eV
Electronic Energy  :      -5240.84463748519192 Eh         -142610.63277 eV
One Electron Energy:      -9244.84385463374747 Eh         -251564.99060 eV
Two Electron Energy:       4003.99921714855509 Eh          108954.35783 eV

Virial components:
Potential Energy   :      -3784.43867526362283 Eh         -102979.81175 eV
Kinetic Energy     :       1887.36655567424305 Eh           51357.85496 eV
Virial Ratio       :          2.00514238417861

DFT components:
N(Alpha)           :      119.999942295781 electrons
N(Beta)            :      119.999942295781 electrons
N(Total)           :      239.999884591563 electrons
E(X)               :     -172.758424733969 Eh       
E(C)               :       -9.838754765346 Eh       
E(XC)              :     -182.597179499314 Eh       

---------------
SCF CONVERGENCE
---------------

  Last Energy change         ...   -9.7762e-09  Tolerance :   1.0000e-06
  Last MAX-Density change    ...    6.4312e-05  Tolerance :   1.0000e-05
  Last RMS-Density change    ...    1.4322e-06  Tolerance :   1.0000e-06
  Last DIIS Error            ...    2.7287e-03  Tolerance :   1.0000e-06
  Last Orbital Gradient      ...    3.2272e-05  Tolerance :   5.0000e-05
  Last Orbital Rotation      ...    6.6139e-05  Tolerance :   5.0000e-05


----------------
ORBITAL ENERGIES
----------------

  NO   OCC          E(Eh)            E(eV) 
   0   2.0000    -101.527962     -2762.7163 
   1   2.0000     -24.705402      -672.2682 
   2   2.0000     -19.182666      -521.9869 
   3   2.0000     -19.133243      -520.6420 
   4   2.0000     -19.127391      -520.4828 
   5   2.0000     -14.340794      -390.2328 
   6   2.0000     -14.330520      -389.9533 
   7   2.0000     -10.326371      -280.9949 
   8   2.0000     -10.299881      -280.2740 
   9   2.0000     -10.277289      -279.6592 
  10   2.0000     -10.260602      -279.2052 
  11   2.0000     -10.234356      -278.4910 
  12   2.0000     -10.234208      -278.4870 
  13   2.0000     -10.228880      -278.3420 
  14   2.0000     -10.227295      -278.2988 
  15   2.0000     -10.224525      -278.2235 
  16   2.0000     -10.214707      -277.9563 
  17   2.0000     -10.209827      -277.8235 
  18   2.0000     -10.207062      -277.7483 
  19   2.0000     -10.206372      -277.7295 
  20   2.0000     -10.204776      -277.6861 
  21   2.0000     -10.204134      -277.6686 
  22   2.0000     -10.203888      -277.6619 
  23   2.0000     -10.202254      -277.6175 
  24   2.0000     -10.201164      -277.5878 
  25   2.0000     -10.200894      -277.5804 
  26   2.0000     -10.200526      -277.5704 
  27   2.0000     -10.200176      -277.5609 
  28   2.0000     -10.200166      -277.5606 
  29   2.0000     -10.198783      -277.5230 
  30   2.0000     -10.198672      -277.5200 
  31   2.0000     -10.192772      -277.3594 
  32   2.0000     -10.179329      -276.9936 
  33   2.0000      -9.459631      -257.4096 
  34   2.0000      -7.222962      -196.5468 
  35   2.0000      -7.213315      -196.2843 
  36   2.0000      -7.212548      -196.2634 
  37   2.0000      -1.219075       -33.1727 
  38   2.0000      -1.069766       -29.1098 
  39   2.0000      -1.026486       -27.9321 
  40   2.0000      -0.984043       -26.7772 
  41   2.0000      -0.942295       -25.6411 
  42   2.0000      -0.927780       -25.2462 
  43   2.0000      -0.895021       -24.3548 
  44   2.0000      -0.868266       -23.6267 
  45   2.0000      -0.856500       -23.3065 
  46   2.0000      -0.843811       -22.9613 
  47   2.0000      -0.821003       -22.3406 
  48   2.0000      -0.793664       -21.5967 
  49   2.0000      -0.778314       -21.1790 
  50   2.0000      -0.769881       -20.9495 
  51   2.0000      -0.764201       -20.7950 
  52   2.0000      -0.759202       -20.6589 
  53   2.0000      -0.747498       -20.3404 
  54   2.0000      -0.729594       -19.8533 
  55   2.0000      -0.692661       -18.8483 
  56   2.0000      -0.668548       -18.1921 
  57   2.0000      -0.664644       -18.0859 
  58   2.0000      -0.651604       -17.7310 
  59   2.0000      -0.636612       -17.3231 
  60   2.0000      -0.628421       -17.1002 
  61   2.0000      -0.614427       -16.7194 
  62   2.0000      -0.612135       -16.6570 
  63   2.0000      -0.598066       -16.2742 
  64   2.0000      -0.595986       -16.2176 
  65   2.0000      -0.565085       -15.3767 
  66   2.0000      -0.547532       -14.8991 
  67   2.0000      -0.538912       -14.6645 
  68   2.0000      -0.531788       -14.4707 
  69   2.0000      -0.520984       -14.1767 
  70   2.0000      -0.512863       -13.9557 
  71   2.0000      -0.502837       -13.6829 
  72   2.0000      -0.498156       -13.5555 
  73   2.0000      -0.493152       -13.4193 
  74   2.0000      -0.484410       -13.1815 
  75   2.0000      -0.476426       -12.9642 
  76   2.0000      -0.468191       -12.7401 
  77   2.0000      -0.462292       -12.5796 
  78   2.0000      -0.460954       -12.5432 
  79   2.0000      -0.458495       -12.4763 
  80   2.0000      -0.453904       -12.3514 
  81   2.0000      -0.449118       -12.2211 
  82   2.0000      -0.445992       -12.1361 
  83   2.0000      -0.440453       -11.9853 
  84   2.0000      -0.437889       -11.9156 
  85   2.0000      -0.432228       -11.7615 
  86   2.0000      -0.428848       -11.6696 
  87   2.0000      -0.423313       -11.5189 
  88   2.0000      -0.419739       -11.4217 
  89   2.0000      -0.415868       -11.3163 
  90   2.0000      -0.414040       -11.2666 
  91   2.0000      -0.404194       -10.9987 
  92   2.0000      -0.400045       -10.8858 
  93   2.0000      -0.395299       -10.7566 
  94   2.0000      -0.391324       -10.6485 
  95   2.0000      -0.385250       -10.4832 
  96   2.0000      -0.377272       -10.2661 
  97   2.0000      -0.371462       -10.1080 
  98   2.0000      -0.370535       -10.0828 
  99   2.0000      -0.365320        -9.9409 
 100   2.0000      -0.363195        -9.8831 
 101   2.0000      -0.362137        -9.8543 
 102   2.0000      -0.359720        -9.7885 
 103   2.0000      -0.352263        -9.5856 
 104   2.0000      -0.345132        -9.3915 
 105   2.0000      -0.338617        -9.2142 
 106   2.0000      -0.331430        -9.0187 
 107   2.0000      -0.311630        -8.4799 
 108   2.0000      -0.310478        -8.4485 
 109   2.0000      -0.296752        -8.0750 
 110   2.0000      -0.274574        -7.4715 
 111   2.0000      -0.271152        -7.3784 
 112   2.0000      -0.267937        -7.2909 
 113   2.0000      -0.262366        -7.1393 
 114   2.0000      -0.258385        -7.0310 
 115   2.0000      -0.254055        -6.9132 
 116   2.0000      -0.250762        -6.8236 
 117   2.0000      -0.246438        -6.7059 
 118   2.0000      -0.235339        -6.4039 
 119   2.0000      -0.218316        -5.9407 
 120   0.0000      -0.079973        -2.1762 
 121   0.0000      -0.057933        -1.5764 
 122   0.0000      -0.049957        -1.3594 
 123   0.0000      -0.022972        -0.6251 
 124   0.0000      -0.020201        -0.5497 
 125   0.0000      -0.009214        -0.2507 
 126   0.0000       0.007266         0.1977 
 127   0.0000       0.016891         0.4596 
 128   0.0000       0.022623         0.6156 
 129   0.0000       0.038293         1.0420 
 130   0.0000       0.057690         1.5698 
*Only the first 10 virtual orbitals were printed.

                    ********************************
                    * MULLIKEN POPULATION ANALYSIS *
                    ********************************

-----------------------
MULLIKEN ATOMIC CHARGES
-----------------------
   0 C :   -0.457415
   1 C :   -0.073952
   2 C :    0.171236
   3 C :   -0.177170
   4 C :   -0.205514
   5 C :    0.406762
   6 F :   -0.317620
   7 C :   -0.211835
   8 C :   -0.172508
   9 N :   -0.409610
  10 C :   -0.270144
  11 C :    0.189347
  12 C :   -0.138740
  13 C :   -0.135313
  14 C :   -0.107078
  15 Cl:    0.021297
  16 C :    0.095064
  17 C :    0.503904
  18 O :   -0.451495
  19 O :   -0.606063
  20 C :   -0.190960
  21 C :    0.435993
  22 O :   -0.428571
  23 C :    0.051043
  24 C :   -0.015981
  25 N :   -0.430156
  26 C :    0.216242
  27 C :   -0.143350
  28 C :   -0.127004
  29 C :   -0.131338
  30 C :   -0.200059
  31 C :    0.159616
  32 C :   -0.202060
  33 H :    0.140242
  34 H :    0.156009
  35 H :    0.178665
  36 H :    0.165223
  37 H :    0.147148
  38 H :    0.150094
  39 H :    0.147038
  40 H :    0.136580
  41 H :    0.153271
  42 H :    0.157219
  43 H :    0.146797
  44 H :    0.161762
  45 H :    0.428601
  46 H :    0.163268
  47 H :    0.179707
  48 H :    0.148814
  49 H :    0.141349
  50 H :    0.138494
  51 H :    0.142038
  52 H :    0.171113
Sum of atomic charges:   -0.0000000

--------------------------------
MULLIKEN REDUCED ORBITAL CHARGES
--------------------------------
  0 C s       :     3.313058  s :     3.313058
      pz      :     1.071365  p :     3.110701
      px      :     0.964293
      py      :     1.075043
      dz2     :     0.007012  d :     0.033656
      dxz     :     0.006173
      dyz     :     0.007136
      dx2y2   :     0.007363
      dxy     :     0.005972

  1 C s       :     3.222514  s :     3.222514
      pz      :     1.019445  p :     2.790555
      px      :     0.930633
      py      :     0.840477
      dz2     :     0.009799  d :     0.060882
      dxz     :     0.007516
      dyz     :     0.014940
      dx2y2   :     0.014868
      dxy     :     0.013759

  2 C s       :     3.128627  s :     3.128627
      pz      :     0.837080  p :     2.660758
      px      :     0.915337
      py      :     0.908341
      dz2     :     0.010938  d :     0.039379
      dxz     :     0.009020
      dyz     :     0.008723
      dx2y2   :     0.005236
      dxy     :     0.005462

  3 C s       :     3.204528  s :     3.204528
      pz      :     0.988762  p :     2.936329
      px      :     0.965033
      py      :     0.982535
      dz2     :     0.011715  d :     0.036313
      dxz     :     0.007105
      dyz     :     0.005855
      dx2y2   :     0.006250
      dxy     :     0.005388

  4 C s       :     3.204722  s :     3.204722
      pz      :     0.943796  p :     2.966130
      px      :     1.011747
      py      :     1.010587
      dz2     :     0.010477  d :     0.034663
      dxz     :     0.007838
      dyz     :     0.007359
      dx2y2   :     0.002602
      dxy     :     0.006388

  5 C s       :     3.082285  s :     3.082285
      pz      :     0.749055  p :     2.438314
      px      :     0.818127
      py      :     0.871132
      dz2     :     0.017233  d :     0.072639
      dxz     :     0.018704
      dyz     :     0.016140
      dx2y2   :     0.010885
      dxy     :     0.009676

  6 F s       :     3.971191  s :     3.971191
      pz      :     1.744488  p :     5.329295
      px      :     1.768701
      py      :     1.816106
      dz2     :     0.003294  d :     0.017134
      dxz     :     0.004473
      dyz     :     0.003646
      dx2y2   :     0.002724
      dxy     :     0.002997

  7 C s       :     3.204935  s :     3.204935
      pz      :     0.989627  p :     2.972128
      px      :     0.985343
      py      :     0.997157
      dz2     :     0.011825  d :     0.034773
      dxz     :     0.005959
      dyz     :     0.005245
      dx2y2   :     0.006173
      dxy     :     0.005571

  8 C s       :     3.199637  s :     3.199637
      pz      :     0.956110  p :     2.936681
      px      :     0.986699
      py      :     0.993871
      dz2     :     0.009518  d :     0.036190
      dxz     :     0.009422
      dyz     :     0.008594
      dx2y2   :     0.002473
      dxy     :     0.006183

  9 N s       :     3.528348  s :     3.528348
      pz      :     1.274477  p :     3.848908
      px      :     1.456703
      py      :     1.117729
      dz2     :     0.005621  d :     0.032354
      dxz     :     0.006033
      dyz     :     0.008168
      dx2y2   :     0.006989
      dxy     :     0.005544

 10 C s       :     3.266742  s :     3.266742
      pz      :     0.965382  p :     2.947526
      px      :     1.081227
      py      :     0.900918
      dz2     :     0.010114  d :     0.055876
      dxz     :     0.008565
      dyz     :     0.013938
      dx2y2   :     0.009894
      dxy     :     0.013366

 11 C s       :     3.109317  s :     3.109317
      pz      :     0.913159  p :     2.661411
      px      :     0.864621
      py      :     0.883632
      dz2     :     0.005836  d :     0.039925
      dxz     :     0.008057
      dyz     :     0.006231
      dx2y2   :     0.009974
      dxy     :     0.009827

 12 C s       :     3.193787  s :     3.193787
      pz      :     0.958207  p :     2.908546
      px      :     0.987868
      py      :     0.962471
      dz2     :     0.006766  d :     0.036407
      dxz     :     0.005963
      dyz     :     0.005701
      dx2y2   :     0.011182
      dxy     :     0.006795

 13 C s       :     3.197910  s :     3.197910
      pz      :     0.999479  p :     2.902103
      px      :     0.917315
      py      :     0.985309
      dz2     :     0.003952  d :     0.035300
      dxz     :     0.007834
      dyz     :     0.006392
      dx2y2   :     0.008612
      dxy     :     0.008510

 14 C s       :     3.186595  s :     3.186595
      pz      :     0.982818  p :     2.872488
      px      :     0.972662
      py      :     0.917008
      dz2     :     0.007862  d :     0.047995
      dxz     :     0.010126
      dyz     :     0.007420
      dx2y2   :     0.010749
      dxy     :     0.011838

 15 Cls       :     5.923142  s :     5.923142
      pz      :     3.718379  p :    11.026047
      px      :     3.765195
      py      :     3.542473
      dz2     :     0.003477  d :     0.029514
      dxz     :     0.005498
      dyz     :     0.007970
      dx2y2   :     0.004555
      dxy     :     0.008013

 16 C s       :     3.157221  s :     3.157221
      pz      :     0.960105  p :     2.710119
      px      :     0.860892
      py      :     0.889122
      dz2     :     0.006801  d :     0.037596
      dxz     :     0.006683
      dyz     :     0.005823
      dx2y2   :     0.010253
      dxy     :     0.008035

 17 C s       :     3.017414  s :     3.017414
      pz      :     0.805347  p :     2.368255
      px      :     0.878985
      py      :     0.683923
      dz2     :     0.009253  d :     0.110427
      dxz     :     0.010794
      dyz     :     0.020373
      dx2y2   :     0.037015
      dxy     :     0.032992

 18 O s       :     3.878963  s :     3.878963
      pz      :     1.408056  p :     4.547121
      px      :     1.653996
      py      :     1.485069
      dz2     :     0.003765  d :     0.025411
      dxz     :     0.002829
      dyz     :     0.006401
      dx2y2   :     0.005576
      dxy     :     0.006840

 19 O s       :     3.874787  s :     3.874787
      pz      :     1.782773  p :     4.709926
      px      :     1.373217
      py      :     1.553936
      dz2     :     0.003106  d :     0.021351
      dxz     :     0.002360
      dyz     :     0.003733
      dx2y2   :     0.009766
      dxy     :     0.002387

 20 C s       :     3.223469  s :     3.223469
      pz      :     0.992809  p :     2.931510
      px      :     0.967373
      py      :     0.971328
      dz2     :     0.003672  d :     0.035982
      dxz     :     0.008471
      dyz     :     0.006241
      dx2y2   :     0.008081
      dxy     :     0.009516

 21 C s       :     3.066058  s :     3.066058
      pz      :     0.740604  p :     2.397468
      px      :     0.853928
      py      :     0.802936
      dz2     :     0.032878  d :     0.100481
      dxz     :     0.036271
      dyz     :     0.015104
      dx2y2   :     0.009355
      dxy     :     0.006872

 22 O s       :     3.893033  s :     3.893033
      pz      :     1.417376  p :     4.510051
      px      :     1.753024
      py      :     1.339651
      dz2     :     0.008102  d :     0.025487
      dxz     :     0.006667
      dyz     :     0.008176
      dx2y2   :     0.001068
      dxy     :     0.001474

 23 C s       :     3.182834  s :     3.182834
      pz      :     0.841499  p :     2.728759
      px      :     0.878958
      py      :     1.008301
      dz2     :     0.009969  d :     0.037364
      dxz     :     0.011073
      dyz     :     0.005579
      dx2y2   :     0.006317
      dxy     :     0.004425

 24 C s       :     3.177886  s :     3.177886
      pz      :     0.982454  p :     2.785137
      px      :     0.886839
      py      :     0.915844
      dz2     :     0.011437  d :     0.052959
      dxz     :     0.019947
      dyz     :     0.003649
      dx2y2   :     0.008815
      dxy     :     0.009110

 25 N s       :     3.694270  s :     3.694270
      pz      :     1.360431  p :     3.699937
      px      :     1.173924
      py      :     1.165582
      dz2     :     0.010473  d :     0.035949
      dxz     :     0.006617
      dyz     :     0.005423
      dx2y2   :     0.006666
      dxy     :     0.006770

 26 C s       :     3.074888  s :     3.074888
      pz      :     0.847642  p :     2.648551
      px      :     0.861152
      py      :     0.939757
      dz2     :     0.016874  d :     0.060319
      dxz     :     0.018726
      dyz     :     0.008707
      dx2y2   :     0.007920
      dxy     :     0.008091

 27 C s       :     3.208951  s :     3.208951
      pz      :     0.940881  p :     2.899755
      px      :     0.980027
      py      :     0.978847
      dz2     :     0.008341  d :     0.034644
      dxz     :     0.011462
      dyz     :     0.004518
      dx2y2   :     0.005343
      dxy     :     0.004980

 28 C s       :     3.201321  s :     3.201321
      pz      :     0.939980  p :     2.889235
      px      :     0.985290
      py      :     0.963965
      dz2     :     0.010441  d :     0.036448
      dxz     :     0.009708
      dyz     :     0.006012
      dx2y2   :     0.007455
      dxy     :     0.002832

 29 C s       :     3.197487  s :     3.197487
      pz      :     0.967664  p :     2.897754
      px      :     0.949604
      py      :     0.980486
      dz2     :     0.009178  d :     0.036097
      dxz     :     0.012330
      dyz     :     0.003504
      dx2y2   :     0.005415
      dxy     :     0.005670

 30 C s       :     3.209985  s :     3.209985
      pz      :     0.996606  p :     2.953842
      px      :     0.971807
      py      :     0.985429
      dz2     :     0.008195  d :     0.036231
      dxz     :     0.013168
      dyz     :     0.004271
      dx2y2   :     0.004739
      dxy     :     0.005858

 31 C s       :     3.117210  s :     3.117210
      pz      :     0.859440  p :     2.681593
      px      :     0.858964
      py      :     0.963189
      dz2     :     0.010023  d :     0.041581
      dxz     :     0.013044
      dyz     :     0.006261
      dx2y2   :     0.006185
      dxy     :     0.006068

 32 C s       :     3.231340  s :     3.231340
      pz      :     1.003343  p :     2.933912
      px      :     1.001578
      py      :     0.928990
      dz2     :     0.008271  d :     0.036808
      dxz     :     0.012814
      dyz     :     0.004781
      dx2y2   :     0.005065
      dxy     :     0.005877

 33 H s       :     0.859758  s :     0.859758

 34 H s       :     0.843991  s :     0.843991

 35 H s       :     0.821335  s :     0.821335

 36 H s       :     0.834777  s :     0.834777

 37 H s       :     0.852852  s :     0.852852

 38 H s       :     0.849906  s :     0.849906

 39 H s       :     0.852962  s :     0.852962

 40 H s       :     0.863420  s :     0.863420

 41 H s       :     0.846729  s :     0.846729

 42 H s       :     0.842781  s :     0.842781

 43 H s       :     0.853203  s :     0.853203

 44 H s       :     0.838238  s :     0.838238

 45 H s       :     0.571399  s :     0.571399

 46 H s       :     0.836732  s :     0.836732

 47 H s       :     0.820293  s :     0.820293

 48 H s       :     0.851186  s :     0.851186

 49 H s       :     0.858651  s :     0.858651

 50 H s       :     0.861506  s :     0.861506

 51 H s       :     0.857962  s :     0.857962

 52 H s       :     0.828887  s :     0.828887



                     *******************************
                     * LOEWDIN POPULATION ANALYSIS *
                     *******************************

----------------------
LOEWDIN ATOMIC CHARGES
----------------------
   0 C :   -0.358801
   1 C :   -0.047632
   2 C :   -0.035176
   3 C :   -0.125181
   4 C :   -0.154888
   5 C :    0.111941
   6 F :   -0.104145
   7 C :   -0.157584
   8 C :   -0.131183
   9 N :   -0.134095
  10 C :   -0.148307
  11 C :   -0.025853
  12 C :   -0.104398
  13 C :   -0.126482
  14 C :   -0.065353
  15 Cl:    0.054191
  16 C :   -0.058875
  17 C :    0.181391
  18 O :   -0.269388
  19 O :   -0.322507
  20 C :   -0.090290
  21 C :    0.144434
  22 O :   -0.231305
  23 C :   -0.088155
  24 C :   -0.040637
  25 N :   -0.127229
  26 C :    0.021226
  27 C :   -0.114861
  28 C :   -0.114045
  29 C :   -0.126915
  30 C :   -0.113904
  31 C :   -0.033334
  32 C :   -0.072658
  33 H :    0.117673
  34 H :    0.134263
  35 H :    0.143048
  36 H :    0.141579
  37 H :    0.139914
  38 H :    0.145791
  39 H :    0.143990
  40 H :    0.134060
  41 H :    0.126408
  42 H :    0.132299
  43 H :    0.141687
  44 H :    0.149491
  45 H :    0.345638
  46 H :    0.151537
  47 H :    0.151957
  48 H :    0.146637
  49 H :    0.138375
  50 H :    0.136605
  51 H :    0.137418
  52 H :    0.151627

-------------------------------
LOEWDIN REDUCED ORBITAL CHARGES
-------------------------------
  0 C s       :     2.988070  s :     2.988070
      pz      :     1.125038  p :     3.304946
      px      :     1.050298
      py      :     1.129610
      dz2     :     0.013312  d :     0.065786
      dxz     :     0.012348
      dyz     :     0.012850
      dx2y2   :     0.015516
      dxy     :     0.011760

  1 C s       :     2.885524  s :     2.885524
      pz      :     1.069898  p :     3.027894
      px      :     1.023254
      py      :     0.934741
      dz2     :     0.020946  d :     0.134214
      dxz     :     0.016404
      dyz     :     0.032070
      dx2y2   :     0.034532
      dxy     :     0.030262

  2 C s       :     2.885812  s :     2.885812
      pz      :     1.048058  p :     3.051121
      px      :     1.009083
      py      :     0.993980
      dz2     :     0.028849  d :     0.098243
      dxz     :     0.023687
      dyz     :     0.022417
      dx2y2   :     0.010418
      dxy     :     0.012873

  3 C s       :     2.919411  s :     2.919411
      pz      :     1.076064  p :     3.120710
      px      :     1.025468
      py      :     1.019178
      dz2     :     0.025362  d :     0.085060
      dxz     :     0.017884
      dyz     :     0.014095
      dx2y2   :     0.013502
      dxy     :     0.014217

  4 C s       :     2.921812  s :     2.921812
      pz      :     1.055320  p :     3.150965
      px      :     1.052414
      py      :     1.043232
      dz2     :     0.028187  d :     0.082111
      dxz     :     0.019797
      dyz     :     0.017960
      dx2y2   :     0.004470
      dxy     :     0.011696

  5 C s       :     2.865091  s :     2.865091
      pz      :     0.954425  p :     2.843301
      px      :     0.933933
      py      :     0.954944
      dz2     :     0.046912  d :     0.179668
      dxz     :     0.045660
      dyz     :     0.038364
      dx2y2   :     0.023126
      dxy     :     0.025605

  6 F s       :     3.734770  s :     3.734770
      pz      :     1.749287  p :     5.334969
      px      :     1.770641
      py      :     1.815042
      dz2     :     0.006461  d :     0.034405
      dxz     :     0.009072
      dyz     :     0.007390
      dx2y2   :     0.005446
      dxy     :     0.006035

  7 C s       :     2.921380  s :     2.921380
      pz      :     1.080022  p :     3.153889
      px      :     1.039281
      py      :     1.034586
      dz2     :     0.025241  d :     0.082314
      dxz     :     0.015635
      dyz     :     0.012972
      dx2y2   :     0.013339
      dxy     :     0.015128

  8 C s       :     2.916271  s :     2.916271
      pz      :     1.062313  p :     3.130004
      px      :     1.037985
      py      :     1.029706
      dz2     :     0.025543  d :     0.084908
      dxz     :     0.022964
      dyz     :     0.020412
      dx2y2   :     0.004547
      dxy     :     0.011443

  9 N s       :     3.109727  s :     3.109727
      pz      :     1.317318  p :     3.942855
      px      :     1.459792
      py      :     1.165744
      dz2     :     0.014609  d :     0.081512
      dxz     :     0.014847
      dyz     :     0.021278
      dx2y2   :     0.017203
      dxy     :     0.013575

 10 C s       :     2.920403  s :     2.920403
      pz      :     1.030911  p :     3.110545
      px      :     1.101722
      py      :     0.977912
      dz2     :     0.020506  d :     0.117359
      dxz     :     0.016785
      dyz     :     0.031467
      dx2y2   :     0.020244
      dxy     :     0.028357

 11 C s       :     2.878559  s :     2.878559
      pz      :     0.998118  p :     3.047182
      px      :     1.051391
      py      :     0.997674
      dz2     :     0.013267  d :     0.100112
      dxz     :     0.021155
      dyz     :     0.014529
      dx2y2   :     0.025517
      dxy     :     0.025644

 12 C s       :     2.917869  s :     2.917869
      pz      :     1.001983  p :     3.101114
      px      :     1.074831
      py      :     1.024300
      dz2     :     0.014085  d :     0.085416
      dxz     :     0.013833
      dyz     :     0.015431
      dx2y2   :     0.024683
      dxy     :     0.017384

 13 C s       :     2.919485  s :     2.919485
      pz      :     1.028279  p :     3.122661
      px      :     1.049401
      py      :     1.044981
      dz2     :     0.009149  d :     0.084335
      dxz     :     0.018247
      dyz     :     0.012357
      dx2y2   :     0.022647
      dxy     :     0.021936

 14 C s       :     2.916848  s :     2.916848
      pz      :     1.015336  p :     3.037213
      px      :     1.049971
      py      :     0.971906
      dz2     :     0.016679  d :     0.111293
      dxz     :     0.023798
      dyz     :     0.016627
      dx2y2   :     0.026402
      dxy     :     0.027786

 15 Cls       :     5.805180  s :     5.805180
      pz      :     3.744194  p :    11.107595
      px      :     3.779989
      py      :     3.583412
      dz2     :     0.003687  d :     0.033035
      dxz     :     0.006218
      dyz     :     0.009100
      dx2y2   :     0.004849
      dxy     :     0.009181

 16 C s       :     2.879711  s :     2.879711
      pz      :     1.035035  p :     3.081694
      px      :     1.008568
      py      :     1.038091
      dz2     :     0.015430  d :     0.097470
      dxz     :     0.017467
      dyz     :     0.015969
      dx2y2   :     0.027336
      dxy     :     0.021268

 17 C s       :     2.864042  s :     2.864042
      pz      :     0.821092  p :     2.701437
      px      :     0.975273
      py      :     0.905071
      dz2     :     0.020816  d :     0.253131
      dxz     :     0.022578
      dyz     :     0.043814
      dx2y2   :     0.088220
      dxy     :     0.077702

 18 O s       :     3.593645  s :     3.593645
      pz      :     1.411276  p :     4.626012
      px      :     1.670979
      py      :     1.543757
      dz2     :     0.006527  d :     0.049731
      dxz     :     0.005145
      dyz     :     0.011508
      dx2y2   :     0.010665
      dxy     :     0.015885

 19 O s       :     3.544431  s :     3.544431
      pz      :     1.767921  p :     4.735533
      px      :     1.390432
      py      :     1.577180
      dz2     :     0.005528  d :     0.042542
      dxz     :     0.004180
      dyz     :     0.005767
      dx2y2   :     0.018784
      dxy     :     0.008282

 20 C s       :     2.919158  s :     2.919158
      pz      :     1.017424  p :     3.087763
      px      :     1.050938
      py      :     1.019400
      dz2     :     0.008446  d :     0.083369
      dxz     :     0.018879
      dyz     :     0.011841
      dx2y2   :     0.020637
      dxy     :     0.023567

 21 C s       :     2.869617  s :     2.869617
      pz      :     0.961659  p :     2.751646
      px      :     0.992009
      py      :     0.797979
      dz2     :     0.081620  d :     0.234302
      dxz     :     0.087936
      dyz     :     0.030387
      dx2y2   :     0.021126
      dxy     :     0.013233

 22 O s       :     3.591758  s :     3.591758
      pz      :     1.495961  p :     4.589199
      px      :     1.758761
      py      :     1.334477
      dz2     :     0.019890  d :     0.050349
      dxz     :     0.015327
      dyz     :     0.011335
      dx2y2   :     0.001805
      dxy     :     0.001991

 23 C s       :     2.890183  s :     2.890183
      pz      :     1.062449  p :     3.098857
      px      :     1.026674
      py      :     1.009735
      dz2     :     0.027977  d :     0.099115
      dxz     :     0.031849
      dyz     :     0.012976
      dx2y2   :     0.016345
      dxy     :     0.009968

 24 C s       :     2.920943  s :     2.920943
      pz      :     1.071632  p :     2.998488
      px      :     1.006291
      py      :     0.920565
      dz2     :     0.024850  d :     0.121207
      dxz     :     0.048219
      dyz     :     0.006655
      dx2y2   :     0.022290
      dxy     :     0.019193

 25 N s       :     3.240678  s :     3.240678
      pz      :     1.389658  p :     3.807203
      px      :     1.265829
      py      :     1.151716
      dz2     :     0.022797  d :     0.079347
      dxz     :     0.018485
      dyz     :     0.009375
      dx2y2   :     0.015620
      dxy     :     0.013071

 26 C s       :     2.846899  s :     2.846899
      pz      :     1.000766  p :     2.982620
      px      :     1.040694
      py      :     0.941159
      dz2     :     0.044085  d :     0.149256
      dxz     :     0.049279
      dyz     :     0.019050
      dx2y2   :     0.019593
      dxy     :     0.017248

 27 C s       :     2.922039  s :     2.922039
      pz      :     1.068259  p :     3.110981
      px      :     1.059005
      py      :     0.983717
      dz2     :     0.020288  d :     0.081841
      dxz     :     0.029239
      dyz     :     0.008566
      dx2y2   :     0.012980
      dxy     :     0.010767

 28 C s       :     2.920591  s :     2.920591
      pz      :     1.063709  p :     3.108282
      px      :     1.076345
      py      :     0.968227
      dz2     :     0.026944  d :     0.085173
      dxz     :     0.025395
      dyz     :     0.014074
      dx2y2   :     0.013356
      dxy     :     0.005404

 29 C s       :     2.918763  s :     2.918763
      pz      :     1.067261  p :     3.123293
      px      :     1.070864
      py      :     0.985168
      dz2     :     0.020946  d :     0.084859
      dxz     :     0.030190
      dyz     :     0.006775
      dx2y2   :     0.014033
      dxy     :     0.012914

 30 C s       :     2.918425  s :     2.918425
      pz      :     1.057504  p :     3.111029
      px      :     1.070067
      py      :     0.983458
      dz2     :     0.019932  d :     0.084450
      dxz     :     0.031621
      dyz     :     0.008335
      dx2y2   :     0.012409
      dxy     :     0.012154

 31 C s       :     2.856057  s :     2.856057
      pz      :     1.048106  p :     3.067966
      px      :     1.047934
      py      :     0.971926
      dz2     :     0.029018  d :     0.109310
      dxz     :     0.036199
      dyz     :     0.014253
      dx2y2   :     0.016269
      dxy     :     0.013572

 32 C s       :     2.922571  s :     2.922571
      pz      :     1.066845  p :     3.065360
      px      :     1.067640
      py      :     0.930876
      dz2     :     0.019626  d :     0.084726
      dxz     :     0.031506
      dyz     :     0.009125
      dx2y2   :     0.012260
      dxy     :     0.012209

 33 H s       :     0.882327  s :     0.882327

 34 H s       :     0.865737  s :     0.865737

 35 H s       :     0.856952  s :     0.856952

 36 H s       :     0.858421  s :     0.858421

 37 H s       :     0.860086  s :     0.860086

 38 H s       :     0.854209  s :     0.854209

 39 H s       :     0.856010  s :     0.856010

 40 H s       :     0.865940  s :     0.865940

 41 H s       :     0.873592  s :     0.873592

 42 H s       :     0.867701  s :     0.867701

 43 H s       :     0.858313  s :     0.858313

 44 H s       :     0.850509  s :     0.850509

 45 H s       :     0.654362  s :     0.654362

 46 H s       :     0.848463  s :     0.848463

 47 H s       :     0.848043  s :     0.848043

 48 H s       :     0.853363  s :     0.853363

 49 H s       :     0.861625  s :     0.861625

 50 H s       :     0.863395  s :     0.863395

 51 H s       :     0.862582  s :     0.862582

 52 H s       :     0.848373  s :     0.848373



                      *****************************
                      * MAYER POPULATION ANALYSIS *
                      *****************************

  NA   - Mulliken gross atomic population
  ZA   - Total nuclear charge
  QA   - Mulliken gross atomic charge
  VA   - Mayer's total valence
  BVA  - Mayer's bonded valence
  FA   - Mayer's free valence

  ATOM       NA         ZA         QA         VA         BVA        FA
  0 C      6.4574     6.0000    -0.4574     3.8220     3.8220    -0.0000
  1 C      6.0740     6.0000    -0.0740     3.9099     3.9099     0.0000
  2 C      5.8288     6.0000     0.1712     3.8638     3.8638     0.0000
  3 C      6.1772     6.0000    -0.1772     3.9249     3.9249     0.0000
  4 C      6.2055     6.0000    -0.2055     3.8808     3.8808    -0.0000
  5 C      5.5932     6.0000     0.4068     3.8329     3.8329    -0.0000
  6 F      9.3176     9.0000    -0.3176     1.0452     1.0452     0.0000
  7 C      6.2118     6.0000    -0.2118     3.8874     3.8874    -0.0000
  8 C      6.1725     6.0000    -0.1725     3.9134     3.9134    -0.0000
  9 N      7.4096     7.0000    -0.4096     2.9244     2.9244    -0.0000
 10 C      6.2701     6.0000    -0.2701     3.8475     3.8475     0.0000
 11 C      5.8107     6.0000     0.1893     3.8609     3.8609    -0.0000
 12 C      6.1387     6.0000    -0.1387     3.9291     3.9291    -0.0000
 13 C      6.1353     6.0000    -0.1353     3.9163     3.9163    -0.0000
 14 C      6.1071     6.0000    -0.1071     3.9386     3.9386    -0.0000
 15 Cl    16.9787    17.0000     0.0213     1.1489     1.1489     0.0000
 16 C      5.9049     6.0000     0.0951     3.8623     3.8623     0.0000
 17 C      5.4961     6.0000     0.5039     3.9460     3.9460     0.0000
 18 O      8.4515     8.0000    -0.4515     2.0539     2.0539     0.0000
 19 O      8.6061     8.0000    -0.6061     1.8758     1.8758     0.0000
 20 C      6.1910     6.0000    -0.1910     3.9270     3.9270     0.0000
 21 C      5.5640     6.0000     0.4360     3.9547     3.9547    -0.0000
 22 O      8.4286     8.0000    -0.4286     2.0543     2.0543    -0.0000
 23 C      5.9490     6.0000     0.0510     3.8136     3.8136    -0.0000
 24 C      6.0160     6.0000    -0.0160     3.8623     3.8623    -0.0000
 25 N      7.4302     7.0000    -0.4302     2.9469     2.9469    -0.0000
 26 C      5.7838     6.0000     0.2162     3.9720     3.9720    -0.0000
 27 C      6.1433     6.0000    -0.1433     3.8835     3.8835     0.0000
 28 C      6.1270     6.0000    -0.1270     3.9216     3.9216     0.0000
 29 C      6.1313     6.0000    -0.1313     3.9229     3.9229    -0.0000
 30 C      6.2001     6.0000    -0.2001     3.8967     3.8967     0.0000
 31 C      5.8404     6.0000     0.1596     3.9670     3.9670    -0.0000
 32 C      6.2021     6.0000    -0.2021     3.8187     3.8187    -0.0000
 33 H      0.8598     1.0000     0.1402     0.9403     0.9403     0.0000
 34 H      0.8440     1.0000     0.1560     0.9358     0.9358    -0.0000
 35 H      0.8213     1.0000     0.1787     0.9331     0.9331    -0.0000
 36 H      0.8348     1.0000     0.1652     0.9345     0.9345     0.0000
 37 H      0.8529     1.0000     0.1471     0.9381     0.9381     0.0000
 38 H      0.8499     1.0000     0.1501     0.9354     0.9354    -0.0000
 39 H      0.8530     1.0000     0.1470     0.9361     0.9361    -0.0000
 40 H      0.8634     1.0000     0.1366     0.9412     0.9412    -0.0000
 41 H      0.8467     1.0000     0.1533     0.9339     0.9339    -0.0000
 42 H      0.8428     1.0000     0.1572     0.9397     0.9397     0.0000
 43 H      0.8532     1.0000     0.1468     0.9409     0.9409     0.0000
 44 H      0.8382     1.0000     0.1618     0.9365     0.9365     0.0000
 45 H      0.5714     1.0000     0.4286     0.8004     0.8004     0.0000
 46 H      0.8367     1.0000     0.1633     0.9483     0.9483    -0.0000
 47 H      0.8203     1.0000     0.1797     0.9380     0.9380    -0.0000
 48 H      0.8512     1.0000     0.1488     0.9411     0.9411     0.0000
 49 H      0.8587     1.0000     0.1413     0.9354     0.9354     0.0000
 50 H      0.8615     1.0000     0.1385     0.9365     0.9365    -0.0000
 51 H      0.8580     1.0000     0.1420     0.9381     0.9381    -0.0000
 52 H      0.8289     1.0000     0.1711     0.9388     0.9388     0.0000

  Mayer bond orders larger than 0.100000
B(  0-C ,  1-C ) :   1.0015 B(  0-C , 33-H ) :   0.9348 B(  0-C , 34-H ) :   0.9418 
B(  0-C , 35-H ) :   0.9362 B(  1-C ,  2-C ) :   0.9378 B(  1-C ,  9-N ) :   0.9574 
B(  1-C , 36-H ) :   0.9167 B(  2-C ,  3-C ) :   1.4156 B(  2-C ,  8-C ) :   1.4102 
B(  3-C ,  4-C ) :   1.4203 B(  3-C , 37-H ) :   0.9215 B(  4-C ,  5-C ) :   1.3933 
B(  4-C , 38-H ) :   0.9195 B(  5-C ,  6-F ) :   0.9179 B(  5-C ,  7-C ) :   1.3921 
B(  7-C ,  8-C ) :   1.4224 B(  7-C , 39-H ) :   0.9204 B(  8-C , 40-H ) :   0.9198 
B(  9-N , 10-C ) :   0.9592 B(  9-N , 21-C ) :   0.9844 B( 10-C , 11-C ) :   0.9365 
B( 10-C , 41-H ) :   0.9186 B( 10-C , 42-H ) :   0.9241 B( 11-C , 12-C ) :   1.4092 
B( 11-C , 20-C ) :   1.4168 B( 12-C , 13-C ) :   1.4449 B( 12-C , 43-H ) :   0.9175 
B( 13-C , 14-C ) :   1.3981 B( 13-C , 44-H ) :   0.9207 B( 14-C , 15-Cl) :   1.0588 
B( 14-C , 16-C ) :   1.3388 B( 16-C , 17-C ) :   0.9877 B( 16-C , 20-C ) :   1.3913 
B( 17-C , 18-O ) :   1.8516 B( 17-C , 19-O ) :   1.0284 B( 19-O , 45-H ) :   0.7441 
B( 20-C , 46-H ) :   0.9025 B( 21-C , 22-O ) :   1.8633 B( 21-C , 23-C ) :   0.9850 
B( 23-C , 24-C ) :   1.2517 B( 23-C , 32-C ) :   1.4153 B( 24-C , 25-N ) :   1.5064 
B( 24-C , 47-H ) :   0.9155 B( 25-N , 26-C ) :   1.2439 B( 26-C , 27-C ) :   1.3147 
B( 26-C , 31-C ) :   1.2476 B( 27-C , 28-C ) :   1.5086 B( 27-C , 30-C ) :   0.1059 
B( 27-C , 48-H ) :   0.9165 B( 28-C , 29-C ) :   1.3481 B( 28-C , 49-H ) :   0.9287 
B( 29-C , 30-C ) :   1.5131 B( 29-C , 50-H ) :   0.9291 B( 30-C , 31-C ) :   1.2781 
B( 30-C , 51-H ) :   0.9220 B( 31-C , 32-C ) :   1.2826 B( 32-C , 52-H ) :   0.8993 


-------
TIMINGS
-------

Total SCF time: 0 days 0 hours 9 min 50 sec 

Total time                  ....     590.079 sec
Sum of individual times     ....     589.561 sec  ( 99.9%)

SCF preparation             ....       0.354 sec  (  0.1%)
Fock matrix formation       ....     586.380 sec  ( 99.4%)
  Startup                   ....       0.109 sec  (  0.0% of F)
  Split-RI-J                ....      78.932 sec  ( 13.5% of F)
  Chain of spheres X        ....     453.832 sec  ( 77.4% of F)
  XC integration            ....      52.304 sec  (  8.9% of F)
    XC Preparation          ....       0.000 sec  (  0.0% of XC)
    Basis function eval.    ....      21.062 sec  ( 40.3% of XC)
    Density eval.           ....      13.175 sec  ( 25.2% of XC)
    XC-Functional eval.     ....       2.404 sec  (  4.6% of XC)
    XC-Potential eval.      ....      13.458 sec  ( 25.7% of XC)
Diagonalization             ....       0.000 sec  (  0.0%)
Density matrix formation    ....       0.444 sec  (  0.1%)
Total Energy calculation    ....       0.105 sec  (  0.0%)
Population analysis         ....       0.102 sec  (  0.0%)
Orbital Transformation      ....       0.324 sec  (  0.1%)
Orbital Orthonormalization  ....       0.000 sec  (  0.0%)
DIIS solution               ....       1.134 sec  (  0.2%)
SOSCF solution              ....       0.718 sec  (  0.1%)
Finished LeanSCF after 590.2 sec

Maximum memory used throughout the entire LEANSCF-calculation: 88.9 MB

-------------------------   --------------------
FINAL SINGLE POINT ENERGY     -1897.072119589380
-------------------------   --------------------


------------------------------------------------------------------------------
                              ORCA PROPERTY CALCULATIONS
------------------------------------------------------------------------------

GBWName                                 ... /home/nmrbox/aojoawo/Documents/ERDOS/inputs/CHEMBL4587626.gbw
Number of atoms                         ...     53
Number of basis functions               ...    506
Max core memory                         ...   1024 MB

Electric properties:
Dipole moment                           ... YES
Quadrupole moment                       ...  NO
Static polarizability (Dipole/Dipole)   ...  NO
Static polarizability (Dipole/Quad.)    ...  NO
Static polarizability (Quad./Quad.)     ...  NO
Static polarizability (Velocity)        ...  NO

Atomic electric properties:
Dipole moment                           ...  NO
Quadrupole moment                       ...  NO
Static polarizability                   ...  NO

Choice of electric origin               ... Center of mass
Position of electric origin             ...    -0.623339    -0.715223     0.419740

General magnetic properties:
Magnetizability                         ...  NO

EPR properties:
g-Tensor (aka g-matrix)                 ...  NO
Zero-Field splitting spin-orbit         ...  NO
Zero-field splitting spin-spin          ...  NO
Hyperfine couplings                     ...  NO (   0 nuclei)
Quadrupole couplings                    ...  NO (   0 nuclei)
Contact density                         ...  NO (   0 nuclei)

NMR properties:
Chemical shifts                         ...  NO (   0 nuclei)
Spin-rotation constants                 ...  NO (   0 nuclei)
Spin-spin couplings                     ...  NO (   0 nuclei,    0 pairs)

Choice of magnetic origin               ... GIAO
Position of magnetic origin             ...     0.000000     0.000000     0.000000

Properties with geometric perturbations:
SCF Hessian                             ...  NO
IR spectrum                             ...  NO
VCD spectrum                            ...  NO
X-ray spectroscopy properties:
SCF XES/XAS/RIXS spectra                ...  NO


-------------
DIPOLE MOMENT
-------------

Method             : SCF
Type of density    : Electron Density
Multiplicity       :   1
Irrep              :   0
Energy             : -1897.0721195893800086 Eh
Relativity type    : 
Basis              : AO
                                X                 Y                 Z
Electronic contribution:    -10.299779498     -14.135811017       6.615612040
Nuclear contribution   :     11.173551981      14.154222294      -8.177836840
                        -----------------------------------------
Total Dipole Moment    :      0.873772483       0.018411278      -1.562224800
                        -----------------------------------------
Magnitude (a.u.)       :      1.790073644
Magnitude (Debye)      :      4.550005609



--------------------
Rotational spectrum 
--------------------
 
Rotational constants in cm-1:             0.005957             0.002252             0.001801 
Rotational constants in MHz :           178.587058            67.511383            53.994506 

Dipole components along the rotational axes: 
x,y,z [a.u.] :    -1.028280    -0.306973     1.432750 
x,y,z [Debye]:    -2.613679    -0.780262     3.641761 

 

Dipole moment calculation done in   0.0 sec 

Maximum memory used throughout the entire PROP-calculation: 43.3 MB

--------------------------------
SUGGESTED CITATIONS FOR THIS RUN
--------------------------------

Below you find a list of papers that are relevant to this ORCA run
We neither can nor want to force you to cite these papers, but we appreciate if you do
You receive ORCA, which is the product of decades of hard work by many enthusiastic individuals, for free
The only thing we kindly ask in return is that you cite our papers,
We deeply appreciate it, if you show your appreciation for ORCA by not just citing the generic ORCA reference.

Please note that relegating all ORCA citations to the supporting information does *not* help us.
SI sections are not indexed - citations you put there will not count into any citation statistics
But we need these citations in order to attract the funding resources that allow us to do what we are doing

Therefore, if you are a happy ORCA user, please consider citing a few of the papers listed below in the main body of your paper

In addition to the list printed below, the program has created the file /home/nmrbox/aojoawo/Documents/ERDOS/inputs/CHEMBL4587626.bibtex that contains the list in bibtex format
You can import this file easily into all common literature databanks and citation aid programs


List of essential papers. We consider these as the minimum necessary citations

  1. Neese,F.
     Software update: the ORCA program system, version 5.0
     WIRES Comput. Molec. Sci., 2022 12(1)e1606
     doi.org/10.1002/wcms.1606

List of papers to cite with high priority. The work reported in these papers was absolutely
necessary for this run to complete.
Our perspective: the developers of density functionals and basis sets usually get cited in chemistry papers
Good! But without the algorithms to do something with them, the functionals or basis sets would not do anything.
Hence, in our opinion, the algorithm design and method developments papers are equally worthy of getting cited

  1. Neese,F.
     An improvement of the resolution of the identity approximation for the formation of the Coulomb matrix
     J. Comp. Chem., 2003 24(14)1740-1747
     doi.org/10.1002/jcc.10318
  2. Neese,F.; Wennmohs,F.; Hansen,A.; Becker,U.
     Efficient, approximate and parallel Hartree-Fock and hybrid DFT calculations. A 'chain-of-spheres' algorithm for the Hartree-Fock exchange
     Chem. Phys., 2009 356(1-3)98-109
     doi.org/10.1016/j.chemphys.2008.10.036
  3. Helmich-Paris,B.; de Souza,B.; Neese,F.; Izsák,R.
     An improved chain of spheres for exchange algorithm
     J. Chem. Phys., 2021 155 104109
     doi.org/doi: 10.1063/5.0058766.
  4. Neese,F.
     The SHARK Integral Generation and Digestion System
     J. Comp. Chem., 2022  1-16
     doi.org/10.1002/jcc.26942

List of suggested additional citations. These are papers that are important in the 'surrounding' of 
of this run, or papers that preceded the highly important papers. If you like your results we are grateful for a citation.

  1. Izsak,R.; Neese,F.
     An overlap fitted chain of spheres exchange method
     J. Chem. Phys., 2011 135 144105
     doi.org/10.1063/1.3646921
  2. Izsak,R.; Hansen,A.; Neese,F.
     The resolution of identity and chain of spheres approximations for the LPNO-CCSD singles Fock term
     Molec. Phys., 2012 110 2413-2417
     doi.org/10.1080/00268976.2012.687466
  3. Neese,F.
     The ORCA program system
     WIRES Comput. Molec. Sci., 2012 2(1)73-78
     doi.org/10.1002/wcms.81
  4. Izsak,R.; Neese,F.; Klopper,W.
     Robust fitting techniques in the chain of spheres approximation to the Fock exchange: The role of the complementary space
     J. Chem. Phys., 2013 139 
     doi.org/10.1063/1.4819264
  5. Neese,F.
     Software update: the ORCA program system, version 4.0
     WIRES Comput. Molec. Sci., 2018 8(1)1-6
     doi.org/10.1002/wcms.1327
  6. Neese,F.; Wennmohs,F.; Becker,U.; Riplinger,C.
     The ORCA quantum chemistry program package
     J. Chem. Phys., 2020 152 Art. No. L224108
     doi.org/10.1063/5.0004608

List of optional additional citations

  1. Neese,F.
     Approximate second-order SCF convergence for spin unrestricted wavefunctions
     Chem. Phys. Lett., 2000 325(1-3)93-98
     doi.org/10.1016/s0009-2614(00)00662-x

Timings for individual modules:

Sum of individual times          ...      612.242 sec (=  10.204 min)
Startup calculation              ...       13.992 sec (=   0.233 min)   2.3 %
SCF iterations                   ...      598.036 sec (=   9.967 min)  97.7 %
Property calculations            ...        0.214 sec (=   0.004 min)   0.0 %
                             ****ORCA TERMINATED NORMALLY****
TOTAL RUN TIME: 0 days 0 hours 10 minutes 12 seconds 933 msec
