
                                 *****************
                                 * O   R   C   A *
                                 *****************

                                            #,                                       
                                            ###                                      
                                            ####                                     
                                            #####                                    
                                            ######                                   
                                           ########,                                 
                                     ,,################,,,,,                         
                               ,,#################################,,                 
                          ,,##########################################,,             
                       ,#########################################, ''#####,          
                    ,#############################################,,   '####,        
                  ,##################################################,,,,####,       
                ,###########''''           ''''###############################       
              ,#####''   ,,,,##########,,,,          '''####'''          '####       
            ,##' ,,,,###########################,,,                        '##       
           ' ,,###''''                  '''############,,,                           
         ,,##''                                '''############,,,,        ,,,,,,###''
      ,#''                                            '''#######################'''  
     '                                                          ''''####''''         
             ,#######,   #######,   ,#######,      ##                                
            ,#'     '#,  ##    ##  ,#'     '#,    #''#        ,####,   ,####,        
            ##       ##  ##   ,#'  ##            #'  '#       #'       #'  '#        
            ##       ##  #######   ##           ,######,      #####,   #    #        
            '#,     ,#'  ##    ##  '#,     ,#' ,#      #,     #,   #   #,  ,#        
             '#######'   ##     ##  '#######'  #'      '#     '####' # '####'        



                #########################################################
                #                        -***-                          #
                #          Department of theory and spectroscopy        #
                #                                                       #
                #                      Frank Neese                      #
                #                                                       #
                #     Directorship, Architecture, Infrastructure        #
                #                    SHARK, DRIVERS                     #
                #        Core code/Algorithms in most modules           #
                #                                                       #
                #        Max Planck Institute fuer Kohlenforschung      #
                #                Kaiser Wilhelm Platz 1                 #
                #                 D-45470 Muelheim/Ruhr                 #
                #                      Germany                          #
                #                                                       #
                #                  All rights reserved                  #
                #                        -***-                          #
                #########################################################


                         Program Version 6.0.0  -   RELEASE  -


 With contributions from (in alphabetic order):
   Daniel Aravena         : Magnetic Suceptibility
   Michael Atanasov       : Ab Initio Ligand Field Theory (pilot matlab implementation)
   Alexander A. Auer      : GIAO ZORA, VPT2 properties, NMR spectrum
   Ute Becker             : All parallelization in ORCA, NUMFREQ, NUMCALC
   Giovanni Bistoni       : ED, misc. LED, open-shell LED, HFLD
   Martin Brehm           : Molecular dynamics
   Dmytro Bykov           : pre 5.0 version of the SCF Hessian
   Marcos Casanova-Páez   : Triplet and SCS-CIS(D). UHF-(DLPNO)-IP/EA/STEOM-CCSD. UHF-CVS-IP/STEOM-CCSD
   Vijay G. Chilkuri      : MRCI spin determinant printing, contributions to CSF-ICE
   Pauline Colinet        : FMM embedding
   Dipayan Datta          : RHF DLPNO-CCSD density
   Achintya Kumar Dutta   : EOM-CC, STEOM-CC
   Nicolas Foglia         : Exact transition moments, OPA infrastructure, MCD improvements
   Dmitry Ganyushin       : Spin-Orbit,Spin-Spin,Magnetic field MRCI
   Miquel Garcia          : C-PCM and meta-GGA Hessian, CCSD/C-PCM, Gaussian charge scheme
   Tiago L. C. Gouveia    : GS-ROHF, GS-ROCIS
   Yang Guo               : DLPNO-NEVPT2, F12-NEVPT2, CIM, IAO-localization
   Andreas Hansen         : Spin unrestricted coupled pair/coupled cluster methods
   Ingolf Harden          : AUTO-CI MPn and infrastructure 
   Benjamin Helmich-Paris : MC-RPA, TRAH-(SCF,CASSCF), AVAS, COSX integrals, SCF dyn. polar.
   Lee Huntington         : MR-EOM, pCC
   Robert Izsak           : Overlap fitted RIJCOSX, COSX-SCS-MP3, EOM
   Riya Kayal             : Wick's Theorem for AUTO-CI, AUTO-CI UHF-CCSDT
   Emily Kempfer          : AUTO-CI, RHF CISDT and CCSDT
   Christian Kollmar      : KDIIS, OOCD, Brueckner-CCSD(T), CCSD density, CASPT2, CASPT2-K, improved NEVPT2
   Axel Koslowski         : Symmetry handling
   Simone Kossmann        : Meta GGA functionals, TD-DFT gradient, OOMP2, (MP2 Hessian; deprecated post 5.0)
   Lucas Lang             : DCDCAS
   Marvin Lechner         : AUTO-CI (C++ implementation), FIC-MRCC
   Spencer Leger          : CASSCF response
   Dagmar Lenk            : GEPOL surface, SMD, ORCA-2-JSON
   Dimitrios Liakos       : Extrapolation schemes; Compound Job, initial MDCI parallelization
   Dimitrios Manganas     : Further ROCIS development; embedding schemes. LFT, Crystal Embedding
   Dimitrios Pantazis     : SARC Basis sets
   Anastasios Papadopoulos: AUTO-CI, single reference methods and gradients
   Taras Petrenko         : pre 6.0 DFT Hessian and TD-DFT gradient, (ASA, deprecated), ECA, 1-Electron XAS/XES, NRVS
   Peter Pinski           : DLPNO-MP2, DLPNO-MP2 Gradient
   Christoph Reimann      : Effective Core Potentials
   Marius Retegan         : Local ZFS, SOC
   Christoph Riplinger    : Optimizer, TS searches, QM/MM, DLPNO-CCSD(T), (RO)-DLPNO pert. Triples
   Michael Roemelt        : Original ROCIS implementation
   Masaaki Saitow         : Open-shell DLPNO-CCSD energy and density
   Barbara Sandhoefer     : DKH picture change effects
   Kantharuban Sivalingam : CASSCF convergence/infrastructure, NEVPT2 and variants, FIC-MRCI
   Bernardo de Souza      : ESD, SOC TD-DFT
   Georgi Stoychev        : AutoAux, RI-MP2 NMR, DLPNO-MP2 response, X2C
   Van Anh Tran           : RI-MP2 g-tensors
   Willem Van den Heuvel  : Paramagnetic NMR
   Zikuan Wang            : NOTCH, Electric field optimization 
   Frank Wennmohs         : Technical directorship and infrastructure
   Hang Xu                : AUTO-CI-Response properties 


 We gratefully acknowledge several colleagues who have allowed us to
 interface, adapt or use parts of their codes:
   Stefan Grimme, W. Hujo, H. Kruse, P. Pracht,  : VdW corrections, initial TS optimization,
                  C. Bannwarth, S. Ehlert,         DFT functionals, gCP, sTDA/sTD-DF
                  L. Wittmann, M. Mueller
   Ed Valeev, F. Pavosevic, A. Kumar             : LibInt (2-el integral package), F12 methods
   Garnet Chan, S. Sharma, J. Yang, R. Olivares  : DMRG
   Ulf Ekstrom                                   : XCFun DFT Library
   Mihaly Kallay                                 : mrcc  (arbitrary order and MRCC methods)
   Frank Weinhold                                : gennbo (NPA and NBO analysis)
   Simon Mueller                                 : openCOSMO-RS
   Christopher J. Cramer and Donald G. Truhlar   : smd solvation model
   Lars Goerigk                                  : TD-DFT with DH, B97 family of functionals
   V. Asgeirsson, H. Jonsson                     : NEB implementation
   FAccTs GmbH                                   : IRC, NEB, NEB-TS, DLPNO-Multilevel, CI-OPT
                                                   MM, QMMM, 2- and 3-layer-ONIOM, Crystal-QMMM,
                                                   LR-CPCM, SF, NACMEs, symmetry and pop. for TD-DFT,
                                                   nearIR, NL-DFT gradient (VV10), updates on ESD,
                                                   ML-optimized integration grids, MBIS, APM,
                                                   GOAT, DOCKER, SOLVATOR, interface openCOSMO-RS
   S Lehtola, MJT Oliveira, MAL Marques          : LibXC Library
   Liviu Ungur et al                             : ANISO software


 Your calculation uses the libint2 library for the computation of 2-el integrals
 For citations please refer to: http://libint.valeyev.net

 Your ORCA version has been built with support for libXC version: 6.2.2
 For citations please refer to: https://libxc.gitlab.io

 This ORCA versions uses:
   CBLAS   interface :  Fast vector & matrix operations
   LAPACKE interface :  Fast linear algebra routines
   SCALAPACK package :  Parallel linear algebra routines
   Shared memory     :  Shared parallel matrices
   BLAS/LAPACK       :  OpenBLAS 0.3.27  USE64BITINT DYNAMIC_ARCH NO_AFFINITY SkylakeX SINGLE_THREADED
        Core in use  :  SkylakeX
   Copyright (c) 2011-2014, The OpenBLAS Project


Warning: RI is on but no J-basis has been assigned. Assigning Def2/J (nothing to worry about!)
================================================================================

----- Orbital basis set information -----
Your calculation utilizes the basis: 6-31G*
   H-He, Li-Ne : W. J. Hehre, R. Ditchfield and J.A. Pople, J. Chem. Phys. 56, 2257 (1972).
                 Note: He and Ne are unpublished basis sets taken from the Gaussian program.
                 Note: Li and B from J. D. Dill and J. A. Pople, J. Chem. Phys. 62, 2921 (1975).
   Na - Ar     : M. M. Francl, W. J. Pietro, W. J. Hehre, J. S. Binkley, M. S. Gordon, 
                 D. J. DeFrees and J. A. Pople, J. Chem. Phys. 77, 3654 (1982).
   K - Zn      : V. A. Rassolov, J. A. Pople, M. A. Ratner, and T. L. Windus, J. Chem. Phys. 109, 1223 (1998).

----- AuxJ basis set information -----
Your calculation utilizes the auxiliary basis: def2/J
   F. Weigend, Phys. Chem. Chem. Phys. 8, 1057 (2006).

================================================================================
                                        WARNINGS
                       Please study these warnings very carefully!
================================================================================


================================================================================
                                       INPUT FILE
================================================================================
NAME = /home/nmrbox/aojoawo/Documents/ERDOS/inputs/CHEMBL3235974.inp
|  1> ! B3LYP 6-31G* SP
|  2> 
|  3> * xyz 0 1
|  4> O 1.4554 0.1109 1.7011
|  5> C 1.4081 -0.1536 0.4685
|  6> N 2.3002 0.5141 -0.4395
|  7> C 3.5172 1.1638 -0.0341
|  8> C 3.9814 2.2729 -0.7592
|  9> C 5.1731 2.9079 -0.3962
| 10> C 5.9190 2.4321 0.6854
| 11> F 7.0757 3.0472 1.0347
| 12> C 5.4773 1.3156 1.4005
| 13> C 4.2854 0.6784 1.0410
| 14> N 0.4126 -1.0738 -0.0253
| 15> C 0.6155 -1.7565 -1.3092
| 16> C 0.2071 -3.2199 -1.1946
| 17> C -1.1733 -3.3559 -0.6197
| 18> C -1.9381 -4.4956 -0.9104
| 19> N -3.1549 -4.6716 -0.3325
| 20> C -3.6636 -3.7708 0.5467
| 21> C -2.9334 -2.6303 0.8814
| 22> C -1.6777 -2.4065 0.2925
| 23> C -0.8894 -1.1602 0.6655
| 24> C -1.6909 0.0984 0.3909
| 25> C -2.2721 0.3248 -0.8690
| 26> C -2.9800 1.5025 -1.1223
| 27> C -3.1303 2.4737 -0.1183
| 28> C -3.8499 3.7668 -0.4081
| 29> F -2.9473 4.6881 -0.9052
| 30> F -4.4251 4.2749 0.7439
| 31> F -4.8531 3.5693 -1.3412
| 32> C -2.5187 2.2636 1.1290
| 33> C -1.8114 1.0853 1.3826
| 34> H 1.9888 0.6310 -1.4302
| 35> H 3.4135 2.6504 -1.6003
| 36> H 5.5183 3.7679 -0.9557
| 37> H 6.0622 0.9376 2.2291
| 38> H 3.9796 -0.2038 1.5874
| 39> H 1.6848 -1.7276 -1.6115
| 40> H 0.0193 -1.2532 -2.0994
| 41> H 0.2545 -3.6846 -2.2038
| 42> H 0.9231 -3.7514 -0.5312
| 43> H -1.5630 -5.2490 -1.5913
| 44> H -4.6343 -3.9433 0.9920
| 45> H -3.3442 -1.9235 1.5918
| 46> H -0.6988 -1.2507 1.7584
| 47> H -2.1812 -0.4118 -1.6565
| 48> H -3.4075 1.6553 -2.1053
| 49> H -2.5832 3.0134 1.9075
| 50> H -1.3507 0.9477 2.3529
| 51> *
| 52> 
| 53>                          ****END OF INPUT****
================================================================================

                       ****************************
                       * Single Point Calculation *
                       ****************************

---------------------------------
CARTESIAN COORDINATES (ANGSTROEM)
---------------------------------
  O      1.455400    0.110900    1.701100
  C      1.408100   -0.153600    0.468500
  N      2.300200    0.514100   -0.439500
  C      3.517200    1.163800   -0.034100
  C      3.981400    2.272900   -0.759200
  C      5.173100    2.907900   -0.396200
  C      5.919000    2.432100    0.685400
  F      7.075700    3.047200    1.034700
  C      5.477300    1.315600    1.400500
  C      4.285400    0.678400    1.041000
  N      0.412600   -1.073800   -0.025300
  C      0.615500   -1.756500   -1.309200
  C      0.207100   -3.219900   -1.194600
  C     -1.173300   -3.355900   -0.619700
  C     -1.938100   -4.495600   -0.910400
  N     -3.154900   -4.671600   -0.332500
  C     -3.663600   -3.770800    0.546700
  C     -2.933400   -2.630300    0.881400
  C     -1.677700   -2.406500    0.292500
  C     -0.889400   -1.160200    0.665500
  C     -1.690900    0.098400    0.390900
  C     -2.272100    0.324800   -0.869000
  C     -2.980000    1.502500   -1.122300
  C     -3.130300    2.473700   -0.118300
  C     -3.849900    3.766800   -0.408100
  F     -2.947300    4.688100   -0.905200
  F     -4.425100    4.274900    0.743900
  F     -4.853100    3.569300   -1.341200
  C     -2.518700    2.263600    1.129000
  C     -1.811400    1.085300    1.382600
  H      1.988800    0.631000   -1.430200
  H      3.413500    2.650400   -1.600300
  H      5.518300    3.767900   -0.955700
  H      6.062200    0.937600    2.229100
  H      3.979600   -0.203800    1.587400
  H      1.684800   -1.727600   -1.611500
  H      0.019300   -1.253200   -2.099400
  H      0.254500   -3.684600   -2.203800
  H      0.923100   -3.751400   -0.531200
  H     -1.563000   -5.249000   -1.591300
  H     -4.634300   -3.943300    0.992000
  H     -3.344200   -1.923500    1.591800
  H     -0.698800   -1.250700    1.758400
  H     -2.181200   -0.411800   -1.656500
  H     -3.407500    1.655300   -2.105300
  H     -2.583200    3.013400    1.907500
  H     -1.350700    0.947700    2.352900

----------------------------
CARTESIAN COORDINATES (A.U.)
----------------------------
  NO LB      ZA    FRAG     MASS         X           Y           Z
   0 O     8.0000    0    15.999    2.750307    0.209571    3.214613
   1 C     6.0000    0    12.011    2.660923   -0.290262    0.885337
   2 N     7.0000    0    14.007    4.346748    0.971508   -0.830535
   3 C     6.0000    0    12.011    6.646545    2.199263   -0.064440
   4 C     6.0000    0    12.011    7.523756    4.295159   -1.434680
   5 C     6.0000    0    12.011    9.775742    5.495135   -0.748709
   6 C     6.0000    0    12.011   11.185289    4.596003    1.295218
   7 F     9.0000    0    18.998   13.371135    5.758373    1.955300
   8 C     6.0000    0    12.011   10.350597    2.486124    2.646561
   9 C     6.0000    0    12.011    8.098232    1.281990    1.967205
  10 N     7.0000    0    14.007    0.779701   -2.029188   -0.047810
  11 C     6.0000    0    12.011    1.163126   -3.319304   -2.474029
  12 C     6.0000    0    12.011    0.391362   -6.084729   -2.257467
  13 C     6.0000    0    12.011   -2.217216   -6.341732   -1.171063
  14 C     6.0000    0    12.011   -3.662478   -8.495453   -1.720407
  15 N     7.0000    0    14.007   -5.961897   -8.828045   -0.628334
  16 C     6.0000    0    12.011   -6.923201   -7.125779    1.033113
  17 C     6.0000    0    12.011   -5.543323   -4.970547    1.665605
  18 C     6.0000    0    12.011   -3.170394   -4.547626    0.552745
  19 C     6.0000    0    12.011   -1.680722   -2.192460    1.257613
  20 C     6.0000    0    12.011   -3.195338    0.185949    0.738694
  21 C     6.0000    0    12.011   -4.293647    0.613783   -1.642172
  22 C     6.0000    0    12.011   -5.631384    2.839314   -2.120840
  23 C     6.0000    0    12.011   -5.915410    4.674616   -0.223555
  24 C     6.0000    0    12.011   -7.275257    7.118220   -0.771197
  25 F     9.0000    0    18.998   -5.569590    8.859225   -1.710580
  26 F     9.0000    0    18.998   -8.362227    8.078390    1.405767
  27 F     9.0000    0    18.998   -9.171030    6.744999   -2.534501
  28 C     6.0000    0    12.011   -4.759653    4.277584    2.133501
  29 C     6.0000    0    12.011   -3.423050    2.050920    2.612735
  30 H     1.0000    0     1.008    3.758287    1.192417   -2.702686
  31 H     1.0000    0     1.008    6.450580    5.008530   -3.024129
  32 H     1.0000    0     1.008   10.428076    7.120299   -1.806011
  33 H     1.0000    0     1.008   11.455898    1.771807    4.212389
  34 H     1.0000    0     1.008    7.520354   -0.385126    2.999751
  35 H     1.0000    0     1.008    3.183811   -3.264691   -3.045294
  36 H     1.0000    0     1.008    0.036472   -2.368205   -3.967291
  37 H     1.0000    0     1.008    0.480935   -6.962885   -4.164578
  38 H     1.0000    0     1.008    1.744406   -7.089119   -1.003823
  39 H     1.0000    0     1.008   -2.953642   -9.919172   -3.007121
  40 H     1.0000    0     1.008   -8.757558   -7.451757    1.874608
  41 H     1.0000    0     1.008   -6.319622   -3.634888    3.008066
  42 H     1.0000    0     1.008   -1.320541   -2.363480    3.322894
  43 H     1.0000    0     1.008   -4.121871   -0.778189   -3.130331
  44 H     1.0000    0     1.008   -6.439242    3.128064   -3.978440
  45 H     1.0000    0     1.008   -4.881541    5.694501    3.604653
  46 H     1.0000    0     1.008   -2.552453    1.790893    4.446337

--------------------------------
INTERNAL COORDINATES (ANGSTROEM)
--------------------------------
 O      0   0   0     0.000000000000     0.00000000     0.00000000
 C      1   0   0     1.261546788669     0.00000000     0.00000000
 N      2   1   0     1.437403805477   119.77120329     0.00000000
 C      3   2   1     1.437897162526   123.85385289    19.72687018
 C      4   3   2     1.404049308251   119.41573794   210.27267856
 C      5   4   3     1.398264241837   120.42682554   180.99681243
 C      6   5   4     1.397358583185   120.08260556     0.68050786
 F      7   6   5     1.355844161399   120.02167344   179.87196582
 C      7   6   5     1.397511770970   119.95956691     0.36302567
 C      9   7   6     1.398531265292   120.12144948   359.59212663
 N      2   1   3     1.442784367118   119.60342449   183.13357393
 C     11   2   1     1.468212147477   120.03331914   201.68329508
 C     12  11   2     1.523634890648   110.10792392   137.53493211
 C     13  12  11     1.501502637360   111.23647465    51.54991257
 C     14  13  12     1.402975986965   119.69643865   154.58524912
 N     15  14  13     1.358508980464   120.35548454   175.94456033
 C     16  15  14     1.357648323389   121.67688989   359.30415260
 C     17  16  15     1.394975404801   120.11306950   359.84561125
 C     18  17  16     1.404874421434   119.83703022     0.86869673
 C     11   2   1     1.476439500962   119.05523550    30.96526285
 C     20  11   2     1.517195231340   109.42874023    71.30898456
 C     21  20  11     1.405844376167   120.94366595    73.09473685
 C     22  21  20     1.397233190989   120.50818154   181.61605556
 C     23  22  21     1.404932571336   120.48507095   359.51113411
 C     24  23  22     1.507950864584   120.43097820   177.69837536
 F     25  24  23     1.382240521762   109.21188202   272.30699856
 F     25  24  23     1.384241543229   110.67817825   152.27371528
 F     25  24  23     1.384229785838   110.67365072    32.33293706
 C     24  23  22     1.404974683046   118.97854504     2.19253090
 C     29  24  23     1.397489584934   120.49799987   357.76613237
 H      3   2   1     1.045046439160   117.76660324   207.27978130
 H      5   4   3     1.082804631501   120.20875957     1.58149297
 H      6   5   4     1.082498632794   119.89370193   180.56053551
 H      9   7   6     1.082390858239   119.99525669   179.08474909
 H     10   9   7     1.081824126187   118.85678649   177.97552837
 H     12  11   2     1.111585799657   111.01811625    18.41468325
 H     12  11   2     1.110486996772   109.71327000   258.95825798
 H     13  12  11     1.112060020862   108.76396354   173.36920693
 H     13  12  11     1.111417027942   109.36157716   291.48947690
 H     15  14  13     1.082560104567   120.45005288   356.43414980
 H     17  16  15     1.081807205559   119.80010635   180.24361096
 H     18  17  16     1.083047108855   119.49759258   180.64051408
 H     20  11   2     1.113080868581   108.24930239   311.90024349
 H     22  21  20     1.082126896441   120.51988150     1.83546739
 H     23  22  21     1.082771023809   118.91833107   179.31119130
 H     29  24  23     1.082784623090   120.58445944   177.45750882
 H     30  29  24     1.082894426987   119.01630107   180.09171662

---------------------------
INTERNAL COORDINATES (A.U.)
---------------------------
 O      0   0   0     0.000000000000     0.00000000     0.00000000
 C      1   0   0     2.383977935711     0.00000000     0.00000000
 N      2   1   0     2.716299536208   119.77120329     0.00000000
 C      3   2   1     2.717231845916   123.85385289    19.72687018
 C      4   3   2     2.653268671116   119.41573794   210.27267856
 C      5   4   3     2.642336479927   120.42682554   180.99681243
 C      6   5   4     2.640625033103   120.08260556     0.68050786
 F      7   6   5     2.562174145320   120.02167344   179.87196582
 C      7   6   5     2.640914516065   119.95956691     0.36302567
 C      9   7   6     2.642841081129   120.12144948   359.59212663
 N      2   1   3     2.726467324156   119.60342449   183.13357393
 C     11   2   1     2.774518865229   120.03331914   201.68329508
 C     12  11   2     2.879252671412   110.10792392   137.53493211
 C     13  12  11     2.837428773971   111.23647465    51.54991257
 C     14  13  12     2.651240387831   119.69643865   154.58524912
 N     15  14  13     2.567209923549   120.35548454   175.94456033
 C     16  15  14     2.565583517382   121.67688989   359.30415260
 C     17  16  15     2.636121478630   120.11306950   359.84561125
 C     18  17  16     2.654827909062   119.83703022     0.86869673
 C     11   2   1     2.790066310121   119.05523550    30.96526285
 C     20  11   2     2.867083478923   109.42874023    71.30898456
 C     21  20  11     2.656660857869   120.94366595    73.09473685
 C     22  21  20     2.640388076193   120.50818154   181.61605556
 C     23  22  21     2.654937796450   120.48507095   359.51113411
 C     24  23  22     2.849614157474   120.43097820   177.69837536
 F     25  24  23     2.612056037338   109.21188202   272.30699856
 F     25  24  23     2.615837419899   110.67817825   152.27371528
 F     25  24  23     2.615815201650   110.67365072    32.33293706
 C     24  23  22     2.655017376050   118.97854504     2.19253090
 C     29  24  23     2.640872590533   120.49799987   357.76613237
 H      3   2   1     1.974851567241   117.76660324   207.27978130
 H      5   4   3     2.046204210078   120.20875957     1.58149297
 H      6   5   4     2.045625956324   119.89370193   180.56053551
 H      9   7   6     2.045422291932   119.99525669   179.08474909
 H     10   9   7     2.044351323562   118.85678649   177.97552837
 H     12  11   2     2.100592735708   111.01811625    18.41468325
 H     12  11   2     2.098516299180   109.71327000   258.95825798
 H     13  12  11     2.101488883912   108.76396354   173.36920693
 H     13  12  11     2.100273803388   109.36157716   291.48947690
 H     15  14  13     2.045742121141   120.45005288   356.43414980
 H     17  16  15     2.044319348210   119.80010635   180.24361096
 H     18  17  16     2.046662425872   119.49759258   180.64051408
 H     20  11   2     2.103418006524   108.24930239   311.90024349
 H     22  21  20     2.044923476423   120.51988150     1.83546739
 H     23  22  21     2.046140700744   118.91833107   179.31119130
 H     29  24  23     2.046166399661   120.58445944   177.45750882
 H     30  29  24     2.046373898955   119.01630107   180.09171662

---------------------
BASIS SET INFORMATION
---------------------
There are 5 groups of distinct atoms

 Group   1 Type O   : 10s4p1d contracted to 3s2p1d pattern {631/31/1}
 Group   2 Type C   : 10s4p1d contracted to 3s2p1d pattern {631/31/1}
 Group   3 Type N   : 10s4p1d contracted to 3s2p1d pattern {631/31/1}
 Group   4 Type F   : 10s4p1d contracted to 3s2p1d pattern {631/31/1}
 Group   5 Type H   : 4s contracted to 2s pattern {31}

Atom   0O    basis set group =>   1
Atom   1C    basis set group =>   2
Atom   2N    basis set group =>   3
Atom   3C    basis set group =>   2
Atom   4C    basis set group =>   2
Atom   5C    basis set group =>   2
Atom   6C    basis set group =>   2
Atom   7F    basis set group =>   4
Atom   8C    basis set group =>   2
Atom   9C    basis set group =>   2
Atom  10N    basis set group =>   3
Atom  11C    basis set group =>   2
Atom  12C    basis set group =>   2
Atom  13C    basis set group =>   2
Atom  14C    basis set group =>   2
Atom  15N    basis set group =>   3
Atom  16C    basis set group =>   2
Atom  17C    basis set group =>   2
Atom  18C    basis set group =>   2
Atom  19C    basis set group =>   2
Atom  20C    basis set group =>   2
Atom  21C    basis set group =>   2
Atom  22C    basis set group =>   2
Atom  23C    basis set group =>   2
Atom  24C    basis set group =>   2
Atom  25F    basis set group =>   4
Atom  26F    basis set group =>   4
Atom  27F    basis set group =>   4
Atom  28C    basis set group =>   2
Atom  29C    basis set group =>   2
Atom  30H    basis set group =>   5
Atom  31H    basis set group =>   5
Atom  32H    basis set group =>   5
Atom  33H    basis set group =>   5
Atom  34H    basis set group =>   5
Atom  35H    basis set group =>   5
Atom  36H    basis set group =>   5
Atom  37H    basis set group =>   5
Atom  38H    basis set group =>   5
Atom  39H    basis set group =>   5
Atom  40H    basis set group =>   5
Atom  41H    basis set group =>   5
Atom  42H    basis set group =>   5
Atom  43H    basis set group =>   5
Atom  44H    basis set group =>   5
Atom  45H    basis set group =>   5
Atom  46H    basis set group =>   5
---------------------------------
AUXILIARY/J BASIS SET INFORMATION
---------------------------------
There are 5 groups of distinct atoms

 Group   1 Type O   : 12s5p4d2f1g contracted to 6s4p3d1f1g pattern {711111/2111/211/2/1}
 Group   2 Type C   : 12s5p4d2f1g contracted to 6s4p3d1f1g pattern {711111/2111/211/2/1}
 Group   3 Type N   : 12s5p4d2f1g contracted to 6s4p3d1f1g pattern {711111/2111/211/2/1}
 Group   4 Type F   : 12s5p4d2f1g contracted to 6s4p3d1f1g pattern {711111/2111/211/2/1}
 Group   5 Type H   : 5s2p1d contracted to 3s1p1d pattern {311/2/1}

Atom   0O    basis set group =>   1
Atom   1C    basis set group =>   2
Atom   2N    basis set group =>   3
Atom   3C    basis set group =>   2
Atom   4C    basis set group =>   2
Atom   5C    basis set group =>   2
Atom   6C    basis set group =>   2
Atom   7F    basis set group =>   4
Atom   8C    basis set group =>   2
Atom   9C    basis set group =>   2
Atom  10N    basis set group =>   3
Atom  11C    basis set group =>   2
Atom  12C    basis set group =>   2
Atom  13C    basis set group =>   2
Atom  14C    basis set group =>   2
Atom  15N    basis set group =>   3
Atom  16C    basis set group =>   2
Atom  17C    basis set group =>   2
Atom  18C    basis set group =>   2
Atom  19C    basis set group =>   2
Atom  20C    basis set group =>   2
Atom  21C    basis set group =>   2
Atom  22C    basis set group =>   2
Atom  23C    basis set group =>   2
Atom  24C    basis set group =>   2
Atom  25F    basis set group =>   4
Atom  26F    basis set group =>   4
Atom  27F    basis set group =>   4
Atom  28C    basis set group =>   2
Atom  29C    basis set group =>   2
Atom  30H    basis set group =>   5
Atom  31H    basis set group =>   5
Atom  32H    basis set group =>   5
Atom  33H    basis set group =>   5
Atom  34H    basis set group =>   5
Atom  35H    basis set group =>   5
Atom  36H    basis set group =>   5
Atom  37H    basis set group =>   5
Atom  38H    basis set group =>   5
Atom  39H    basis set group =>   5
Atom  40H    basis set group =>   5
Atom  41H    basis set group =>   5
Atom  42H    basis set group =>   5
Atom  43H    basis set group =>   5
Atom  44H    basis set group =>   5
Atom  45H    basis set group =>   5
Atom  46H    basis set group =>   5
------------------------------------------------------------------------------
                             ORCA STARTUP CALCULATIONS
                           -- RI-GTO INTEGRALS CHOSEN --
------------------------------------------------------------------------------
------------------------------------------------------------------------------
                   ___                                                        
                  /   \      - P O W E R E D   B Y -                         
                 /     \                                                     
                 |  |  |   _    _      __       _____    __    __             
                 |  |  |  | |  | |    /  \     |  _  \  |  |  /  |          
                  \  \/   | |  | |   /    \    | | | |  |  | /  /          
                 / \  \   | |__| |  /  /\  \   | |_| |  |  |/  /          
                |  |  |   |  __  | /  /__\  \  |    /   |      \           
                |  |  |   | |  | | |   __   |  |    \   |  |\   \          
                \     /   | |  | | |  |  |  |  | |\  \  |  | \   \       
                 \___/    |_|  |_| |__|  |__|  |_| \__\ |__|  \__/        
                                                                              
                      - O R C A' S   B I G   F R I E N D -                    
                                      &                                       
                       - I N T E G R A L  F E E D E R -                       
                                                                              
 v1 FN, 2020, v2 2021, v3 2022-2024                                           
------------------------------------------------------------------------------


----------------------
SHARK INTEGRAL PACKAGE
----------------------

Number of atoms                             ...     47
Number of basis functions                   ...    454
Number of shells                            ...    214
Maximum angular momentum                    ...      2
Integral batch strategy                     ... SHARK/LIBINT Hybrid
RI-J (if used) integral strategy            ... SPLIT-RIJ (Revised 2003 algorithm where possible)
Printlevel                                  ...      1
Contraction scheme used                     ... SEGMENTED contraction
Prescreening option                         ... SCHWARTZ
   Thresh                                   ... 1.000e-10
   Tcut                                     ... 1.000e-11
   Tpresel                                  ... 1.000e-11 
Coulomb Range Separation                    ... NOT USED
Exchange Range Separation                   ... NOT USED
Multipole approximations                    ... NOT USED
Finite Nucleus Model                        ... NOT USED
CABS basis                                  ... NOT available
Auxiliary Coulomb fitting basis             ... AVAILABLE
   # of basis functions in Aux-J            ...   1657
   # of shells in Aux-J                     ...    535
   Maximum angular momentum in Aux-J        ...      4
Auxiliary J/K fitting basis                 ... NOT available
Auxiliary Correlation fitting basis         ... NOT available
Auxiliary 'external' fitting basis          ... NOT available

Checking pre-screening integrals            ... done (  0.0 sec) Dimension = 214
Check shell pair data                       ... done (  0.0 sec)
Shell pair information
Shell pair cut-off parameter TPreSel        ...   1.0e-11
Total number of shell pairs                 ...     23005
Shell pairs after pre-screening             ...     13327
Total number of primitive shell pairs       ...    135102
Primitive shell pairs kept                  ...     41165
          la=0 lb=0:   4304 shell pairs
          la=1 lb=0:   4662 shell pairs
          la=1 lb=1:   1267 shell pairs
          la=2 lb=0:   1837 shell pairs
          la=2 lb=1:   1051 shell pairs
          la=2 lb=2:    206 shell pairs

Calculating one electron integrals          ... done (  0.2 sec)
Calculating RI/J V-Matrix + Cholesky decomp.... done (  0.4 sec)
Calculating Nuclear repulsion               ... done (  0.0 sec) ENN=   2772.023231440134 Eh

Diagonalization of the overlap matrix:
Smallest eigenvalue                        ... 4.426e-04
Time for diagonalization                   ...    0.037 sec
Threshold for overlap eigenvalues          ... 1.000e-07
Number of eigenvalues below threshold      ... 0
Time for construction of square roots      ...    0.029 sec
Total time needed                          ...    0.076 sec

-------------------
DFT GRID GENERATION
-------------------

General Integration Accuracy     IntAcc      ... 4.388
Radial Grid Type                 RadialGrid  ... OptM3 with GC (2021)
Angular Grid (max. ang.)         AngularGrid ... 4 (Lebedev-302)
Angular grid pruning method      GridPruning ... 4 (adaptive)
Weight generation scheme         WeightScheme... mBecke (2022)
Basis function cutoff            BFCut       ... 1.0000e-10
Integration weight cutoff        WCut        ... 1.0000e-14
Partially contracted basis set               ... off
Rotationally invariant grid construction     ... off
Angular grids for H and He will be reduced by one unit

Total number of grid points                  ...   233511
Total number of batches                      ...     3669
Average number of points per batch           ...       63
Average number of grid points per atom       ...     4968

--------------------
COSX GRID GENERATION
--------------------

GRIDX 1
-------
General Integration Accuracy     IntAcc      ... 3.816
Radial Grid Type                 RadialGrid  ... OptM3 with GC (2021)
Angular Grid (max. ang.)         AngularGrid ... 1 (Lebedev-50)
Angular grid pruning method      GridPruning ... 4 (adaptive)
Weight generation scheme         WeightScheme... mBecke (2022)
Basis function cutoff            BFCut       ... 1.0000e-10
Integration weight cutoff        WCut        ... 1.0000e-14
Partially contracted basis set               ... on
Rotationally invariant grid construction     ... off
Angular grids for H and He will be reduced by one unit

Total number of grid points                  ...    29567
Total number of batches                      ...      256
Average number of points per batch           ...      115
Average number of grid points per atom       ...      629
UseSFitting                                  ... on

GRIDX 2
-------
General Integration Accuracy     IntAcc      ... 4.020
Radial Grid Type                 RadialGrid  ... OptM3 with GC (2021)
Angular Grid (max. ang.)         AngularGrid ... 2 (Lebedev-110)
Angular grid pruning method      GridPruning ... 4 (adaptive)
Weight generation scheme         WeightScheme... mBecke (2022)
Basis function cutoff            BFCut       ... 1.0000e-10
Integration weight cutoff        WCut        ... 1.0000e-14
Partially contracted basis set               ... on
Rotationally invariant grid construction     ... off
Angular grids for H and He will be reduced by one unit

Total number of grid points                  ...    65209
Total number of batches                      ...      534
Average number of points per batch           ...      122
Average number of grid points per atom       ...     1387
UseSFitting                                  ... on

GRIDX 3
-------
General Integration Accuracy     IntAcc      ... 4.338
Radial Grid Type                 RadialGrid  ... OptM3 with GC (2021)
Angular Grid (max. ang.)         AngularGrid ... 3 (Lebedev-194)
Angular grid pruning method      GridPruning ... 4 (adaptive)
Weight generation scheme         WeightScheme... mBecke (2022)
Basis function cutoff            BFCut       ... 1.0000e-10
Integration weight cutoff        WCut        ... 1.0000e-14
Partially contracted basis set               ... on
Rotationally invariant grid construction     ... off
Angular grids for H and He will be reduced by one unit

Total number of grid points                  ...   142706
Total number of batches                      ...     1140
Average number of points per batch           ...      125
Average number of grid points per atom       ...     3036
UseSFitting                                  ... on
Initializing property integral containers    ... done (  0.0 sec)

SHARK setup successfully completed in  13.9 seconds

Maximum memory used throughout the entire STARTUP-calculation: 99.2 MB
-------------------------------------------------------------------------------
                                 ORCA GUESS
                   Start orbitals & Density for SCF / CASSCF
-------------------------------------------------------------------------------

------------
SCF SETTINGS
------------
Hamiltonian:
 Density Functional     Method          .... DFT(GTOs)
 Exchange Functional    Exchange        .... B88
   X-Alpha parameter    XAlpha          ....  0.666667
   Becke's b parameter  XBeta           ....  0.004200
 Correlation Functional Correlation     .... LYP
 LDA part of GGA corr.  LDAOpt          .... VWN-5
 Gradients option       PostSCFGGA      .... off
 Hybrid DFT is turned on
   Fraction HF Exchange ScalHFX         ....  0.200000
   Scaling of DF-GGA-X  ScalDFX         ....  0.720000
   Scaling of DF-GGA-C  ScalDFC         ....  0.810000
   Scaling of DF-LDA-C  ScalLDAC        ....  1.000000
   Perturbative correction              ....  0.000000
   NL short-range parameter             ....  4.800000
 RI-approximation to the Coulomb term is turned on
   Number of AuxJ basis functions       .... 1657
   RIJ-COSX (HFX calculated with COS-X)).... on


General Settings:
 Integral files         IntName         .... /home/nmrbox/aojoawo/Documents/ERDOS/inputs/CHEMBL3235974
 Hartree-Fock type      HFTyp           .... RHF
 Total Charge           Charge          ....    0
 Multiplicity           Mult            ....    1
 Number of Electrons    NEL             ....  214
 Basis Dimension        Dim             ....  454
 Nuclear Repulsion      ENuc            ....   2772.0232314401 Eh

Convergence Acceleration:
 AO-DIIS                CNVDIIS         .... on
   Start iteration      DIISMaxIt       ....    12
   Startup error        DIISStart       ....  0.200000
   # of expansion vecs  DIISMaxEq       ....     5
   Bias factor          DIISBfac        ....   1.050
   Max. coefficient     DIISMaxC        ....  10.000
 MO-DIIS                CNVKDIIS        .... off
 Trust-Rad. Augm. Hess. CNVTRAH         .... auto
   Auto Start mean grad. ratio tolernc. ....  1.125000
   Auto Start start iteration           ....    50
   Auto Start num. interpolation iter.  ....    10
   Max. Number of Micro iterations      ....    24
   Max. Number of Macro iterations      .... Maxiter - #DIIS iter
   Number of Davidson start vectors     ....     2
   Converg. threshold    (grad. norm)   ....   5.000e-05
   Grad. Scal. Fac. for Micro threshold ....   0.100
   Minimum threshold for Micro iter.    ....   1.000e-02
   NR start threshold (gradient norm)   ....   1.000e-04
   Initial trust radius                 ....   0.400
   Minimum AH scaling param. (alpha)    ....   1.000
   Maximum AH scaling param. (alpha)    .... 1000.000
   Quad. conv. algorithm                .... NR
   White noise on init. David. guess    .... on
   Maximum white noise                  ....   0.010
   Pseudo random numbers                .... off
   Inactive MOs                         .... canonical
   Orbital update algorithm             .... Taylor
   Preconditioner                       .... Diag
   Full preconditioner red. dimension   ....   250
 SOSCF                  CNVSOSCF        .... on
   Start iteration      SOSCFMaxIt      ....   150
   Startup grad/error   SOSCFStart      ....  0.003300
   Hessian update       SOSCFHessUp     .... L-BFGS
 Level Shifting         CNVShift        .... on
   Level shift para.    LevelShift      ....    0.2500
   Turn off err/grad.   ShiftErr        ....    0.0010
 Zerner damping         CNVZerner       .... off
 Static damping         CNVDamp         .... on
   Fraction old density DampFac         ....    0.7000
   Max. Damping (<1)    DampMax         ....    0.9800
   Min. Damping (>=0)   DampMin         ....    0.0000
   Turn off err/grad.   DampErr         ....    0.1000

SCF Procedure:
 Maximum # iterations   MaxIter         ....   125
 SCF integral mode      SCFMode         .... Direct
   Integral package                     .... SHARK and LIBINT hybrid scheme
 Reset frequency        DirectResetFreq ....    20
 Integral Threshold     Thresh          ....  1.000e-10 Eh
 Primitive CutOff       TCut            ....  1.000e-11 Eh

Convergence Tolerance:
 Convergence Check Mode ConvCheckMode   .... Total+1el-Energy
 Convergence forced     ConvForced      .... 0
 Energy Change          TolE            ....  1.000e-06 Eh
 1-El. energy change                    ....  1.000e-03 Eh
 Orbital Gradient       TolG            ....  5.000e-05
 Orbital Rotation angle TolX            ....  5.000e-05
 DIIS Error             TolErr          ....  1.000e-06

------------------------------
INITIAL GUESS: MODEL POTENTIAL
------------------------------
Loading Hartree-Fock densities                     ... done
Calculating cut-offs                               ... done
Initializing the effective Hamiltonian             ... done
Setting up the integral package (SHARK)            ... done
Starting the Coulomb interaction                   ... done (   3.2 sec)
Making the grid                                    ... done (   1.7 sec)
Mapping shells                                     ... done
Starting the XC term evaluation                    ... done (   1.3 sec)
  promolecular density results
     # of electrons  =    213.972793346
     EX              =   -186.231752655
     EC              =     -7.450239280
     EX+EC           =   -193.681991935
Transforming the Hamiltonian                       ... done (   0.0 sec)
Diagonalizing the Hamiltonian                      ... done (   0.0 sec)
Back transforming the eigenvectors                 ... done (   0.0 sec)
Now organizing SCF variables                       ... done
                      ------------------
                      INITIAL GUESS DONE (   6.3 sec)
                      ------------------
             **** ENERGY FILE WAS UPDATED (/home/nmrbox/aojoawo/Documents/ERDOS/inputs/CHEMBL3235974.en.tmp) ****
Finished Guess after   6.6 sec
Maximum memory used throughout the entire GUESS-calculation: 53.7 MB

-------------------------------------------------------------------------------------------
                                      ORCA LEAN-SCF
                              memory conserving SCF solver
-------------------------------------------------------------------------------------------

----------------------------------------D-I-I-S--------------------------------------------
Iteration    Energy (Eh)           Delta-E    RMSDP     MaxDP     DIISErr   Damp  Time(sec)
-------------------------------------------------------------------------------------------
               ***  Starting incremental Fock matrix formation  ***
    1    -1485.9679704570107788     0.00e+00  1.98e-03  1.05e-01  2.84e-01  0.700  63.2
    2    -1486.2616190738035584    -2.94e-01  1.32e-03  5.45e-02  9.94e-02  0.700  28.3
                               ***Turning on AO-DIIS***
    3    -1486.3751604472172403    -1.14e-01  5.56e-04  1.74e-02  3.63e-02  0.700  27.6
    4    -1486.4454081042840699    -7.02e-02  9.22e-04  2.48e-02  1.61e-02  0.000  25.0
    5    -1486.5998551304792272    -1.54e-01  2.05e-04  7.61e-03  6.36e-03  0.000  26.5
                              *** Initializing SOSCF ***
---------------------------------------S-O-S-C-F--------------------------------------
Iteration    Energy (Eh)           Delta-E    RMSDP     MaxDP     MaxGrad    Time(sec)
--------------------------------------------------------------------------------------
    6    -1486.6008016705609407    -9.47e-04  6.57e-05  2.30e-03  2.06e-03    22.0
               *** Restarting incremental Fock matrix formation ***
    7    -1486.6007980365748153     3.63e-06  5.38e-05  3.62e-03  3.64e-04    64.6
    8    -1486.6007643597131391     3.37e-05  3.33e-05  2.57e-03  9.90e-04    36.0
    9    -1486.6008117998590023    -4.74e-05  8.27e-06  4.62e-04  7.46e-05    32.6
   10    -1486.6008109359563605     8.64e-07  5.30e-06  3.45e-04  1.21e-04    25.1
                 **** Energy Check signals convergence ****

               *****************************************************
               *                     SUCCESS                       *
               *           SCF CONVERGED AFTER  10 CYCLES          *
               *****************************************************

Recomputing exchange energy using gridx3       ... done (  112.385 sec)
Old exchange energy                            :    -37.676824419 Eh
New exchange energy                            :    -37.676898554 Eh
Exchange energy change after final integration :     -0.000074135 Eh
Total energy after final integration           :  -1486.600885071 Eh
             **** ENERGY FILE WAS UPDATED (/home/nmrbox/aojoawo/Documents/ERDOS/inputs/CHEMBL3235974.en.tmp) ****

----------------
TOTAL SCF ENERGY
----------------

Total Energy       :      -1486.60088507124647 Eh          -40452.46665 eV

Components:
Nuclear Repulsion  :       2772.02323144013371 Eh           75430.58694 eV
Electronic Energy  :      -4258.62404237609007 Eh         -115883.05157 eV
One Electron Energy:      -7546.47449124404466 Eh         -205350.01070 eV
Two Electron Energy:       3287.85044886795458 Eh           89466.95913 eV

Virial components:
Potential Energy   :      -2963.94478706368045 Eh          -80653.03798 eV
Kinetic Energy     :       1477.34390199243398 Eh           40200.57133 eV
Virial Ratio       :          2.00626596357580

DFT components:
N(Alpha)           :      106.999957390069 electrons
N(Beta)            :      106.999957390069 electrons
N(Total)           :      213.999914780138 electrons
E(X)               :     -149.763477969550 Eh       
E(C)               :       -8.755396050883 Eh       
E(XC)              :     -158.518874020433 Eh       

---------------
SCF CONVERGENCE
---------------

  Last Energy change         ...   -8.6390e-07  Tolerance :   1.0000e-06
  Last MAX-Density change    ...    3.4472e-04  Tolerance :   1.0000e-05
  Last RMS-Density change    ...    5.3012e-06  Tolerance :   1.0000e-06
  Last DIIS Error            ...    2.0560e-03  Tolerance :   1.0000e-06
  Last Orbital Gradient      ...    1.2085e-04  Tolerance :   5.0000e-05
  Last Orbital Rotation      ...    1.7156e-04  Tolerance :   5.0000e-05


----------------
ORBITAL ENERGIES
----------------

  NO   OCC          E(Eh)            E(eV) 
   0   2.0000     -24.719134      -672.6418 
   1   2.0000     -24.718583      -672.6268 
   2   2.0000     -24.715221      -672.5353 
   3   2.0000     -24.694761      -671.9786 
   4   2.0000     -19.112385      -520.0744 
   5   2.0000     -14.377496      -391.2316 
   6   2.0000     -14.368972      -390.9996 
   7   2.0000     -14.327686      -389.8762 
   8   2.0000     -10.434113      -283.9267 
   9   2.0000     -10.326679      -281.0032 
  10   2.0000     -10.264562      -279.3129 
  11   2.0000     -10.247642      -278.8525 
  12   2.0000     -10.238266      -278.5974 
  13   2.0000     -10.237439      -278.5749 
  14   2.0000     -10.223788      -278.2034 
  15   2.0000     -10.222184      -278.1598 
  16   2.0000     -10.219346      -278.0825 
  17   2.0000     -10.214857      -277.9604 
  18   2.0000     -10.210287      -277.8360 
  19   2.0000     -10.207629      -277.7637 
  20   2.0000     -10.205485      -277.7054 
  21   2.0000     -10.205140      -277.6960 
  22   2.0000     -10.203226      -277.6439 
  23   2.0000     -10.201615      -277.6001 
  24   2.0000     -10.198121      -277.5050 
  25   2.0000     -10.197550      -277.4894 
  26   2.0000     -10.195842      -277.4430 
  27   2.0000     -10.192089      -277.3408 
  28   2.0000     -10.190210      -277.2897 
  29   2.0000     -10.189617      -277.2736 
  30   2.0000      -1.278668       -34.7943 
  31   2.0000      -1.207887       -32.8683 
  32   2.0000      -1.204207       -32.7681 
  33   2.0000      -1.202955       -32.7341 
  34   2.0000      -1.029145       -28.0045 
  35   2.0000      -0.945356       -25.7244 
  36   2.0000      -0.928339       -25.2614 
  37   2.0000      -0.923658       -25.1340 
  38   2.0000      -0.874596       -23.7990 
  39   2.0000      -0.849409       -23.1136 
  40   2.0000      -0.825190       -22.4546 
  41   2.0000      -0.815298       -22.1854 
  42   2.0000      -0.781324       -21.2609 
  43   2.0000      -0.762023       -20.7357 
  44   2.0000      -0.755468       -20.5573 
  45   2.0000      -0.753251       -20.4970 
  46   2.0000      -0.742387       -20.2014 
  47   2.0000      -0.711250       -19.3541 
  48   2.0000      -0.679633       -18.4938 
  49   2.0000      -0.662310       -18.0224 
  50   2.0000      -0.634408       -17.2631 
  51   2.0000      -0.632358       -17.2073 
  52   2.0000      -0.625404       -17.0181 
  53   2.0000      -0.622651       -16.9432 
  54   2.0000      -0.607399       -16.5282 
  55   2.0000      -0.592671       -16.1274 
  56   2.0000      -0.569637       -15.5006 
  57   2.0000      -0.566766       -15.4225 
  58   2.0000      -0.563831       -15.3426 
  59   2.0000      -0.560869       -15.2620 
  60   2.0000      -0.548380       -14.9222 
  61   2.0000      -0.538175       -14.6445 
  62   2.0000      -0.523722       -14.2512 
  63   2.0000      -0.514621       -14.0035 
  64   2.0000      -0.499756       -13.5990 
  65   2.0000      -0.493826       -13.4377 
  66   2.0000      -0.484794       -13.1919 
  67   2.0000      -0.478852       -13.0302 
  68   2.0000      -0.477065       -12.9816 
  69   2.0000      -0.463889       -12.6231 
  70   2.0000      -0.458944       -12.4885 
  71   2.0000      -0.451277       -12.2799 
  72   2.0000      -0.450464       -12.2578 
  73   2.0000      -0.447592       -12.1796 
  74   2.0000      -0.445388       -12.1196 
  75   2.0000      -0.438126       -11.9220 
  76   2.0000      -0.437262       -11.8985 
  77   2.0000      -0.431086       -11.7304 
  78   2.0000      -0.429007       -11.6739 
  79   2.0000      -0.425554       -11.5799 
  80   2.0000      -0.420058       -11.4304 
  81   2.0000      -0.414653       -11.2833 
  82   2.0000      -0.410715       -11.1761 
  83   2.0000      -0.408430       -11.1139 
  84   2.0000      -0.403961       -10.9923 
  85   2.0000      -0.401814       -10.9339 
  86   2.0000      -0.397398       -10.8137 
  87   2.0000      -0.396851       -10.7989 
  88   2.0000      -0.385758       -10.4970 
  89   2.0000      -0.377862       -10.2822 
  90   2.0000      -0.376079       -10.2336 
  91   2.0000      -0.371997       -10.1226 
  92   2.0000      -0.362697        -9.8695 
  93   2.0000      -0.361572        -9.8389 
  94   2.0000      -0.358471        -9.7545 
  95   2.0000      -0.351028        -9.5520 
  96   2.0000      -0.345180        -9.3928 
  97   2.0000      -0.297071        -8.0837 
  98   2.0000      -0.285278        -7.7628 
  99   2.0000      -0.267803        -7.2873 
 100   2.0000      -0.265628        -7.2281 
 101   2.0000      -0.262557        -7.1445 
 102   2.0000      -0.259625        -7.0648 
 103   2.0000      -0.253420        -6.8959 
 104   2.0000      -0.245787        -6.6882 
 105   2.0000      -0.239506        -6.5173 
 106   2.0000      -0.215831        -5.8731 
 107   0.0000      -0.036481        -0.9927 
 108   0.0000      -0.031125        -0.8470 
 109   0.0000      -0.023864        -0.6494 
 110   0.0000      -0.011887        -0.3235 
 111   0.0000      -0.008794        -0.2393 
 112   0.0000      -0.007412        -0.2017 
 113   0.0000       0.033517         0.9120 
 114   0.0000       0.060943         1.6584 
 115   0.0000       0.080460         2.1894 
 116   0.0000       0.087978         2.3940 
 117   0.0000       0.094941         2.5835 
*Only the first 10 virtual orbitals were printed.

                    ********************************
                    * MULLIKEN POPULATION ANALYSIS *
                    ********************************

-----------------------
MULLIKEN ATOMIC CHARGES
-----------------------
   0 O :   -0.490445
   1 C :    0.687917
   2 N :   -0.717759
   3 C :    0.341630
   4 C :   -0.174148
   5 C :   -0.211407
   6 C :    0.408182
   7 F :   -0.320803
   8 C :   -0.219618
   9 C :   -0.126136
  10 N :   -0.451723
  11 C :   -0.160166
  12 C :   -0.338103
  13 C :    0.081772
  14 C :   -0.033304
  15 N :   -0.365666
  16 C :    0.015787
  17 C :   -0.178230
  18 C :    0.117914
  19 C :   -0.108487
  20 C :    0.179340
  21 C :   -0.181466
  22 C :   -0.160928
  23 C :   -0.015906
  24 C :    0.895764
  25 F :   -0.296905
  26 F :   -0.305169
  27 F :   -0.306004
  28 C :   -0.159607
  29 C :   -0.181680
  30 H :    0.331362
  31 H :    0.131577
  32 H :    0.145713
  33 H :    0.148271
  34 H :    0.158266
  35 H :    0.162577
  36 H :    0.138091
  37 H :    0.150164
  38 H :    0.172251
  39 H :    0.145505
  40 H :    0.151708
  41 H :    0.139973
  42 H :    0.190918
  43 H :    0.138804
  44 H :    0.151918
  45 H :    0.156457
  46 H :    0.161804
Sum of atomic charges:    0.0000000

--------------------------------
MULLIKEN REDUCED ORBITAL CHARGES
--------------------------------
  0 O s       :     3.890403  s :     3.890403
      pz      :     1.333646  p :     4.574741
      px      :     1.625115
      py      :     1.615980
      dz2     :     0.009678  d :     0.025301
      dxz     :     0.007164
      dyz     :     0.007492
      dx2y2   :     0.000525
      dxy     :     0.000442

  1 C s       :     2.916125  s :     2.916125
      pz      :     0.734971  p :     2.280928
      px      :     0.764882
      py      :     0.781075
      dz2     :     0.025679  d :     0.115031
      dxz     :     0.037160
      dyz     :     0.029314
      dx2y2   :     0.012004
      dxy     :     0.010873

  2 N s       :     3.636336  s :     3.636336
      pz      :     1.206059  p :     4.051953
      px      :     1.295769
      py      :     1.550125
      dz2     :     0.008585  d :     0.029470
      dxz     :     0.007621
      dyz     :     0.003210
      dx2y2   :     0.005054
      dxy     :     0.004999

  3 C s       :     3.058077  s :     3.058077
      pz      :     0.921121  p :     2.545941
      px      :     0.762993
      py      :     0.861827
      dz2     :     0.009218  d :     0.054352
      dxz     :     0.009311
      dyz     :     0.008632
      dx2y2   :     0.014521
      dxy     :     0.012670

  4 C s       :     3.181350  s :     3.181350
      pz      :     0.992491  p :     2.957500
      px      :     0.994598
      py      :     0.970410
      dz2     :     0.005163  d :     0.035298
      dxz     :     0.008920
      dyz     :     0.006278
      dx2y2   :     0.008000
      dxy     :     0.006937

  5 C s       :     3.205582  s :     3.205582
      pz      :     0.978602  p :     2.970982
      px      :     0.987821
      py      :     1.004559
      dz2     :     0.006279  d :     0.034843
      dxz     :     0.007464
      dyz     :     0.007058
      dx2y2   :     0.006551
      dxy     :     0.007491

  6 C s       :     3.078683  s :     3.078683
      pz      :     0.905941  p :     2.440915
      px      :     0.673442
      py      :     0.861532
      dz2     :     0.012541  d :     0.072219
      dxz     :     0.014989
      dyz     :     0.010482
      dx2y2   :     0.017167
      dxy     :     0.017040

  7 F s       :     3.970923  s :     3.970923
      pz      :     1.890564  p :     5.332792
      px      :     1.610664
      py      :     1.831564
      dz2     :     0.002149  d :     0.017088
      dxz     :     0.003782
      dyz     :     0.001409
      dx2y2   :     0.004687
      dxy     :     0.005061

  8 C s       :     3.210400  s :     3.210400
      pz      :     0.992866  p :     2.974311
      px      :     1.005856
      py      :     0.975588
      dz2     :     0.004827  d :     0.034908
      dxz     :     0.009164
      dyz     :     0.006260
      dx2y2   :     0.007825
      dxy     :     0.006831

  9 C s       :     3.178485  s :     3.178485
      pz      :     0.985303  p :     2.912427
      px      :     0.953150
      py      :     0.973974
      dz2     :     0.006057  d :     0.035224
      dxz     :     0.007215
      dyz     :     0.007163
      dx2y2   :     0.007501
      dxy     :     0.007289

 10 N s       :     3.560349  s :     3.560349
      pz      :     1.224623  p :     3.858373
      px      :     1.189463
      py      :     1.444287
      dz2     :     0.007830  d :     0.033001
      dxz     :     0.007680
      dyz     :     0.004794
      dx2y2   :     0.006089
      dxy     :     0.006607

 11 C s       :     3.220060  s :     3.220060
      pz      :     0.868829  p :     2.885140
      px      :     1.074023
      py      :     0.942288
      dz2     :     0.013909  d :     0.054965
      dxz     :     0.009333
      dyz     :     0.014721
      dx2y2   :     0.011339
      dxy     :     0.005664

 12 C s       :     3.260251  s :     3.260251
      pz      :     1.053357  p :     3.037385
      px      :     1.025244
      py      :     0.958783
      dz2     :     0.007639  d :     0.040467
      dxz     :     0.007990
      dyz     :     0.007802
      dx2y2   :     0.009228
      dxy     :     0.007807

 13 C s       :     3.150259  s :     3.150259
      pz      :     0.957197  p :     2.728208
      px      :     0.870852
      py      :     0.900159
      dz2     :     0.006345  d :     0.039762
      dxz     :     0.007324
      dyz     :     0.006431
      dx2y2   :     0.009839
      dxy     :     0.009822

 14 C s       :     3.164195  s :     3.164195
      pz      :     0.950082  p :     2.816101
      px      :     0.901127
      py      :     0.964891
      dz2     :     0.005699  d :     0.053007
      dxz     :     0.010675
      dyz     :     0.009103
      dx2y2   :     0.012281
      dxy     :     0.015250

 15 N s       :     3.654959  s :     3.654959
      pz      :     1.080566  p :     3.675465
      px      :     1.176013
      py      :     1.418886
      dz2     :     0.006339  d :     0.035242
      dxz     :     0.005561
      dyz     :     0.007553
      dx2y2   :     0.008868
      dxy     :     0.006921

 16 C s       :     3.143699  s :     3.143699
      pz      :     0.912294  p :     2.786992
      px      :     0.962686
      py      :     0.912012
      dz2     :     0.007105  d :     0.053522
      dxz     :     0.010454
      dyz     :     0.010374
      dx2y2   :     0.015235
      dxy     :     0.010354

 17 C s       :     3.212125  s :     3.212125
      pz      :     1.000282  p :     2.931270
      px      :     0.963274
      py      :     0.967715
      dz2     :     0.003750  d :     0.034835
      dxz     :     0.006719
      dyz     :     0.007545
      dx2y2   :     0.008245
      dxy     :     0.008577

 18 C s       :     3.139064  s :     3.139064
      pz      :     0.917437  p :     2.703238
      px      :     0.883205
      py      :     0.902596
      dz2     :     0.007202  d :     0.039784
      dxz     :     0.007192
      dyz     :     0.006342
      dx2y2   :     0.009049
      dxy     :     0.009998

 19 C s       :     3.213032  s :     3.213032
      pz      :     1.048656  p :     2.835969
      px      :     0.820749
      py      :     0.966564
      dz2     :     0.014597  d :     0.059486
      dxz     :     0.010569
      dyz     :     0.005782
      dx2y2   :     0.013566
      dxy     :     0.014973

 20 C s       :     3.132736  s :     3.132736
      pz      :     0.846196  p :     2.648066
      px      :     0.915710
      py      :     0.886160
      dz2     :     0.009993  d :     0.039859
      dxz     :     0.007273
      dyz     :     0.010474
      dx2y2   :     0.005770
      dxy     :     0.006350

 21 C s       :     3.202244  s :     3.202244
      pz      :     0.978392  p :     2.943409
      px      :     0.988854
      py      :     0.976163
      dz2     :     0.007661  d :     0.035814
      dxz     :     0.005315
      dyz     :     0.012382
      dx2y2   :     0.005840
      dxy     :     0.004615

 22 C s       :     3.205456  s :     3.205456
      pz      :     0.983942  p :     2.919397
      px      :     0.978088
      py      :     0.957367
      dz2     :     0.009108  d :     0.036075
      dxz     :     0.006261
      dyz     :     0.008750
      dx2y2   :     0.006097
      dxy     :     0.005860

 23 C s       :     3.159685  s :     3.159685
      pz      :     0.907536  p :     2.818203
      px      :     0.996956
      py      :     0.913711
      dz2     :     0.009995  d :     0.038018
      dxz     :     0.007022
      dyz     :     0.009392
      dx2y2   :     0.004808
      dxy     :     0.006800

 24 C s       :     2.804498  s :     2.804498
      pz      :     0.626420  p :     2.161726
      px      :     0.692087
      py      :     0.843219
      dz2     :     0.026859  d :     0.138013
      dxz     :     0.035244
      dyz     :     0.024460
      dx2y2   :     0.021995
      dxy     :     0.029454

 25 F s       :     3.976288  s :     3.976288
      pz      :     1.845630  p :     5.304287
      px      :     1.730492
      py      :     1.728166
      dz2     :     0.002083  d :     0.016330
      dxz     :     0.002750
      dyz     :     0.002776
      dx2y2   :     0.003461
      dxy     :     0.005260

 26 F s       :     3.980259  s :     3.980259
      pz      :     1.616768  p :     5.308583
      px      :     1.832919
      py      :     1.858897
      dz2     :     0.004913  d :     0.016327
      dxz     :     0.004527
      dyz     :     0.003891
      dx2y2   :     0.001297
      dxy     :     0.001700

 27 F s       :     3.980135  s :     3.980135
      pz      :     1.716509  p :     5.309564
      px      :     1.686795
      py      :     1.906260
      dz2     :     0.002874  d :     0.016305
      dxz     :     0.006240
      dyz     :     0.002026
      dx2y2   :     0.002696
      dxy     :     0.002469

 28 C s       :     3.208201  s :     3.208201
      pz      :     0.969848  p :     2.915433
      px      :     0.960506
      py      :     0.985079
      dz2     :     0.007525  d :     0.035973
      dxz     :     0.005482
      dyz     :     0.012102
      dx2y2   :     0.006256
      dxy     :     0.004609

 29 C s       :     3.210364  s :     3.210364
      pz      :     0.998537  p :     2.935506
      px      :     0.978905
      py      :     0.958065
      dz2     :     0.009153  d :     0.035810
      dxz     :     0.006295
      dyz     :     0.008680
      dx2y2   :     0.005850
      dxy     :     0.005833

 30 H s       :     0.668638  s :     0.668638

 31 H s       :     0.868423  s :     0.868423

 32 H s       :     0.854287  s :     0.854287

 33 H s       :     0.851729  s :     0.851729

 34 H s       :     0.841734  s :     0.841734

 35 H s       :     0.837423  s :     0.837423

 36 H s       :     0.861909  s :     0.861909

 37 H s       :     0.849836  s :     0.849836

 38 H s       :     0.827749  s :     0.827749

 39 H s       :     0.854495  s :     0.854495

 40 H s       :     0.848292  s :     0.848292

 41 H s       :     0.860027  s :     0.860027

 42 H s       :     0.809082  s :     0.809082

 43 H s       :     0.861196  s :     0.861196

 44 H s       :     0.848082  s :     0.848082

 45 H s       :     0.843543  s :     0.843543

 46 H s       :     0.838196  s :     0.838196



                     *******************************
                     * LOEWDIN POPULATION ANALYSIS *
                     *******************************

----------------------
LOEWDIN ATOMIC CHARGES
----------------------
   0 O :   -0.305393
   1 C :    0.166010
   2 N :   -0.222294
   3 C :    0.033213
   4 C :   -0.144207
   5 C :   -0.154382
   6 C :    0.106539
   7 F :   -0.107082
   8 C :   -0.151841
   9 C :   -0.120930
  10 N :   -0.115429
  11 C :   -0.158285
  12 C :   -0.227295
  13 C :   -0.045610
  14 C :   -0.073548
  15 N :   -0.133169
  16 C :   -0.071438
  17 C :   -0.137895
  18 C :   -0.002617
  19 C :   -0.037882
  20 C :   -0.012144
  21 C :   -0.128597
  22 C :   -0.113458
  23 C :   -0.070271
  24 C :    0.309950
  25 F :   -0.114201
  26 F :   -0.113360
  27 F :   -0.114171
  28 C :   -0.109080
  29 C :   -0.124453
  30 H :    0.257405
  31 H :    0.133827
  32 H :    0.144418
  33 H :    0.145526
  34 H :    0.149386
  35 H :    0.136127
  36 H :    0.109791
  37 H :    0.134024
  38 H :    0.142324
  39 H :    0.133884
  40 H :    0.136601
  41 H :    0.139792
  42 H :    0.157664
  43 H :    0.135830
  44 H :    0.143258
  45 H :    0.145651
  46 H :    0.147813

-------------------------------
LOEWDIN REDUCED ORBITAL CHARGES
-------------------------------
  0 O s       :     3.590020  s :     3.590020
      pz      :     1.431081  p :     4.665476
      px      :     1.617723
      py      :     1.616672
      dz2     :     0.024584  d :     0.049897
      dxz     :     0.010730
      dyz     :     0.013096
      dx2y2   :     0.000812
      dxy     :     0.000676

  1 C s       :     2.840457  s :     2.840457
      pz      :     0.972170  p :     2.729912
      px      :     0.878088
      py      :     0.879655
      dz2     :     0.062432  d :     0.263620
      dxz     :     0.085042
      dyz     :     0.067486
      dx2y2   :     0.024100
      dxy     :     0.024560

  2 N s       :     3.146078  s :     3.146078
      pz      :     1.210577  p :     4.006947
      px      :     1.285342
      py      :     1.511028
      dz2     :     0.018943  d :     0.069269
      dxz     :     0.019699
      dyz     :     0.008405
      dx2y2   :     0.010863
      dxy     :     0.011360

  3 C s       :     2.854359  s :     2.854359
      pz      :     1.042633  p :     2.981003
      px      :     0.930326
      py      :     1.008044
      dz2     :     0.021680  d :     0.131425
      dxz     :     0.023436
      dyz     :     0.022044
      dx2y2   :     0.033689
      dxy     :     0.030576

  4 C s       :     2.914136  s :     2.914136
      pz      :     1.056141  p :     3.147147
      px      :     1.057588
      py      :     1.033419
      dz2     :     0.011550  d :     0.082924
      dxz     :     0.019301
      dyz     :     0.014333
      dx2y2   :     0.019207
      dxy     :     0.018533

  5 C s       :     2.919967  s :     2.919967
      pz      :     1.044287  p :     3.152179
      px      :     1.051574
      py      :     1.056317
      dz2     :     0.014671  d :     0.082236
      dxz     :     0.019695
      dyz     :     0.014779
      dx2y2   :     0.015614
      dxy     :     0.017477

  6 C s       :     2.864005  s :     2.864005
      pz      :     1.028570  p :     2.850543
      px      :     0.833285
      py      :     0.988687
      dz2     :     0.030022  d :     0.178913
      dxz     :     0.038986
      dyz     :     0.025052
      dx2y2   :     0.041175
      dxy     :     0.043677

  7 F s       :     3.734674  s :     3.734674
      pz      :     1.885163  p :     5.337980
      px      :     1.622968
      py      :     1.829848
      dz2     :     0.004316  d :     0.034428
      dxz     :     0.007541
      dyz     :     0.002819
      dx2y2   :     0.009491
      dxy     :     0.010261

  8 C s       :     2.920988  s :     2.920988
      pz      :     1.050193  p :     3.148658
      px      :     1.057026
      py      :     1.041438
      dz2     :     0.010711  d :     0.082195
      dxz     :     0.019386
      dyz     :     0.014732
      dx2y2   :     0.018903
      dxy     :     0.018462

  9 C s       :     2.915862  s :     2.915862
      pz      :     1.036318  p :     3.122840
      px      :     1.034277
      py      :     1.052244
      dz2     :     0.013973  d :     0.082228
      dxz     :     0.018804
      dyz     :     0.014680
      dx2y2   :     0.017357
      dxy     :     0.017414

 10 N s       :     3.114204  s :     3.114204
      pz      :     1.284656  p :     3.917819
      px      :     1.212452
      py      :     1.420711
      dz2     :     0.019411  d :     0.083407
      dxz     :     0.020311
      dyz     :     0.012559
      dx2y2   :     0.014489
      dxy     :     0.016636

 11 C s       :     2.926005  s :     2.926005
      pz      :     0.968964  p :     3.116199
      px      :     1.112323
      py      :     1.034912
      dz2     :     0.031548  d :     0.116081
      dxz     :     0.018755
      dyz     :     0.030583
      dx2y2   :     0.023943
      dxy     :     0.011253

 12 C s       :     2.929481  s :     2.929481
      pz      :     1.098410  p :     3.211984
      px      :     1.064567
      py      :     1.049008
      dz2     :     0.015768  d :     0.085829
      dxz     :     0.016028
      dyz     :     0.015244
      dx2y2   :     0.021793
      dxy     :     0.016997

 13 C s       :     2.880524  s :     2.880524
      pz      :     1.002545  p :     3.064560
      px      :     1.020043
      py      :     1.041972
      dz2     :     0.014116  d :     0.100526
      dxz     :     0.017386
      dyz     :     0.016473
      dx2y2   :     0.026519
      dxy     :     0.026032

 14 C s       :     2.916517  s :     2.916517
      pz      :     0.997402  p :     3.034906
      px      :     1.000860
      py      :     1.036643
      dz2     :     0.012805  d :     0.122125
      dxz     :     0.024257
      dyz     :     0.017434
      dx2y2   :     0.028839
      dxy     :     0.038790

 15 N s       :     3.241473  s :     3.241473
      pz      :     1.129925  p :     3.812785
      px      :     1.251168
      py      :     1.431692
      dz2     :     0.013843  d :     0.078910
      dxz     :     0.015046
      dyz     :     0.015445
      dx2y2   :     0.019235
      dxy     :     0.015342

 16 C s       :     2.914455  s :     2.914455
      pz      :     0.974816  p :     3.033792
      px      :     1.047105
      py      :     1.011870
      dz2     :     0.014522  d :     0.123192
      dxz     :     0.022231
      dyz     :     0.026158
      dx2y2   :     0.035156
      dxy     :     0.025125

 17 C s       :     2.924438  s :     2.924438
      pz      :     1.026407  p :     3.130340
      px      :     1.047220
      py      :     1.056712
      dz2     :     0.008541  d :     0.083118
      dxz     :     0.015175
      dyz     :     0.015604
      dx2y2   :     0.021076
      dxy     :     0.022721

 18 C s       :     2.879407  s :     2.879407
      pz      :     0.995684  p :     3.024283
      px      :     1.028914
      py      :     0.999685
      dz2     :     0.015536  d :     0.098927
      dxz     :     0.018922
      dyz     :     0.015776
      dx2y2   :     0.023514
      dxy     :     0.025178

 19 C s       :     2.878136  s :     2.878136
      pz      :     1.073874  p :     3.030141
      px      :     0.925919
      py      :     1.030348
      dz2     :     0.030748  d :     0.129604
      dxz     :     0.023507
      dyz     :     0.011150
      dx2y2   :     0.029086
      dxy     :     0.035113

 20 C s       :     2.884378  s :     2.884378
      pz      :     1.057453  p :     3.028168
      px      :     0.961900
      py      :     1.008815
      dz2     :     0.026869  d :     0.099598
      dxz     :     0.017396
      dyz     :     0.028034
      dx2y2   :     0.012659
      dxy     :     0.014640

 21 C s       :     2.916324  s :     2.916324
      pz      :     1.059227  p :     3.128268
      px      :     1.011893
      py      :     1.057148
      dz2     :     0.018782  d :     0.084005
      dxz     :     0.013020
      dyz     :     0.028112
      dx2y2   :     0.012431
      dxy     :     0.011660

 22 C s       :     2.916838  s :     2.916838
      pz      :     1.066640  p :     3.112072
      px      :     1.001849
      py      :     1.043583
      dz2     :     0.020295  d :     0.084549
      dxz     :     0.012435
      dyz     :     0.022703
      dx2y2   :     0.014616
      dxy     :     0.014499

 23 C s       :     2.888263  s :     2.888263
      pz      :     1.068155  p :     3.085438
      px      :     1.009495
      py      :     1.007788
      dz2     :     0.027202  d :     0.096570
      dxz     :     0.016923
      dyz     :     0.026028
      dx2y2   :     0.010918
      dxy     :     0.015499

 24 C s       :     2.850324  s :     2.850324
      pz      :     0.769252  p :     2.510416
      px      :     0.816549
      py      :     0.924615
      dz2     :     0.063993  d :     0.329311
      dxz     :     0.088338
      dyz     :     0.055546
      dx2y2   :     0.047359
      dxy     :     0.074075

 25 F s       :     3.761654  s :     3.761654
      pz      :     1.847729  p :     5.321295
      px      :     1.735858
      py      :     1.737707
      dz2     :     0.003638  d :     0.031252
      dxz     :     0.005173
      dyz     :     0.005256
      dx2y2   :     0.006115
      dxy     :     0.011070

 26 F s       :     3.759290  s :     3.759290
      pz      :     1.631283  p :     5.323082
      px      :     1.833253
      py      :     1.858546
      dz2     :     0.009118  d :     0.030988
      dxz     :     0.008925
      dyz     :     0.007980
      dx2y2   :     0.001926
      dxy     :     0.003040

 27 F s       :     3.759235  s :     3.759235
      pz      :     1.725655  p :     5.323962
      px      :     1.697025
      py      :     1.901283
      dz2     :     0.004675  d :     0.030974
      dxz     :     0.013251
      dyz     :     0.003591
      dx2y2   :     0.005265
      dxy     :     0.004191

 28 C s       :     2.918144  s :     2.918144
      pz      :     1.054603  p :     3.106721
      px      :     0.991597
      py      :     1.060522
      dz2     :     0.018443  d :     0.084215
      dxz     :     0.013485
      dyz     :     0.027404
      dx2y2   :     0.013331
      dxy     :     0.011552

 29 C s       :     2.919489  s :     2.919489
      pz      :     1.069119  p :     3.120879
      px      :     1.006523
      py      :     1.045237
      dz2     :     0.020332  d :     0.084085
      dxz     :     0.012265
      dyz     :     0.022514
      dx2y2   :     0.014277
      dxy     :     0.014698

 30 H s       :     0.742595  s :     0.742595

 31 H s       :     0.866173  s :     0.866173

 32 H s       :     0.855582  s :     0.855582

 33 H s       :     0.854474  s :     0.854474

 34 H s       :     0.850614  s :     0.850614

 35 H s       :     0.863873  s :     0.863873

 36 H s       :     0.890209  s :     0.890209

 37 H s       :     0.865976  s :     0.865976

 38 H s       :     0.857676  s :     0.857676

 39 H s       :     0.866116  s :     0.866116

 40 H s       :     0.863399  s :     0.863399

 41 H s       :     0.860208  s :     0.860208

 42 H s       :     0.842336  s :     0.842336

 43 H s       :     0.864170  s :     0.864170

 44 H s       :     0.856742  s :     0.856742

 45 H s       :     0.854349  s :     0.854349

 46 H s       :     0.852187  s :     0.852187



                      *****************************
                      * MAYER POPULATION ANALYSIS *
                      *****************************

  NA   - Mulliken gross atomic population
  ZA   - Total nuclear charge
  QA   - Mulliken gross atomic charge
  VA   - Mayer's total valence
  BVA  - Mayer's bonded valence
  FA   - Mayer's free valence

  ATOM       NA         ZA         QA         VA         BVA        FA
  0 O      8.4904     8.0000    -0.4904     2.0367     2.0367    -0.0000
  1 C      5.3121     6.0000     0.6879     3.9268     3.9268    -0.0000
  2 N      7.7178     7.0000    -0.7178     2.8732     2.8732    -0.0000
  3 C      5.6584     6.0000     0.3416     3.8651     3.8651     0.0000
  4 C      6.1741     6.0000    -0.1741     3.9059     3.9059    -0.0000
  5 C      6.2114     6.0000    -0.2114     3.9060     3.9060    -0.0000
  6 C      5.5918     6.0000     0.4082     3.8238     3.8238     0.0000
  7 F      9.3208     9.0000    -0.3208     1.0408     1.0408    -0.0000
  8 C      6.2196     6.0000    -0.2196     3.8936     3.8936     0.0000
  9 C      6.1261     6.0000    -0.1261     3.9087     3.9087     0.0000
 10 N      7.4517     7.0000    -0.4517     2.9938     2.9938     0.0000
 11 C      6.1602     6.0000    -0.1602     3.8350     3.8350    -0.0000
 12 C      6.3381     6.0000    -0.3381     3.8371     3.8371     0.0000
 13 C      5.9182     6.0000     0.0818     3.9322     3.9322     0.0000
 14 C      6.0333     6.0000    -0.0333     3.8940     3.8940     0.0000
 15 N      7.3657     7.0000    -0.3657     3.0168     3.0168    -0.0000
 16 C      5.9842     6.0000     0.0158     3.9099     3.9099     0.0000
 17 C      6.1782     6.0000    -0.1782     3.8803     3.8803    -0.0000
 18 C      5.8821     6.0000     0.1179     3.9384     3.9384    -0.0000
 19 C      6.1085     6.0000    -0.1085     3.8422     3.8422     0.0000
 20 C      5.8207     6.0000     0.1793     3.8990     3.8990     0.0000
 21 C      6.1815     6.0000    -0.1815     3.9050     3.9050     0.0000
 22 C      6.1609     6.0000    -0.1609     3.9322     3.9322    -0.0000
 23 C      6.0159     6.0000    -0.0159     3.9614     3.9614    -0.0000
 24 C      5.1042     6.0000     0.8958     3.9143     3.9143    -0.0000
 25 F      9.2969     9.0000    -0.2969     1.0558     1.0558     0.0000
 26 F      9.3052     9.0000    -0.3052     1.0548     1.0548    -0.0000
 27 F      9.3060     9.0000    -0.3060     1.0538     1.0538     0.0000
 28 C      6.1596     6.0000    -0.1596     3.9178     3.9178    -0.0000
 29 C      6.1817     6.0000    -0.1817     3.9201     3.9201     0.0000
 30 H      0.6686     1.0000     0.3314     0.8643     0.8643    -0.0000
 31 H      0.8684     1.0000     0.1316     0.9380     0.9380    -0.0000
 32 H      0.8543     1.0000     0.1457     0.9368     0.9368    -0.0000
 33 H      0.8517     1.0000     0.1483     0.9364     0.9364     0.0000
 34 H      0.8417     1.0000     0.1583     0.9446     0.9446     0.0000
 35 H      0.8374     1.0000     0.1626     0.9387     0.9387    -0.0000
 36 H      0.8619     1.0000     0.1381     0.9280     0.9280    -0.0000
 37 H      0.8498     1.0000     0.1502     0.9339     0.9339     0.0000
 38 H      0.8277     1.0000     0.1723     0.9254     0.9254     0.0000
 39 H      0.8545     1.0000     0.1455     0.9360     0.9360    -0.0000
 40 H      0.8483     1.0000     0.1517     0.9328     0.9328     0.0000
 41 H      0.8600     1.0000     0.1400     0.9436     0.9436    -0.0000
 42 H      0.8091     1.0000     0.1909     0.9301     0.9301    -0.0000
 43 H      0.8612     1.0000     0.1388     0.9440     0.9440     0.0000
 44 H      0.8481     1.0000     0.1519     0.9409     0.9409    -0.0000
 45 H      0.8435     1.0000     0.1565     0.9399     0.9399     0.0000
 46 H      0.8382     1.0000     0.1618     0.9380     0.9380    -0.0000

  Mayer bond orders larger than 0.100000
B(  0-O ,  1-C ) :   1.7828 B(  1-C ,  2-N ) :   1.0142 B(  1-C , 10-N ) :   1.0349 
B(  2-N ,  3-C ) :   0.8670 B(  2-N , 30-H ) :   0.8227 B(  3-C ,  4-C ) :   1.4083 
B(  3-C ,  9-C ) :   1.4185 B(  4-C ,  5-C ) :   1.4275 B(  4-C , 31-H ) :   0.9241 
B(  5-C ,  6-C ) :   1.3978 B(  5-C , 32-H ) :   0.9203 B(  6-C ,  7-F ) :   0.9141 
B(  6-C ,  8-C ) :   1.3837 B(  8-C ,  9-C ) :   1.4299 B(  8-C , 33-H ) :   0.9206 
B(  9-C , 34-H ) :   0.9118 B( 10-N , 11-C ) :   0.9471 B( 10-N , 19-C ) :   0.9217 
B( 11-C , 12-C ) :   0.9890 B( 11-C , 35-H ) :   0.9254 B( 11-C , 36-H ) :   0.9176 
B( 12-C , 13-C ) :   0.9888 B( 12-C , 37-H ) :   0.9274 B( 12-C , 38-H ) :   0.9179 
B( 13-C , 14-C ) :   1.3594 B( 13-C , 18-C ) :   1.4405 B( 14-C , 15-N ) :   1.4437 
B( 14-C , 17-C ) :   0.1014 B( 14-C , 39-H ) :   0.9290 B( 15-N , 16-C ) :   1.4195 
B( 16-C , 17-C ) :   1.4177 B( 16-C , 40-H ) :   0.9307 B( 17-C , 18-C ) :   1.4009 
B( 17-C , 41-H ) :   0.9159 B( 18-C , 19-C ) :   0.9605 B( 19-C , 20-C ) :   0.9411 
B( 19-C , 42-H ) :   0.8950 B( 20-C , 21-C ) :   1.4074 B( 20-C , 29-C ) :   1.4250 
B( 21-C , 22-C ) :   1.4368 B( 21-C , 43-H ) :   0.9175 B( 22-C , 23-C ) :   1.4044 
B( 22-C , 44-H ) :   0.9201 B( 23-C , 24-C ) :   0.9795 B( 23-C , 28-C ) :   1.4160 
B( 24-C , 25-F ) :   0.9860 B( 24-C , 26-F ) :   0.9487 B( 24-C , 27-F ) :   0.9476 
B( 28-C , 29-C ) :   1.4125 B( 28-C , 45-H ) :   0.9193 B( 29-C , 46-H ) :   0.9166 


-------
TIMINGS
-------

Total SCF time: 0 days 0 hours 7 min 44 sec 

Total time                  ....     464.108 sec
Sum of individual times     ....     463.723 sec  ( 99.9%)

SCF preparation             ....       0.350 sec  (  0.1%)
Fock matrix formation       ....     461.187 sec  ( 99.4%)
  Startup                   ....       0.126 sec  (  0.0% of F)
  Split-RI-J                ....      53.719 sec  ( 11.6% of F)
  Chain of spheres X        ....     366.175 sec  ( 79.4% of F)
  XC integration            ....      40.291 sec  (  8.7% of F)
    XC Preparation          ....       0.000 sec  (  0.0% of XC)
    Basis function eval.    ....      15.044 sec  ( 37.3% of XC)
    Density eval.           ....      10.406 sec  ( 25.8% of XC)
    XC-Functional eval.     ....       1.948 sec  (  4.8% of XC)
    XC-Potential eval.      ....      11.285 sec  ( 28.0% of XC)
Diagonalization             ....       0.000 sec  (  0.0%)
Density matrix formation    ....       0.295 sec  (  0.1%)
Total Energy calculation    ....       0.089 sec  (  0.0%)
Population analysis         ....       0.117 sec  (  0.0%)
Orbital Transformation      ....       0.207 sec  (  0.0%)
Orbital Orthonormalization  ....       0.000 sec  (  0.0%)
DIIS solution               ....       1.044 sec  (  0.2%)
SOSCF solution              ....       0.435 sec  (  0.1%)
Finished LeanSCF after 464.2 sec

Maximum memory used throughout the entire LEANSCF-calculation: 73.1 MB

-------------------------   --------------------
FINAL SINGLE POINT ENERGY     -1486.600885071246
-------------------------   --------------------


------------------------------------------------------------------------------
                              ORCA PROPERTY CALCULATIONS
------------------------------------------------------------------------------

GBWName                                 ... /home/nmrbox/aojoawo/Documents/ERDOS/inputs/CHEMBL3235974.gbw
Number of atoms                         ...     47
Number of basis functions               ...    454
Max core memory                         ...   1024 MB

Electric properties:
Dipole moment                           ... YES
Quadrupole moment                       ...  NO
Static polarizability (Dipole/Dipole)   ...  NO
Static polarizability (Dipole/Quad.)    ...  NO
Static polarizability (Quad./Quad.)     ...  NO
Static polarizability (Velocity)        ...  NO

Atomic electric properties:
Dipole moment                           ...  NO
Quadrupole moment                       ...  NO
Static polarizability                   ...  NO

Choice of electric origin               ... Center of mass
Position of electric origin             ...    -0.345588     0.940043     0.079591

General magnetic properties:
Magnetizability                         ...  NO

EPR properties:
g-Tensor (aka g-matrix)                 ...  NO
Zero-Field splitting spin-orbit         ...  NO
Zero-field splitting spin-spin          ...  NO
Hyperfine couplings                     ...  NO (   0 nuclei)
Quadrupole couplings                    ...  NO (   0 nuclei)
Contact density                         ...  NO (   0 nuclei)

NMR properties:
Chemical shifts                         ...  NO (   0 nuclei)
Spin-rotation constants                 ...  NO (   0 nuclei)
Spin-spin couplings                     ...  NO (   0 nuclei,    0 pairs)

Choice of magnetic origin               ... GIAO
Position of magnetic origin             ...     0.000000     0.000000     0.000000

Properties with geometric perturbations:
SCF Hessian                             ...  NO
IR spectrum                             ...  NO
VCD spectrum                            ...  NO
X-ray spectroscopy properties:
SCF XES/XAS/RIXS spectra                ...  NO


-------------
DIPOLE MOMENT
-------------

Method             : SCF
Type of density    : Electron Density
Multiplicity       :   1
Irrep              :   0
Energy             : -1486.6008850712464664 Eh
Relativity type    : 
Basis              : AO
                                X                 Y                 Z
Electronic contribution:    -10.539629065      29.000314127       2.106145100
Nuclear contribution   :     10.864106483     -29.757882046      -3.220753246
                        -----------------------------------------
Total Dipole Moment    :      0.324477418      -0.757567919      -1.114608146
                        -----------------------------------------
Magnitude (a.u.)       :      1.386198422
Magnitude (Debye)      :      3.523436378



--------------------
Rotational spectrum 
--------------------
 
Rotational constants in cm-1:             0.005137             0.003082             0.002088 
Rotational constants in MHz :           154.017081            92.397016            62.606881 

Dipole components along the rotational axes: 
x,y,z [a.u.] :     0.072725     0.803070    -1.127535 
x,y,z [Debye]:     0.184853     2.041243    -2.865966 

 

Dipole moment calculation done in   0.0 sec 

Maximum memory used throughout the entire PROP-calculation: 35.4 MB

--------------------------------
SUGGESTED CITATIONS FOR THIS RUN
--------------------------------

Below you find a list of papers that are relevant to this ORCA run
We neither can nor want to force you to cite these papers, but we appreciate if you do
You receive ORCA, which is the product of decades of hard work by many enthusiastic individuals, for free
The only thing we kindly ask in return is that you cite our papers,
We deeply appreciate it, if you show your appreciation for ORCA by not just citing the generic ORCA reference.

Please note that relegating all ORCA citations to the supporting information does *not* help us.
SI sections are not indexed - citations you put there will not count into any citation statistics
But we need these citations in order to attract the funding resources that allow us to do what we are doing

Therefore, if you are a happy ORCA user, please consider citing a few of the papers listed below in the main body of your paper

In addition to the list printed below, the program has created the file /home/nmrbox/aojoawo/Documents/ERDOS/inputs/CHEMBL3235974.bibtex that contains the list in bibtex format
You can import this file easily into all common literature databanks and citation aid programs


List of essential papers. We consider these as the minimum necessary citations

  1. Neese,F.
     Software update: the ORCA program system, version 5.0
     WIRES Comput. Molec. Sci., 2022 12(1)e1606
     doi.org/10.1002/wcms.1606

List of papers to cite with high priority. The work reported in these papers was absolutely
necessary for this run to complete.
Our perspective: the developers of density functionals and basis sets usually get cited in chemistry papers
Good! But without the algorithms to do something with them, the functionals or basis sets would not do anything.
Hence, in our opinion, the algorithm design and method developments papers are equally worthy of getting cited

  1. Neese,F.
     An improvement of the resolution of the identity approximation for the formation of the Coulomb matrix
     J. Comp. Chem., 2003 24(14)1740-1747
     doi.org/10.1002/jcc.10318
  2. Neese,F.; Wennmohs,F.; Hansen,A.; Becker,U.
     Efficient, approximate and parallel Hartree-Fock and hybrid DFT calculations. A 'chain-of-spheres' algorithm for the Hartree-Fock exchange
     Chem. Phys., 2009 356(1-3)98-109
     doi.org/10.1016/j.chemphys.2008.10.036
  3. Helmich-Paris,B.; de Souza,B.; Neese,F.; Izsák,R.
     An improved chain of spheres for exchange algorithm
     J. Chem. Phys., 2021 155 104109
     doi.org/doi: 10.1063/5.0058766.
  4. Neese,F.
     The SHARK Integral Generation and Digestion System
     J. Comp. Chem., 2022  1-16
     doi.org/10.1002/jcc.26942

List of suggested additional citations. These are papers that are important in the 'surrounding' of 
of this run, or papers that preceded the highly important papers. If you like your results we are grateful for a citation.

  1. Izsak,R.; Neese,F.
     An overlap fitted chain of spheres exchange method
     J. Chem. Phys., 2011 135 144105
     doi.org/10.1063/1.3646921
  2. Izsak,R.; Hansen,A.; Neese,F.
     The resolution of identity and chain of spheres approximations for the LPNO-CCSD singles Fock term
     Molec. Phys., 2012 110 2413-2417
     doi.org/10.1080/00268976.2012.687466
  3. Neese,F.
     The ORCA program system
     WIRES Comput. Molec. Sci., 2012 2(1)73-78
     doi.org/10.1002/wcms.81
  4. Izsak,R.; Neese,F.; Klopper,W.
     Robust fitting techniques in the chain of spheres approximation to the Fock exchange: The role of the complementary space
     J. Chem. Phys., 2013 139 
     doi.org/10.1063/1.4819264
  5. Neese,F.
     Software update: the ORCA program system, version 4.0
     WIRES Comput. Molec. Sci., 2018 8(1)1-6
     doi.org/10.1002/wcms.1327
  6. Neese,F.; Wennmohs,F.; Becker,U.; Riplinger,C.
     The ORCA quantum chemistry program package
     J. Chem. Phys., 2020 152 Art. No. L224108
     doi.org/10.1063/5.0004608

List of optional additional citations

  1. Neese,F.
     Approximate second-order SCF convergence for spin unrestricted wavefunctions
     Chem. Phys. Lett., 2000 325(1-3)93-98
     doi.org/10.1016/s0009-2614(00)00662-x

Timings for individual modules:

Sum of individual times          ...      485.110 sec (=   8.085 min)
Startup calculation              ...       13.988 sec (=   0.233 min)   2.9 %
SCF iterations                   ...      470.909 sec (=   7.848 min)  97.1 %
Property calculations            ...        0.214 sec (=   0.004 min)   0.0 %
                             ****ORCA TERMINATED NORMALLY****
TOTAL RUN TIME: 0 days 0 hours 8 minutes 5 seconds 859 msec
