
                                 *****************
                                 * O   R   C   A *
                                 *****************

                                            #,                                       
                                            ###                                      
                                            ####                                     
                                            #####                                    
                                            ######                                   
                                           ########,                                 
                                     ,,################,,,,,                         
                               ,,#################################,,                 
                          ,,##########################################,,             
                       ,#########################################, ''#####,          
                    ,#############################################,,   '####,        
                  ,##################################################,,,,####,       
                ,###########''''           ''''###############################       
              ,#####''   ,,,,##########,,,,          '''####'''          '####       
            ,##' ,,,,###########################,,,                        '##       
           ' ,,###''''                  '''############,,,                           
         ,,##''                                '''############,,,,        ,,,,,,###''
      ,#''                                            '''#######################'''  
     '                                                          ''''####''''         
             ,#######,   #######,   ,#######,      ##                                
            ,#'     '#,  ##    ##  ,#'     '#,    #''#        ,####,   ,####,        
            ##       ##  ##   ,#'  ##            #'  '#       #'       #'  '#        
            ##       ##  #######   ##           ,######,      #####,   #    #        
            '#,     ,#'  ##    ##  '#,     ,#' ,#      #,     #,   #   #,  ,#        
             '#######'   ##     ##  '#######'  #'      '#     '####' # '####'        



                #########################################################
                #                        -***-                          #
                #          Department of theory and spectroscopy        #
                #                                                       #
                #                      Frank Neese                      #
                #                                                       #
                #     Directorship, Architecture, Infrastructure        #
                #                    SHARK, DRIVERS                     #
                #        Core code/Algorithms in most modules           #
                #                                                       #
                #        Max Planck Institute fuer Kohlenforschung      #
                #                Kaiser Wilhelm Platz 1                 #
                #                 D-45470 Muelheim/Ruhr                 #
                #                      Germany                          #
                #                                                       #
                #                  All rights reserved                  #
                #                        -***-                          #
                #########################################################


                         Program Version 6.0.0  -   RELEASE  -


 With contributions from (in alphabetic order):
   Daniel Aravena         : Magnetic Suceptibility
   Michael Atanasov       : Ab Initio Ligand Field Theory (pilot matlab implementation)
   Alexander A. Auer      : GIAO ZORA, VPT2 properties, NMR spectrum
   Ute Becker             : All parallelization in ORCA, NUMFREQ, NUMCALC
   Giovanni Bistoni       : ED, misc. LED, open-shell LED, HFLD
   Martin Brehm           : Molecular dynamics
   Dmytro Bykov           : pre 5.0 version of the SCF Hessian
   Marcos Casanova-Páez   : Triplet and SCS-CIS(D). UHF-(DLPNO)-IP/EA/STEOM-CCSD. UHF-CVS-IP/STEOM-CCSD
   Vijay G. Chilkuri      : MRCI spin determinant printing, contributions to CSF-ICE
   Pauline Colinet        : FMM embedding
   Dipayan Datta          : RHF DLPNO-CCSD density
   Achintya Kumar Dutta   : EOM-CC, STEOM-CC
   Nicolas Foglia         : Exact transition moments, OPA infrastructure, MCD improvements
   Dmitry Ganyushin       : Spin-Orbit,Spin-Spin,Magnetic field MRCI
   Miquel Garcia          : C-PCM and meta-GGA Hessian, CCSD/C-PCM, Gaussian charge scheme
   Tiago L. C. Gouveia    : GS-ROHF, GS-ROCIS
   Yang Guo               : DLPNO-NEVPT2, F12-NEVPT2, CIM, IAO-localization
   Andreas Hansen         : Spin unrestricted coupled pair/coupled cluster methods
   Ingolf Harden          : AUTO-CI MPn and infrastructure 
   Benjamin Helmich-Paris : MC-RPA, TRAH-(SCF,CASSCF), AVAS, COSX integrals, SCF dyn. polar.
   Lee Huntington         : MR-EOM, pCC
   Robert Izsak           : Overlap fitted RIJCOSX, COSX-SCS-MP3, EOM
   Riya Kayal             : Wick's Theorem for AUTO-CI, AUTO-CI UHF-CCSDT
   Emily Kempfer          : AUTO-CI, RHF CISDT and CCSDT
   Christian Kollmar      : KDIIS, OOCD, Brueckner-CCSD(T), CCSD density, CASPT2, CASPT2-K, improved NEVPT2
   Axel Koslowski         : Symmetry handling
   Simone Kossmann        : Meta GGA functionals, TD-DFT gradient, OOMP2, (MP2 Hessian; deprecated post 5.0)
   Lucas Lang             : DCDCAS
   Marvin Lechner         : AUTO-CI (C++ implementation), FIC-MRCC
   Spencer Leger          : CASSCF response
   Dagmar Lenk            : GEPOL surface, SMD, ORCA-2-JSON
   Dimitrios Liakos       : Extrapolation schemes; Compound Job, initial MDCI parallelization
   Dimitrios Manganas     : Further ROCIS development; embedding schemes. LFT, Crystal Embedding
   Dimitrios Pantazis     : SARC Basis sets
   Anastasios Papadopoulos: AUTO-CI, single reference methods and gradients
   Taras Petrenko         : pre 6.0 DFT Hessian and TD-DFT gradient, (ASA, deprecated), ECA, 1-Electron XAS/XES, NRVS
   Peter Pinski           : DLPNO-MP2, DLPNO-MP2 Gradient
   Christoph Reimann      : Effective Core Potentials
   Marius Retegan         : Local ZFS, SOC
   Christoph Riplinger    : Optimizer, TS searches, QM/MM, DLPNO-CCSD(T), (RO)-DLPNO pert. Triples
   Michael Roemelt        : Original ROCIS implementation
   Masaaki Saitow         : Open-shell DLPNO-CCSD energy and density
   Barbara Sandhoefer     : DKH picture change effects
   Kantharuban Sivalingam : CASSCF convergence/infrastructure, NEVPT2 and variants, FIC-MRCI
   Bernardo de Souza      : ESD, SOC TD-DFT
   Georgi Stoychev        : AutoAux, RI-MP2 NMR, DLPNO-MP2 response, X2C
   Van Anh Tran           : RI-MP2 g-tensors
   Willem Van den Heuvel  : Paramagnetic NMR
   Zikuan Wang            : NOTCH, Electric field optimization 
   Frank Wennmohs         : Technical directorship and infrastructure
   Hang Xu                : AUTO-CI-Response properties 


 We gratefully acknowledge several colleagues who have allowed us to
 interface, adapt or use parts of their codes:
   Stefan Grimme, W. Hujo, H. Kruse, P. Pracht,  : VdW corrections, initial TS optimization,
                  C. Bannwarth, S. Ehlert,         DFT functionals, gCP, sTDA/sTD-DF
                  L. Wittmann, M. Mueller
   Ed Valeev, F. Pavosevic, A. Kumar             : LibInt (2-el integral package), F12 methods
   Garnet Chan, S. Sharma, J. Yang, R. Olivares  : DMRG
   Ulf Ekstrom                                   : XCFun DFT Library
   Mihaly Kallay                                 : mrcc  (arbitrary order and MRCC methods)
   Frank Weinhold                                : gennbo (NPA and NBO analysis)
   Simon Mueller                                 : openCOSMO-RS
   Christopher J. Cramer and Donald G. Truhlar   : smd solvation model
   Lars Goerigk                                  : TD-DFT with DH, B97 family of functionals
   V. Asgeirsson, H. Jonsson                     : NEB implementation
   FAccTs GmbH                                   : IRC, NEB, NEB-TS, DLPNO-Multilevel, CI-OPT
                                                   MM, QMMM, 2- and 3-layer-ONIOM, Crystal-QMMM,
                                                   LR-CPCM, SF, NACMEs, symmetry and pop. for TD-DFT,
                                                   nearIR, NL-DFT gradient (VV10), updates on ESD,
                                                   ML-optimized integration grids, MBIS, APM,
                                                   GOAT, DOCKER, SOLVATOR, interface openCOSMO-RS
   S Lehtola, MJT Oliveira, MAL Marques          : LibXC Library
   Liviu Ungur et al                             : ANISO software


 Your calculation uses the libint2 library for the computation of 2-el integrals
 For citations please refer to: http://libint.valeyev.net

 Your ORCA version has been built with support for libXC version: 6.2.2
 For citations please refer to: https://libxc.gitlab.io

 This ORCA versions uses:
   CBLAS   interface :  Fast vector & matrix operations
   LAPACKE interface :  Fast linear algebra routines
   SCALAPACK package :  Parallel linear algebra routines
   Shared memory     :  Shared parallel matrices
   BLAS/LAPACK       :  OpenBLAS 0.3.27  USE64BITINT DYNAMIC_ARCH NO_AFFINITY SkylakeX SINGLE_THREADED
        Core in use  :  SkylakeX
   Copyright (c) 2011-2014, The OpenBLAS Project


Warning: RI is on but no J-basis has been assigned. Assigning Def2/J (nothing to worry about!)
================================================================================

----- Orbital basis set information -----
Your calculation utilizes the basis: 6-31G*
   H-He, Li-Ne : W. J. Hehre, R. Ditchfield and J.A. Pople, J. Chem. Phys. 56, 2257 (1972).
                 Note: He and Ne are unpublished basis sets taken from the Gaussian program.
                 Note: Li and B from J. D. Dill and J. A. Pople, J. Chem. Phys. 62, 2921 (1975).
   Na - Ar     : M. M. Francl, W. J. Pietro, W. J. Hehre, J. S. Binkley, M. S. Gordon, 
                 D. J. DeFrees and J. A. Pople, J. Chem. Phys. 77, 3654 (1982).
   K - Zn      : V. A. Rassolov, J. A. Pople, M. A. Ratner, and T. L. Windus, J. Chem. Phys. 109, 1223 (1998).

----- AuxJ basis set information -----
Your calculation utilizes the auxiliary basis: def2/J
   F. Weigend, Phys. Chem. Chem. Phys. 8, 1057 (2006).

================================================================================
                                        WARNINGS
                       Please study these warnings very carefully!
================================================================================


================================================================================
                                       INPUT FILE
================================================================================
NAME = /home/nmrbox/aojoawo/Documents/ERDOS/inputs/CHEMBL2443089.inp
|  1> ! B3LYP 6-31G* SP
|  2> 
|  3> * xyz 0 1
|  4> O -2.5874 0.2421 -1.8537
|  5> C -1.9524 0.0347 -0.7836
|  6> N -2.6614 -0.1858 0.4475
|  7> C -4.0954 -0.1802 0.5508
|  8> C -4.8825 -0.8666 -0.3885
|  9> C -6.2743 -0.8852 -0.2700
| 10> C -6.9083 -0.2112 0.7862
| 11> C -8.4071 -0.2725 0.9415
| 12> F -8.7406 -1.3743 1.7067
| 13> F -8.8804 0.8695 1.5644
| 14> F -9.0233 -0.3778 -0.2935
| 15> C -6.1195 0.4372 1.7510
| 16> C -4.7244 0.4571 1.6366
| 17> Cl -3.7884 1.3140 2.8551
| 18> N -0.5145 0.0218 -0.8054
| 19> C 0.1809 -0.4552 -2.0056
| 20> C 1.4897 -1.1575 -1.6210
| 21> C 2.3784 -0.2991 -0.6913
| 22> C 2.9815 0.9036 -1.4716
| 23> C 4.0340 1.6601 -0.6476
| 24> C 5.0058 0.7255 0.0241
| 25> C 6.2317 1.2146 0.4996
| 26> C 7.1302 0.3576 1.1402
| 27> C 6.8085 -0.9901 1.3176
| 28> C 5.5827 -1.4860 0.8605
| 29> Cl 5.1915 -3.1814 1.1006
| 30> C 4.6733 -0.6292 0.2234
| 31> O 3.4474 -1.1321 -0.2310
| 32> C 1.5441 0.1422 0.5398
| 33> C 0.2391 0.8440 0.1487
| 34> H -2.1105 -0.3326 1.3219
| 35> H -4.4193 -1.4145 -1.1986
| 36> H -6.8546 -1.4358 -0.9998
| 37> H -6.5865 0.9284 2.5958
| 38> H 0.3825 0.4000 -2.6850
| 39> H -0.4543 -1.1834 -2.5566
| 40> H 2.0471 -1.4292 -2.5439
| 41> H 1.2355 -2.1086 -1.1021
| 42> H 3.4772 0.5241 -2.3927
| 43> H 2.1976 1.6178 -1.7963
| 44> H 4.5852 2.3479 -1.3254
| 45> H 3.5362 2.2843 0.1239
| 46> H 6.4917 2.2582 0.3711
| 47> H 8.0770 0.7388 1.5003
| 48> H 7.5110 -1.6477 1.8136
| 49> H 1.2847 -0.7598 1.1374
| 50> H 2.1345 0.8028 1.2079
| 51> H -0.3480 1.0359 1.0704
| 52> H 0.4540 1.8337 -0.3058
| 53> *
| 54> 
| 55>                          ****END OF INPUT****
================================================================================

                       ****************************
                       * Single Point Calculation *
                       ****************************

---------------------------------
CARTESIAN COORDINATES (ANGSTROEM)
---------------------------------
  O     -2.587400    0.242100   -1.853700
  C     -1.952400    0.034700   -0.783600
  N     -2.661400   -0.185800    0.447500
  C     -4.095400   -0.180200    0.550800
  C     -4.882500   -0.866600   -0.388500
  C     -6.274300   -0.885200   -0.270000
  C     -6.908300   -0.211200    0.786200
  C     -8.407100   -0.272500    0.941500
  F     -8.740600   -1.374300    1.706700
  F     -8.880400    0.869500    1.564400
  F     -9.023300   -0.377800   -0.293500
  C     -6.119500    0.437200    1.751000
  C     -4.724400    0.457100    1.636600
  Cl    -3.788400    1.314000    2.855100
  N     -0.514500    0.021800   -0.805400
  C      0.180900   -0.455200   -2.005600
  C      1.489700   -1.157500   -1.621000
  C      2.378400   -0.299100   -0.691300
  C      2.981500    0.903600   -1.471600
  C      4.034000    1.660100   -0.647600
  C      5.005800    0.725500    0.024100
  C      6.231700    1.214600    0.499600
  C      7.130200    0.357600    1.140200
  C      6.808500   -0.990100    1.317600
  C      5.582700   -1.486000    0.860500
  Cl     5.191500   -3.181400    1.100600
  C      4.673300   -0.629200    0.223400
  O      3.447400   -1.132100   -0.231000
  C      1.544100    0.142200    0.539800
  C      0.239100    0.844000    0.148700
  H     -2.110500   -0.332600    1.321900
  H     -4.419300   -1.414500   -1.198600
  H     -6.854600   -1.435800   -0.999800
  H     -6.586500    0.928400    2.595800
  H      0.382500    0.400000   -2.685000
  H     -0.454300   -1.183400   -2.556600
  H      2.047100   -1.429200   -2.543900
  H      1.235500   -2.108600   -1.102100
  H      3.477200    0.524100   -2.392700
  H      2.197600    1.617800   -1.796300
  H      4.585200    2.347900   -1.325400
  H      3.536200    2.284300    0.123900
  H      6.491700    2.258200    0.371100
  H      8.077000    0.738800    1.500300
  H      7.511000   -1.647700    1.813600
  H      1.284700   -0.759800    1.137400
  H      2.134500    0.802800    1.207900
  H     -0.348000    1.035900    1.070400
  H      0.454000    1.833700   -0.305800

----------------------------
CARTESIAN COORDINATES (A.U.)
----------------------------
  NO LB      ZA    FRAG     MASS         X           Y           Z
   0 O     8.0000    0    15.999   -4.889477    0.457503   -3.502985
   1 C     6.0000    0    12.011   -3.689501    0.065573   -1.480789
   2 N     7.0000    0    14.007   -5.029317   -0.351111    0.845652
   3 C     6.0000    0    12.011   -7.739184   -0.340529    1.040861
   4 C     6.0000    0    12.011   -9.226588   -1.637637   -0.734159
   5 C     6.0000    0    12.011  -11.856709   -1.672786   -0.510226
   6 C     6.0000    0    12.011  -13.054795   -0.399110    1.485703
   7 C     6.0000    0    12.011  -15.887117   -0.514950    1.779177
   8 F     9.0000    0    18.998  -16.517340   -2.597051    3.225196
   9 F     9.0000    0    18.998  -16.781524    1.643117    2.956288
  10 F     9.0000    0    18.998  -17.051566   -0.713939   -0.554635
  11 C     6.0000    0    12.011  -11.564179    0.826188    3.308910
  12 C     6.0000    0    12.011   -8.927822    0.863794    3.092726
  13 Cl   17.0000    0    35.453   -7.159038    2.483100    5.395357
  14 N     7.0000    0    14.007   -0.972264    0.041196   -1.521985
  15 C     6.0000    0    12.011    0.341851   -0.860203   -3.790035
  16 C     6.0000    0    12.011    2.815125   -2.187358   -3.063246
  17 C     6.0000    0    12.011    4.494525   -0.565217   -1.306368
  18 C     6.0000    0    12.011    5.634218    1.707557   -2.780921
  19 C     6.0000    0    12.011    7.623155    3.137134   -1.223787
  20 C     6.0000    0    12.011    9.459591    1.370996    0.045542
  21 C     6.0000    0    12.011   11.776206    2.295261    0.944107
  22 C     6.0000    0    12.011   13.474125    0.675766    2.154666
  23 C     6.0000    0    12.011   12.866200   -1.871018    2.489903
  24 C     6.0000    0    12.011   10.549774   -2.808133    1.626109
  25 Cl   17.0000    0    35.453    9.810513   -6.011975    2.079833
  26 C     6.0000    0    12.011    8.831257   -1.189016    0.422165
  27 O     8.0000    0    15.999    6.514642   -2.139359   -0.436527
  28 C     6.0000    0    12.011    2.917926    0.268719    1.020074
  29 C     6.0000    0    12.011    0.451834    1.594929    0.281002
  30 H     1.0000    0     1.008   -3.988267   -0.628523    2.498029
  31 H     1.0000    0     1.008   -8.351267   -2.673018   -2.265026
  32 H     1.0000    0     1.008  -12.953317   -2.713269   -1.889348
  33 H     1.0000    0     1.008  -12.446681    1.754422    4.905351
  34 H     1.0000    0     1.008    0.722820    0.755890   -5.073915
  35 H     1.0000    0     1.008   -0.858503   -2.236302   -4.831274
  36 H     1.0000    0     1.008    3.868458   -2.700797   -4.807274
  37 H     1.0000    0     1.008    2.334757   -3.984677   -2.082667
  38 H     1.0000    0     1.008    6.570956    0.990405   -4.521548
  39 H     1.0000    0     1.008    4.152862    3.057199   -3.394515
  40 H     1.0000    0     1.008    8.664772    4.436888   -2.504643
  41 H     1.0000    0     1.008    6.682450    4.316701    0.234137
  42 H     1.0000    0     1.008   12.267535    4.267380    0.701277
  43 H     1.0000    0     1.008   15.263318    1.396130    2.835156
  44 H     1.0000    0     1.008   14.193733   -3.113702    3.427207
  45 H     1.0000    0     1.008    2.427731   -1.435814    2.149375
  46 H     1.0000    0     1.008    4.033620    1.517072    2.282600
  47 H     1.0000    0     1.008   -0.657625    1.957567    2.022763
  48 H     1.0000    0     1.008    0.857936    3.465191   -0.577878

--------------------------------
INTERNAL COORDINATES (ANGSTROEM)
--------------------------------
 O      0   0   0     0.000000000000     0.00000000     0.00000000
 C      1   0   0     1.261488711800     0.00000000     0.00000000
 N      2   1   0     1.437674671127   120.22320017     0.00000000
 C      3   2   1     1.437726764723   123.55983088   359.67958979
 C      4   3   2     1.404619471601   120.59471294    45.50765259
 C      5   4   3     1.396959358750   120.53578884   178.56546033
 C      6   5   4     1.404204557748   120.48063782     0.36654037
 C      7   6   5     1.508070694629   120.44247226   182.18680001
 F      8   7   6     1.382286703257   109.21964281    88.30587457
 F      8   7   6     1.384262005547   110.64755181   208.32567300
 F      8   7   6     1.384202127581   110.71027487   328.25653617
 C      7   6   5     1.404801423689   118.98654638   357.50366356
 C     12   7   6     1.399924062226   120.66420601     2.43777955
 Cl    13  12   7     1.759294136863   118.71956265   178.67835106
 N      2   1   3     1.438123103215   119.46628611   180.05042278
 C     15   2   1     1.466829983331   119.29656795   327.82626034
 C     16  15   2     1.534307625608   110.37431934   213.35981614
 C     17  16  15     1.546279515482   112.75993343   308.21042022
 C     18  17  16     1.555340795453   110.51734535   289.23589648
 C     19  18  17     1.535911618551   112.17479924   188.59748737
 C     20  19  18     1.506337707820   112.06906104    46.09389025
 C     21  20  19     1.402907648422   119.90561574   162.23466654
 C     22  21  20     1.397182740374   120.23176728   179.11172215
 C     23  22  21     1.396873988590   120.12651488   359.61787447
 C     24  23  22     1.399086437644   120.14909765   359.68714944
 Cl    25  24  23     1.756435768823   119.51199564   180.34974486
 C     25  24  23     1.402501696969   119.99876121   359.95329285
 O     27  25  24     1.400792125906   119.70209083   180.04342743
 C     18  17  16     1.551260580947   109.02497554    53.69410528
 C     15   2   1     1.467730428246   119.89997511   128.76459601
 H      3   2   1     1.043846928433   118.59462478   181.41804086
 H      5   4   3     1.082132459545   120.54246346     0.42446818
 H      6   5   4     1.082828005733   118.91627877   180.97681191
 H     12   7   6     1.083075934549   120.19300031   182.50460799
 H     16  15   2     1.110672751084   109.64372622    91.35001681
 H     16  15   2     1.112364724360   110.33242663   332.84030088
 H     17  16  15     1.111872321807   109.35517701   185.13452150
 H     17  16  15     1.112863900035   108.25388533    68.86928412
 H     19  18  17     1.112728156380   108.92350652   307.93657739
 H     19  18  17     1.109058582763   111.76299628    65.93269868
 H     20  19  18     1.111891685372   108.50243989   167.27751869
 H     20  19  18     1.110244446057   110.02729437   284.44233743
 H     22  21  20     1.083149671098   120.36105127   358.92354422
 H     23  22  21     1.082319587737   119.93843306   179.66065839
 H     24  23  22     1.082571018456   119.65654298   179.90360752
 H     29  18  17     1.112662626316   108.72392509    65.88984090
 H     29  18  17     1.109649552787   111.16307107   182.75921164
 H     30  15   2     1.109523731157   111.42042288    26.01328378
 H     30  15   2     1.110071326537   109.43192585   268.18237677

---------------------------
INTERNAL COORDINATES (A.U.)
---------------------------
 O      0   0   0     0.000000000000     0.00000000     0.00000000
 C      1   0   0     2.383868186336     0.00000000     0.00000000
 N      2   1   0     2.716811398105   120.22320017     0.00000000
 C      3   2   1     2.716909840735   123.55983088   359.67958979
 C      4   3   2     2.654346123699   120.59471294    45.50765259
 C      5   4   3     2.639870608256   120.53578884   178.56546033
 C      6   5   4     2.653562050148   120.48063782     0.36654037
 C      7   6   5     2.849840603442   120.44247226   182.18680001
 F      8   7   6     2.612143307716   109.21964281    88.30587457
 F      8   7   6     2.615876088076   110.64755181   208.32567300
 F      8   7   6     2.615762935119   110.71027487   328.25653617
 C      7   6   5     2.654689963316   118.98654638   357.50366356
 C     12   7   6     2.645473085894   120.66420601     2.43777955
 Cl    13  12   7     3.324584107684   118.71956265   178.67835106
 N      2   1   3     2.717658811941   119.46628611   180.05042278
 C     15   2   1     2.771906953521   119.29656795   327.82626034
 C     16  15   2     2.899421217587   110.37431934   213.35981614
 C     17  16  15     2.922044810754   112.75993343   308.21042022
 C     18  17  16     2.939168148321   110.51734535   289.23589648
 C     19  18  17     2.902452324969   112.17479924   188.59748737
 C     20  19  18     2.846565732978   112.06906104    46.09389025
 C     21  20  19     2.651111246700   119.90561574   162.23466654
 C     22  21  20     2.640292738349   120.23176728   179.11172215
 C     23  22  21     2.639709282034   120.12651488   359.61787447
 C     24  23  22     2.643890204831   120.14909765   359.68714944
 Cl    25  24  23     3.319182574898   119.51199564   180.34974486
 C     25  24  23     2.650344109631   119.99876121   359.95329285
 O     27  25  24     2.647113488516   119.70209083   180.04342743
 C     18  17  16     2.931457660337   109.02497554    53.69410528
 C     15   2   1     2.773608547808   119.89997511   128.76459601
 H      3   2   1     1.972584820474   118.59462478   181.41804086
 H      5   4   3     2.044933989166   120.54246346     0.42446818
 H      6   5   4     2.046248380976   118.91627877   180.97681191
 H     12   7   6     2.046716898539   120.19300031   182.50460799
 H     16  15   2     2.098867323957   109.64372622    91.35001681
 H     16  15   2     2.102064690075   110.33242663   332.84030088
 H     17  16  15     2.101134184102   109.35517701   185.13452150
 H     17  16  15     2.103007995393   108.25388533    68.86928412
 H     19  18  17     2.102751477061   108.92350652   307.93657739
 H     19  18  17     2.095816987897   111.76299628    65.93269868
 H     20  19  18     2.101170775938   108.50243989   167.27751869
 H     20  19  18     2.098057944754   110.02729437   284.44233743
 H     22  21  20     2.046856240422   120.36105127   358.92354422
 H     23  22  21     2.045287610202   119.93843306   179.66065839
 H     24  23  22     2.045762745401   119.65654298   179.90360752
 H     29  18  17     2.102627643186   108.72392509    65.88984090
 H     29  18  17     2.096933759395   111.16307107   182.75921164
 H     30  15   2     2.096695990973   111.42042288    26.01328378
 H     30  15   2     2.097730796274   109.43192585   268.18237677

---------------------
BASIS SET INFORMATION
---------------------
There are 6 groups of distinct atoms

 Group   1 Type O   : 10s4p1d contracted to 3s2p1d pattern {631/31/1}
 Group   2 Type C   : 10s4p1d contracted to 3s2p1d pattern {631/31/1}
 Group   3 Type N   : 10s4p1d contracted to 3s2p1d pattern {631/31/1}
 Group   4 Type F   : 10s4p1d contracted to 3s2p1d pattern {631/31/1}
 Group   5 Type Cl  : 16s10p1d contracted to 4s3p1d pattern {6631/631/1}
 Group   6 Type H   : 4s contracted to 2s pattern {31}

Atom   0O    basis set group =>   1
Atom   1C    basis set group =>   2
Atom   2N    basis set group =>   3
Atom   3C    basis set group =>   2
Atom   4C    basis set group =>   2
Atom   5C    basis set group =>   2
Atom   6C    basis set group =>   2
Atom   7C    basis set group =>   2
Atom   8F    basis set group =>   4
Atom   9F    basis set group =>   4
Atom  10F    basis set group =>   4
Atom  11C    basis set group =>   2
Atom  12C    basis set group =>   2
Atom  13Cl   basis set group =>   5
Atom  14N    basis set group =>   3
Atom  15C    basis set group =>   2
Atom  16C    basis set group =>   2
Atom  17C    basis set group =>   2
Atom  18C    basis set group =>   2
Atom  19C    basis set group =>   2
Atom  20C    basis set group =>   2
Atom  21C    basis set group =>   2
Atom  22C    basis set group =>   2
Atom  23C    basis set group =>   2
Atom  24C    basis set group =>   2
Atom  25Cl   basis set group =>   5
Atom  26C    basis set group =>   2
Atom  27O    basis set group =>   1
Atom  28C    basis set group =>   2
Atom  29C    basis set group =>   2
Atom  30H    basis set group =>   6
Atom  31H    basis set group =>   6
Atom  32H    basis set group =>   6
Atom  33H    basis set group =>   6
Atom  34H    basis set group =>   6
Atom  35H    basis set group =>   6
Atom  36H    basis set group =>   6
Atom  37H    basis set group =>   6
Atom  38H    basis set group =>   6
Atom  39H    basis set group =>   6
Atom  40H    basis set group =>   6
Atom  41H    basis set group =>   6
Atom  42H    basis set group =>   6
Atom  43H    basis set group =>   6
Atom  44H    basis set group =>   6
Atom  45H    basis set group =>   6
Atom  46H    basis set group =>   6
Atom  47H    basis set group =>   6
Atom  48H    basis set group =>   6
---------------------------------
AUXILIARY/J BASIS SET INFORMATION
---------------------------------
There are 6 groups of distinct atoms

 Group   1 Type O   : 12s5p4d2f1g contracted to 6s4p3d1f1g pattern {711111/2111/211/2/1}
 Group   2 Type C   : 12s5p4d2f1g contracted to 6s4p3d1f1g pattern {711111/2111/211/2/1}
 Group   3 Type N   : 12s5p4d2f1g contracted to 6s4p3d1f1g pattern {711111/2111/211/2/1}
 Group   4 Type F   : 12s5p4d2f1g contracted to 6s4p3d1f1g pattern {711111/2111/211/2/1}
 Group   5 Type Cl  : 14s5p5d2f1g contracted to 8s4p3d1f1g pattern {71111111/2111/311/2/1}
 Group   6 Type H   : 5s2p1d contracted to 3s1p1d pattern {311/2/1}

Atom   0O    basis set group =>   1
Atom   1C    basis set group =>   2
Atom   2N    basis set group =>   3
Atom   3C    basis set group =>   2
Atom   4C    basis set group =>   2
Atom   5C    basis set group =>   2
Atom   6C    basis set group =>   2
Atom   7C    basis set group =>   2
Atom   8F    basis set group =>   4
Atom   9F    basis set group =>   4
Atom  10F    basis set group =>   4
Atom  11C    basis set group =>   2
Atom  12C    basis set group =>   2
Atom  13Cl   basis set group =>   5
Atom  14N    basis set group =>   3
Atom  15C    basis set group =>   2
Atom  16C    basis set group =>   2
Atom  17C    basis set group =>   2
Atom  18C    basis set group =>   2
Atom  19C    basis set group =>   2
Atom  20C    basis set group =>   2
Atom  21C    basis set group =>   2
Atom  22C    basis set group =>   2
Atom  23C    basis set group =>   2
Atom  24C    basis set group =>   2
Atom  25Cl   basis set group =>   5
Atom  26C    basis set group =>   2
Atom  27O    basis set group =>   1
Atom  28C    basis set group =>   2
Atom  29C    basis set group =>   2
Atom  30H    basis set group =>   6
Atom  31H    basis set group =>   6
Atom  32H    basis set group =>   6
Atom  33H    basis set group =>   6
Atom  34H    basis set group =>   6
Atom  35H    basis set group =>   6
Atom  36H    basis set group =>   6
Atom  37H    basis set group =>   6
Atom  38H    basis set group =>   6
Atom  39H    basis set group =>   6
Atom  40H    basis set group =>   6
Atom  41H    basis set group =>   6
Atom  42H    basis set group =>   6
Atom  43H    basis set group =>   6
Atom  44H    basis set group =>   6
Atom  45H    basis set group =>   6
Atom  46H    basis set group =>   6
Atom  47H    basis set group =>   6
Atom  48H    basis set group =>   6
------------------------------------------------------------------------------
                             ORCA STARTUP CALCULATIONS
                           -- RI-GTO INTEGRALS CHOSEN --
------------------------------------------------------------------------------
------------------------------------------------------------------------------
                   ___                                                        
                  /   \      - P O W E R E D   B Y -                         
                 /     \                                                     
                 |  |  |   _    _      __       _____    __    __             
                 |  |  |  | |  | |    /  \     |  _  \  |  |  /  |          
                  \  \/   | |  | |   /    \    | | | |  |  | /  /          
                 / \  \   | |__| |  /  /\  \   | |_| |  |  |/  /          
                |  |  |   |  __  | /  /__\  \  |    /   |      \           
                |  |  |   | |  | | |   __   |  |    \   |  |\   \          
                \     /   | |  | | |  |  |  |  | |\  \  |  | \   \       
                 \___/    |_|  |_| |__|  |__|  |_| \__\ |__|  \__/        
                                                                              
                      - O R C A' S   B I G   F R I E N D -                    
                                      &                                       
                       - I N T E G R A L  F E E D E R -                       
                                                                              
 v1 FN, 2020, v2 2021, v3 2022-2024                                           
------------------------------------------------------------------------------


----------------------
SHARK INTEGRAL PACKAGE
----------------------

Number of atoms                             ...     49
Number of basis functions                   ...    466
Number of shells                            ...    222
Maximum angular momentum                    ...      2
Integral batch strategy                     ... SHARK/LIBINT Hybrid
RI-J (if used) integral strategy            ... SPLIT-RIJ (Revised 2003 algorithm where possible)
Printlevel                                  ...      1
Contraction scheme used                     ... SEGMENTED contraction
Prescreening option                         ... SCHWARTZ
   Thresh                                   ... 1.000e-10
   Tcut                                     ... 1.000e-11
   Tpresel                                  ... 1.000e-11 
Coulomb Range Separation                    ... NOT USED
Exchange Range Separation                   ... NOT USED
Multipole approximations                    ... NOT USED
Finite Nucleus Model                        ... NOT USED
CABS basis                                  ... NOT available
Auxiliary Coulomb fitting basis             ... AVAILABLE
   # of basis functions in Aux-J            ...   1683
   # of shells in Aux-J                     ...    549
   Maximum angular momentum in Aux-J        ...      4
Auxiliary J/K fitting basis                 ... NOT available
Auxiliary Correlation fitting basis         ... NOT available
Auxiliary 'external' fitting basis          ... NOT available

Checking pre-screening integrals            ... done (  0.0 sec) Dimension = 222
Check shell pair data                       ... done (  0.0 sec)
Shell pair information
Shell pair cut-off parameter TPreSel        ...   1.0e-11
Total number of shell pairs                 ...     24753
Shell pairs after pre-screening             ...     12994
Total number of primitive shell pairs       ...    152272
Primitive shell pairs kept                  ...     42174
          la=0 lb=0:   4357 shell pairs
          la=1 lb=0:   4497 shell pairs
          la=1 lb=1:   1184 shell pairs
          la=2 lb=0:   1790 shell pairs
          la=2 lb=1:    970 shell pairs
          la=2 lb=2:    196 shell pairs

Calculating one electron integrals          ... done (  0.2 sec)
Calculating RI/J V-Matrix + Cholesky decomp.... done (  0.4 sec)
Calculating Nuclear repulsion               ... done (  0.0 sec) ENN=   3084.566161022317 Eh

Diagonalization of the overlap matrix:
Smallest eigenvalue                        ... 4.233e-04
Time for diagonalization                   ...    0.044 sec
Threshold for overlap eigenvalues          ... 1.000e-07
Number of eigenvalues below threshold      ... 0
Time for construction of square roots      ...    0.032 sec
Total time needed                          ...    0.086 sec

-------------------
DFT GRID GENERATION
-------------------

General Integration Accuracy     IntAcc      ... 4.388
Radial Grid Type                 RadialGrid  ... OptM3 with GC (2021)
Angular Grid (max. ang.)         AngularGrid ... 4 (Lebedev-302)
Angular grid pruning method      GridPruning ... 4 (adaptive)
Weight generation scheme         WeightScheme... mBecke (2022)
Basis function cutoff            BFCut       ... 1.0000e-10
Integration weight cutoff        WCut        ... 1.0000e-14
Partially contracted basis set               ... off
Rotationally invariant grid construction     ... off
Angular grids for H and He will be reduced by one unit

Total number of grid points                  ...   242042
Total number of batches                      ...     3806
Average number of points per batch           ...       63
Average number of grid points per atom       ...     4940

--------------------
COSX GRID GENERATION
--------------------

GRIDX 1
-------
General Integration Accuracy     IntAcc      ... 3.816
Radial Grid Type                 RadialGrid  ... OptM3 with GC (2021)
Angular Grid (max. ang.)         AngularGrid ... 1 (Lebedev-50)
Angular grid pruning method      GridPruning ... 4 (adaptive)
Weight generation scheme         WeightScheme... mBecke (2022)
Basis function cutoff            BFCut       ... 1.0000e-10
Integration weight cutoff        WCut        ... 1.0000e-14
Partially contracted basis set               ... on
Rotationally invariant grid construction     ... off
Angular grids for H and He will be reduced by one unit

Total number of grid points                  ...    32671
Total number of batches                      ...      285
Average number of points per batch           ...      114
Average number of grid points per atom       ...      667
UseSFitting                                  ... on

GRIDX 2
-------
General Integration Accuracy     IntAcc      ... 4.020
Radial Grid Type                 RadialGrid  ... OptM3 with GC (2021)
Angular Grid (max. ang.)         AngularGrid ... 2 (Lebedev-110)
Angular grid pruning method      GridPruning ... 4 (adaptive)
Weight generation scheme         WeightScheme... mBecke (2022)
Basis function cutoff            BFCut       ... 1.0000e-10
Integration weight cutoff        WCut        ... 1.0000e-14
Partially contracted basis set               ... on
Rotationally invariant grid construction     ... off
Angular grids for H and He will be reduced by one unit

Total number of grid points                  ...    66904
Total number of batches                      ...      549
Average number of points per batch           ...      121
Average number of grid points per atom       ...     1365
UseSFitting                                  ... on

GRIDX 3
-------
General Integration Accuracy     IntAcc      ... 4.338
Radial Grid Type                 RadialGrid  ... OptM3 with GC (2021)
Angular Grid (max. ang.)         AngularGrid ... 3 (Lebedev-194)
Angular grid pruning method      GridPruning ... 4 (adaptive)
Weight generation scheme         WeightScheme... mBecke (2022)
Basis function cutoff            BFCut       ... 1.0000e-10
Integration weight cutoff        WCut        ... 1.0000e-14
Partially contracted basis set               ... on
Rotationally invariant grid construction     ... off
Angular grids for H and He will be reduced by one unit

Total number of grid points                  ...   147522
Total number of batches                      ...     1179
Average number of points per batch           ...      125
Average number of grid points per atom       ...     3011
UseSFitting                                  ... on
Initializing property integral containers    ... done (  0.0 sec)

SHARK setup successfully completed in  11.4 seconds

Maximum memory used throughout the entire STARTUP-calculation: 103.1 MB
-------------------------------------------------------------------------------
                                 ORCA GUESS
                   Start orbitals & Density for SCF / CASSCF
-------------------------------------------------------------------------------

------------
SCF SETTINGS
------------
Hamiltonian:
 Density Functional     Method          .... DFT(GTOs)
 Exchange Functional    Exchange        .... B88
   X-Alpha parameter    XAlpha          ....  0.666667
   Becke's b parameter  XBeta           ....  0.004200
 Correlation Functional Correlation     .... LYP
 LDA part of GGA corr.  LDAOpt          .... VWN-5
 Gradients option       PostSCFGGA      .... off
 Hybrid DFT is turned on
   Fraction HF Exchange ScalHFX         ....  0.200000
   Scaling of DF-GGA-X  ScalDFX         ....  0.720000
   Scaling of DF-GGA-C  ScalDFC         ....  0.810000
   Scaling of DF-LDA-C  ScalLDAC        ....  1.000000
   Perturbative correction              ....  0.000000
   NL short-range parameter             ....  4.800000
 RI-approximation to the Coulomb term is turned on
   Number of AuxJ basis functions       .... 1683
   RIJ-COSX (HFX calculated with COS-X)).... on


General Settings:
 Integral files         IntName         .... /home/nmrbox/aojoawo/Documents/ERDOS/inputs/CHEMBL2443089
 Hartree-Fock type      HFTyp           .... RHF
 Total Charge           Charge          ....    0
 Multiplicity           Mult            ....    1
 Number of Electrons    NEL             ....  236
 Basis Dimension        Dim             ....  466
 Nuclear Repulsion      ENuc            ....   3084.5661610223 Eh

Convergence Acceleration:
 AO-DIIS                CNVDIIS         .... on
   Start iteration      DIISMaxIt       ....    12
   Startup error        DIISStart       ....  0.200000
   # of expansion vecs  DIISMaxEq       ....     5
   Bias factor          DIISBfac        ....   1.050
   Max. coefficient     DIISMaxC        ....  10.000
 MO-DIIS                CNVKDIIS        .... off
 Trust-Rad. Augm. Hess. CNVTRAH         .... auto
   Auto Start mean grad. ratio tolernc. ....  1.125000
   Auto Start start iteration           ....    50
   Auto Start num. interpolation iter.  ....    10
   Max. Number of Micro iterations      ....    24
   Max. Number of Macro iterations      .... Maxiter - #DIIS iter
   Number of Davidson start vectors     ....     2
   Converg. threshold    (grad. norm)   ....   5.000e-05
   Grad. Scal. Fac. for Micro threshold ....   0.100
   Minimum threshold for Micro iter.    ....   1.000e-02
   NR start threshold (gradient norm)   ....   1.000e-04
   Initial trust radius                 ....   0.400
   Minimum AH scaling param. (alpha)    ....   1.000
   Maximum AH scaling param. (alpha)    .... 1000.000
   Quad. conv. algorithm                .... NR
   White noise on init. David. guess    .... on
   Maximum white noise                  ....   0.010
   Pseudo random numbers                .... off
   Inactive MOs                         .... canonical
   Orbital update algorithm             .... Taylor
   Preconditioner                       .... Diag
   Full preconditioner red. dimension   ....   250
 SOSCF                  CNVSOSCF        .... on
   Start iteration      SOSCFMaxIt      ....   150
   Startup grad/error   SOSCFStart      ....  0.003300
   Hessian update       SOSCFHessUp     .... L-BFGS
 Level Shifting         CNVShift        .... on
   Level shift para.    LevelShift      ....    0.2500
   Turn off err/grad.   ShiftErr        ....    0.0010
 Zerner damping         CNVZerner       .... off
 Static damping         CNVDamp         .... on
   Fraction old density DampFac         ....    0.7000
   Max. Damping (<1)    DampMax         ....    0.9800
   Min. Damping (>=0)   DampMin         ....    0.0000
   Turn off err/grad.   DampErr         ....    0.1000

SCF Procedure:
 Maximum # iterations   MaxIter         ....   125
 SCF integral mode      SCFMode         .... Direct
   Integral package                     .... SHARK and LIBINT hybrid scheme
 Reset frequency        DirectResetFreq ....    20
 Integral Threshold     Thresh          ....  1.000e-10 Eh
 Primitive CutOff       TCut            ....  1.000e-11 Eh

Convergence Tolerance:
 Convergence Check Mode ConvCheckMode   .... Total+1el-Energy
 Convergence forced     ConvForced      .... 0
 Energy Change          TolE            ....  1.000e-06 Eh
 1-El. energy change                    ....  1.000e-03 Eh
 Orbital Gradient       TolG            ....  5.000e-05
 Orbital Rotation angle TolX            ....  5.000e-05
 DIIS Error             TolErr          ....  1.000e-06

------------------------------
INITIAL GUESS: MODEL POTENTIAL
------------------------------
Loading Hartree-Fock densities                     ... done
Calculating cut-offs                               ... done
Initializing the effective Hamiltonian             ... done
Setting up the integral package (SHARK)            ... done
Starting the Coulomb interaction                   ... done (   2.3 sec)
Making the grid                                    ... done (   1.4 sec)
Mapping shells                                     ... done
Starting the XC term evaluation                    ... done (   1.0 sec)
  promolecular density results
     # of electrons  =    235.994285179
     EX              =   -228.357878046
     EC              =     -8.433673145
     EX+EC           =   -236.791551191
Transforming the Hamiltonian                       ... done (   0.0 sec)
Diagonalizing the Hamiltonian                      ... done (   0.0 sec)
Back transforming the eigenvectors                 ... done (   0.0 sec)
Now organizing SCF variables                       ... done
                      ------------------
                      INITIAL GUESS DONE (   4.7 sec)
                      ------------------
             **** ENERGY FILE WAS UPDATED (/home/nmrbox/aojoawo/Documents/ERDOS/inputs/CHEMBL2443089.en.tmp) ****
Finished Guess after   5.0 sec
Maximum memory used throughout the entire GUESS-calculation: 54.5 MB

-------------------------------------------------------------------------------------------
                                      ORCA LEAN-SCF
                              memory conserving SCF solver
-------------------------------------------------------------------------------------------

----------------------------------------D-I-I-S--------------------------------------------
Iteration    Energy (Eh)           Delta-E    RMSDP     MaxDP     DIISErr   Damp  Time(sec)
-------------------------------------------------------------------------------------------
               ***  Starting incremental Fock matrix formation  ***
    1    -2289.9965847594885417     0.00e+00  1.93e-03  1.14e-01  2.89e-01  0.700  48.6
    2    -2290.3016862343747562    -3.05e-01  1.30e-03  6.43e-02  1.05e-01  0.700  21.6
                               ***Turning on AO-DIIS***
    3    -2290.4169627824339841    -1.15e-01  5.47e-04  1.54e-02  3.71e-02  0.700  20.9
    4    -2290.4875066161985160    -7.05e-02  9.22e-04  3.05e-02  1.58e-02  0.000  20.2
    5    -2290.6439914964566924    -1.56e-01  2.16e-04  7.28e-03  6.51e-03  0.000  21.8
                              *** Initializing SOSCF ***
---------------------------------------S-O-S-C-F--------------------------------------
Iteration    Energy (Eh)           Delta-E    RMSDP     MaxDP     MaxGrad    Time(sec)
--------------------------------------------------------------------------------------
    6    -2290.6450425245211591    -1.05e-03  6.42e-05  2.08e-03  1.85e-03    18.5
               *** Restarting incremental Fock matrix formation ***
    7    -2290.6451797787494797    -1.37e-04  5.24e-05  2.99e-03  3.27e-04    51.5
    8    -2290.6451585831036937     2.12e-05  2.98e-05  2.29e-03  8.09e-04    27.4
    9    -2290.6451937654637732    -3.52e-05  9.63e-06  4.82e-04  9.38e-05    24.9
   10    -2290.6451929879840463     7.77e-07  5.62e-06  3.43e-04  1.57e-04    19.5
                 **** Energy Check signals convergence ****

               *****************************************************
               *                     SUCCESS                       *
               *           SCF CONVERGED AFTER  10 CYCLES          *
               *****************************************************

Recomputing exchange energy using gridx3       ... done (   83.986 sec)
Old exchange energy                            :    -46.115432997 Eh
New exchange energy                            :    -46.115464675 Eh
Exchange energy change after final integration :     -0.000031678 Eh
Total energy after final integration           :  -2290.645224666 Eh
             **** ENERGY FILE WAS UPDATED (/home/nmrbox/aojoawo/Documents/ERDOS/inputs/CHEMBL2443089.en.tmp) ****

----------------
TOTAL SCF ENERGY
----------------

Total Energy       :      -2290.64522466562721 Eh          -62331.62544 eV

Components:
Nuclear Repulsion  :       3084.56616102231692 Eh           83935.31243 eV
Electronic Energy  :      -5375.21135401030187 Eh         -146266.93701 eV
One Electron Energy:      -9282.29981190630133 Eh         -252584.21902 eV
Two Electron Energy:       3907.08845789599991 Eh          106317.28201 eV

Virial components:
Potential Energy   :      -4570.95512780069566 Eh         -124382.01249 eV
Kinetic Energy     :       2280.30990313506845 Eh           62050.38705 eV
Virial Ratio       :          2.00453241970153

DFT components:
N(Alpha)           :      118.000106050726 electrons
N(Beta)            :      118.000106050726 electrons
N(Total)           :      236.000212101452 electrons
E(X)               :     -183.188621018035 Eh       
E(C)               :       -9.892501939922 Eh       
E(XC)              :     -193.081122957957 Eh       

---------------
SCF CONVERGENCE
---------------

  Last Energy change         ...   -7.7748e-07  Tolerance :   1.0000e-06
  Last MAX-Density change    ...    3.4342e-04  Tolerance :   1.0000e-05
  Last RMS-Density change    ...    5.6215e-06  Tolerance :   1.0000e-06
  Last DIIS Error            ...    1.8525e-03  Tolerance :   1.0000e-06
  Last Orbital Gradient      ...    1.5694e-04  Tolerance :   5.0000e-05
  Last Orbital Rotation      ...    1.6524e-04  Tolerance :   5.0000e-05


----------------
ORBITAL ENERGIES
----------------

  NO   OCC          E(Eh)            E(eV) 
   0   2.0000    -101.546245     -2763.2138 
   1   2.0000    -101.522597     -2762.5703 
   2   2.0000     -24.720838      -672.6882 
   3   2.0000     -24.720798      -672.6871 
   4   2.0000     -24.717065      -672.5855 
   5   2.0000     -19.172066      -521.6984 
   6   2.0000     -19.114210      -520.1241 
   7   2.0000     -14.381766      -391.3477 
   8   2.0000     -14.356708      -390.6659 
   9   2.0000     -10.436994      -284.0050 
  10   2.0000     -10.326933      -281.0101 
  11   2.0000     -10.263866      -279.2940 
  12   2.0000     -10.260437      -279.2007 
  13   2.0000     -10.259188      -279.1667 
  14   2.0000     -10.257958      -279.1332 
  15   2.0000     -10.243614      -278.7429 
  16   2.0000     -10.233953      -278.4800 
  17   2.0000     -10.225283      -278.2441 
  18   2.0000     -10.220106      -278.1032 
  19   2.0000     -10.215700      -277.9833 
  20   2.0000     -10.207568      -277.7620 
  21   2.0000     -10.204501      -277.6786 
  22   2.0000     -10.199470      -277.5417 
  23   2.0000     -10.198545      -277.5165 
  24   2.0000     -10.195023      -277.4207 
  25   2.0000     -10.194528      -277.4072 
  26   2.0000     -10.193837      -277.3884 
  27   2.0000     -10.191805      -277.3331 
  28   2.0000     -10.189906      -277.2814 
  29   2.0000     -10.187165      -277.2069 
  30   2.0000      -9.477730      -257.9021 
  31   2.0000      -9.454046      -257.2577 
  32   2.0000      -7.240816      -197.0326 
  33   2.0000      -7.231333      -196.7746 
  34   2.0000      -7.231058      -196.7671 
  35   2.0000      -7.217236      -196.3910 
  36   2.0000      -7.207690      -196.1312 
  37   2.0000      -7.207236      -196.1189 
  38   2.0000      -1.280471       -34.8434 
  39   2.0000      -1.205941       -32.8153 
  40   2.0000      -1.204675       -32.7809 
  41   2.0000      -1.058445       -28.8018 
  42   2.0000      -1.029605       -28.0170 
  43   2.0000      -0.938162       -25.5287 
  44   2.0000      -0.931138       -25.3376 
  45   2.0000      -0.888109       -24.1667 
  46   2.0000      -0.882988       -24.0273 
  47   2.0000      -0.854789       -23.2600 
  48   2.0000      -0.839447       -22.8425 
  49   2.0000      -0.820180       -22.3182 
  50   2.0000      -0.787785       -21.4367 
  51   2.0000      -0.780399       -21.2357 
  52   2.0000      -0.774230       -21.0679 
  53   2.0000      -0.752357       -20.4727 
  54   2.0000      -0.735975       -20.0269 
  55   2.0000      -0.728330       -19.8189 
  56   2.0000      -0.701600       -19.0915 
  57   2.0000      -0.667838       -18.1728 
  58   2.0000      -0.652664       -17.7599 
  59   2.0000      -0.645770       -17.5723 
  60   2.0000      -0.638258       -17.3679 
  61   2.0000      -0.624331       -16.9889 
  62   2.0000      -0.604477       -16.4487 
  63   2.0000      -0.600352       -16.3364 
  64   2.0000      -0.577846       -15.7240 
  65   2.0000      -0.571475       -15.5506 
  66   2.0000      -0.570401       -15.5214 
  67   2.0000      -0.558040       -15.1850 
  68   2.0000      -0.553801       -15.0697 
  69   2.0000      -0.541692       -14.7402 
  70   2.0000      -0.530438       -14.4339 
  71   2.0000      -0.518000       -14.0955 
  72   2.0000      -0.499588       -13.5945 
  73   2.0000      -0.487063       -13.2537 
  74   2.0000      -0.486954       -13.2507 
  75   2.0000      -0.474608       -12.9147 
  76   2.0000      -0.467622       -12.7246 
  77   2.0000      -0.463091       -12.6014 
  78   2.0000      -0.460436       -12.5291 
  79   2.0000      -0.450460       -12.2576 
  80   2.0000      -0.449584       -12.2338 
  81   2.0000      -0.447621       -12.1804 
  82   2.0000      -0.445536       -12.1236 
  83   2.0000      -0.442931       -12.0528 
  84   2.0000      -0.441759       -12.0209 
  85   2.0000      -0.431873       -11.7519 
  86   2.0000      -0.424927       -11.5628 
  87   2.0000      -0.420201       -11.4343 
  88   2.0000      -0.417338       -11.3564 
  89   2.0000      -0.414394       -11.2762 
  90   2.0000      -0.410686       -11.1753 
  91   2.0000      -0.408698       -11.1212 
  92   2.0000      -0.401636       -10.9291 
  93   2.0000      -0.399201       -10.8628 
  94   2.0000      -0.399096       -10.8599 
  95   2.0000      -0.387392       -10.5415 
  96   2.0000      -0.384394       -10.4599 
  97   2.0000      -0.379265       -10.3203 
  98   2.0000      -0.375896       -10.2286 
  99   2.0000      -0.373621       -10.1667 
 100   2.0000      -0.372263       -10.1298 
 101   2.0000      -0.360685        -9.8147 
 102   2.0000      -0.358208        -9.7473 
 103   2.0000      -0.354170        -9.6375 
 104   2.0000      -0.345979        -9.4146 
 105   2.0000      -0.341158        -9.2834 
 106   2.0000      -0.329431        -8.9643 
 107   2.0000      -0.321385        -8.7453 
 108   2.0000      -0.311676        -8.4811 
 109   2.0000      -0.307642        -8.3714 
 110   2.0000      -0.301608        -8.2072 
 111   2.0000      -0.299989        -8.1631 
 112   2.0000      -0.271641        -7.3917 
 113   2.0000      -0.260429        -7.0866 
 114   2.0000      -0.242146        -6.5891 
 115   2.0000      -0.241844        -6.5809 
 116   2.0000      -0.230964        -6.2849 
 117   2.0000      -0.223253        -6.0750 
 118   0.0000      -0.038908        -1.0587 
 119   0.0000      -0.024421        -0.6645 
 120   0.0000      -0.013700        -0.3728 
 121   0.0000       0.002443         0.0665 
 122   0.0000       0.013103         0.3565 
 123   0.0000       0.019762         0.5378 
 124   0.0000       0.032414         0.8820 
 125   0.0000       0.049955         1.3593 
 126   0.0000       0.076350         2.0776 
 127   0.0000       0.089357         2.4315 
 128   0.0000       0.102522         2.7898 
*Only the first 10 virtual orbitals were printed.

                    ********************************
                    * MULLIKEN POPULATION ANALYSIS *
                    ********************************

-----------------------
MULLIKEN ATOMIC CHARGES
-----------------------
   0 O :   -0.477590
   1 C :    0.666889
   2 N :   -0.705011
   3 C :    0.329112
   4 C :   -0.109920
   5 C :   -0.176483
   6 C :    0.000111
   7 C :    0.897035
   8 F :   -0.295481
   9 F :   -0.304142
  10 F :   -0.303340
  11 C :   -0.174827
  12 C :   -0.121385
  13 Cl:   -0.004366
  14 N :   -0.437067
  15 C :   -0.127631
  16 C :   -0.294815
  17 C :    0.337437
  18 C :   -0.308829
  19 C :   -0.351681
  20 C :    0.116928
  21 C :   -0.183752
  22 C :   -0.124564
  23 C :   -0.132970
  24 C :   -0.143301
  25 Cl:   -0.009776
  26 C :    0.328436
  27 O :   -0.540289
  28 C :   -0.287668
  29 C :   -0.153599
  30 H :    0.343485
  31 H :    0.170529
  32 H :    0.161039
  33 H :    0.173399
  34 H :    0.146465
  35 H :    0.173569
  36 H :    0.148641
  37 H :    0.155354
  38 H :    0.151346
  39 H :    0.146469
  40 H :    0.155943
  41 H :    0.155337
  42 H :    0.128689
  43 H :    0.132616
  44 H :    0.151091
  45 H :    0.152639
  46 H :    0.144786
  47 H :    0.153078
  48 H :    0.148065
Sum of atomic charges:   -0.0000000

--------------------------------
MULLIKEN REDUCED ORBITAL CHARGES
--------------------------------
  0 O s       :     3.887104  s :     3.887104
      pz      :     1.433664  p :     4.565180
      px      :     1.675608
      py      :     1.455908
      dz2     :     0.007300  d :     0.025307
      dxz     :     0.006914
      dyz     :     0.006710
      dx2y2   :     0.001743
      dxy     :     0.002639

  1 C s       :     2.921896  s :     2.921896
      pz      :     0.727064  p :     2.295805
      px      :     0.741070
      py      :     0.827671
      dz2     :     0.033029  d :     0.115411
      dxz     :     0.032210
      dyz     :     0.019749
      dx2y2   :     0.014527
      dxy     :     0.015895

  2 N s       :     3.627054  s :     3.627054
      pz      :     1.191105  p :     4.048988
      px      :     1.156296
      py      :     1.701586
      dz2     :     0.006328  d :     0.028970
      dxz     :     0.011548
      dyz     :     0.002331
      dx2y2   :     0.004398
      dxy     :     0.004365

  3 C s       :     3.076522  s :     3.076522
      pz      :     0.901277  p :     2.539439
      px      :     0.718144
      py      :     0.920019
      dz2     :     0.010857  d :     0.054927
      dxz     :     0.011139
      dyz     :     0.005619
      dx2y2   :     0.012089
      dxy     :     0.015223

  4 C s       :     3.188280  s :     3.188280
      pz      :     0.983552  p :     2.886499
      px      :     0.941804
      py      :     0.961143
      dz2     :     0.005435  d :     0.035141
      dxz     :     0.010355
      dyz     :     0.005625
      dx2y2   :     0.006075
      dxy     :     0.007652

  5 C s       :     3.210978  s :     3.210978
      pz      :     0.977075  p :     2.929302
      px      :     0.970008
      py      :     0.982220
      dz2     :     0.005930  d :     0.036202
      dxz     :     0.010937
      dyz     :     0.005556
      dx2y2   :     0.005942
      dxy     :     0.007837

  6 C s       :     3.153045  s :     3.153045
      pz      :     0.923498  p :     2.808714
      px      :     0.897671
      py      :     0.987545
      dz2     :     0.009285  d :     0.038131
      dxz     :     0.008591
      dyz     :     0.005673
      dx2y2   :     0.009198
      dxy     :     0.005383

  7 C s       :     2.802939  s :     2.802939
      pz      :     0.621741  p :     2.161772
      px      :     0.916047
      py      :     0.623984
      dz2     :     0.028442  d :     0.138254
      dxz     :     0.024261
      dyz     :     0.034157
      dx2y2   :     0.029498
      dxy     :     0.021896

  8 F s       :     3.976486  s :     3.976486
      pz      :     1.770985  p :     5.302626
      px      :     1.897019
      py      :     1.634623
      dz2     :     0.002387  d :     0.016369
      dxz     :     0.001664
      dyz     :     0.005592
      dx2y2   :     0.003783
      dxy     :     0.002942

  9 F s       :     3.980500  s :     3.980500
      pz      :     1.819758  p :     5.307287
      px      :     1.867678
      py      :     1.619852
      dz2     :     0.002118  d :     0.016356
      dxz     :     0.001622
      dyz     :     0.004693
      dx2y2   :     0.004156
      dxy     :     0.003766

 10 F s       :     3.980721  s :     3.980721
      pz      :     1.572449  p :     5.306247
      px      :     1.832881
      py      :     1.900918
      dz2     :     0.006032  d :     0.016372
      dxz     :     0.005300
      dyz     :     0.002906
      dx2y2   :     0.001216
      dxy     :     0.000919

 11 C s       :     3.212720  s :     3.212720
      pz      :     0.996832  p :     2.926774
      px      :     0.934754
      py      :     0.995188
      dz2     :     0.006480  d :     0.035333
      dxz     :     0.009816
      dyz     :     0.005299
      dx2y2   :     0.006502
      dxy     :     0.007237

 12 C s       :     3.174258  s :     3.174258
      pz      :     0.926701  p :     2.900088
      px      :     0.974868
      py      :     0.998519
      dz2     :     0.009696  d :     0.047039
      dxz     :     0.012873
      dyz     :     0.006980
      dx2y2   :     0.008084
      dxy     :     0.009406

 13 Cls       :     5.925664  s :     5.925664
      pz      :     3.569036  p :    11.049231
      px      :     3.731004
      py      :     3.749191
      dz2     :     0.005064  d :     0.029471
      dxz     :     0.008857
      dyz     :     0.007640
      dx2y2   :     0.002644
      dxy     :     0.005266

 14 N s       :     3.546440  s :     3.546440
      pz      :     1.240786  p :     3.857125
      px      :     1.084269
      py      :     1.532070
      dz2     :     0.007509  d :     0.033503
      dxz     :     0.007600
      dyz     :     0.005246
      dx2y2   :     0.007136
      dxy     :     0.006012

 15 C s       :     3.221015  s :     3.221015
      pz      :     0.873096  p :     2.852429
      px      :     0.948838
      py      :     1.030495
      dz2     :     0.008690  d :     0.054187
      dxz     :     0.012083
      dyz     :     0.016101
      dx2y2   :     0.006421
      dxy     :     0.010892

 16 C s       :     3.272372  s :     3.272372
      pz      :     1.026326  p :     2.984380
      px      :     0.955385
      py      :     1.002670
      dz2     :     0.005763  d :     0.038063
      dxz     :     0.009080
      dyz     :     0.008585
      dx2y2   :     0.006667
      dxy     :     0.007968

 17 C s       :     3.104490  s :     3.104490
      pz      :     0.884067  p :     2.486784
      px      :     0.770354
      py      :     0.832363
      dz2     :     0.010053  d :     0.071290
      dxz     :     0.017072
      dyz     :     0.014453
      dx2y2   :     0.010821
      dxy     :     0.018890

 18 C s       :     3.271561  s :     3.271561
      pz      :     1.004599  p :     2.998605
      px      :     1.007295
      py      :     0.986711
      dz2     :     0.006344  d :     0.038662
      dxz     :     0.008968
      dyz     :     0.008460
      dx2y2   :     0.003526
      dxy     :     0.011365

 19 C s       :     3.261743  s :     3.261743
      pz      :     1.023118  p :     3.049026
      px      :     1.004756
      py      :     1.021153
      dz2     :     0.003909  d :     0.040912
      dxz     :     0.010321
      dyz     :     0.012017
      dx2y2   :     0.003765
      dxy     :     0.010900

 20 C s       :     3.117177  s :     3.117177
      pz      :     0.977180  p :     2.726174
      px      :     0.904641
      py      :     0.844353
      dz2     :     0.004490  d :     0.039721
      dxz     :     0.006337
      dyz     :     0.007082
      dx2y2   :     0.011482
      dxy     :     0.010330

 21 C s       :     3.207340  s :     3.207340
      pz      :     0.990081  p :     2.940039
      px      :     0.972609
      py      :     0.977348
      dz2     :     0.005526  d :     0.036373
      dxz     :     0.005892
      dyz     :     0.003875
      dx2y2   :     0.011915
      dxy     :     0.009166

 22 C s       :     3.182344  s :     3.182344
      pz      :     1.000790  p :     2.906057
      px      :     0.978227
      py      :     0.927039
      dz2     :     0.004085  d :     0.036164
      dxz     :     0.004558
      dyz     :     0.006702
      dx2y2   :     0.010414
      dxy     :     0.010405

 23 C s       :     3.192795  s :     3.192795
      pz      :     0.994668  p :     2.904390
      px      :     0.957709
      py      :     0.952013
      dz2     :     0.003066  d :     0.035785
      dxz     :     0.005717
      dyz     :     0.007044
      dx2y2   :     0.008948
      dxy     :     0.011009

 24 C s       :     3.183305  s :     3.183305
      pz      :     1.073245  p :     2.912880
      px      :     1.033485
      py      :     0.806149
      dz2     :     0.005963  d :     0.047116
      dxz     :     0.006322
      dyz     :     0.008365
      dx2y2   :     0.012758
      dxy     :     0.013708

 25 Cls       :     5.923591  s :     5.923591
      pz      :     3.921532  p :    11.056722
      px      :     3.915003
      py      :     3.220187
      dz2     :     0.004376  d :     0.029463
      dxz     :     0.000639
      dyz     :     0.006491
      dx2y2   :     0.012011
      dxy     :     0.005946

 26 C s       :     3.091238  s :     3.091238
      pz      :     0.936100  p :     2.514422
      px      :     0.717092
      py      :     0.861230
      dz2     :     0.008376  d :     0.065904
      dxz     :     0.012688
      dyz     :     0.009452
      dx2y2   :     0.017097
      dxy     :     0.018290

 27 O s       :     3.901992  s :     3.901992
      pz      :     1.720469  p :     4.610766
      px      :     1.281475
      py      :     1.608823
      dz2     :     0.003743  d :     0.027530
      dxz     :     0.005213
      dyz     :     0.004225
      dx2y2   :     0.005139
      dxy     :     0.009211

 28 C s       :     3.264647  s :     3.264647
      pz      :     0.994550  p :     2.984944
      px      :     0.954767
      py      :     1.035627
      dz2     :     0.003594  d :     0.038076
      dxz     :     0.009233
      dyz     :     0.011413
      dx2y2   :     0.005816
      dxy     :     0.008020

 29 C s       :     3.224696  s :     3.224696
      pz      :     0.949223  p :     2.873892
      px      :     0.954545
      py      :     0.970124
      dz2     :     0.008589  d :     0.055011
      dxz     :     0.013780
      dyz     :     0.010529
      dx2y2   :     0.011924
      dxy     :     0.010188

 30 H s       :     0.656515  s :     0.656515

 31 H s       :     0.829471  s :     0.829471

 32 H s       :     0.838961  s :     0.838961

 33 H s       :     0.826601  s :     0.826601

 34 H s       :     0.853535  s :     0.853535

 35 H s       :     0.826431  s :     0.826431

 36 H s       :     0.851359  s :     0.851359

 37 H s       :     0.844646  s :     0.844646

 38 H s       :     0.848654  s :     0.848654

 39 H s       :     0.853531  s :     0.853531

 40 H s       :     0.844057  s :     0.844057

 41 H s       :     0.844663  s :     0.844663

 42 H s       :     0.871311  s :     0.871311

 43 H s       :     0.867384  s :     0.867384

 44 H s       :     0.848909  s :     0.848909

 45 H s       :     0.847361  s :     0.847361

 46 H s       :     0.855214  s :     0.855214

 47 H s       :     0.846922  s :     0.846922

 48 H s       :     0.851935  s :     0.851935



                     *******************************
                     * LOEWDIN POPULATION ANALYSIS *
                     *******************************

----------------------
LOEWDIN ATOMIC CHARGES
----------------------
   0 O :   -0.297731
   1 C :    0.166572
   2 N :   -0.220604
   3 C :    0.039797
   4 C :   -0.108232
   5 C :   -0.110161
   6 C :   -0.070469
   7 C :    0.311478
   8 F :   -0.113102
   9 F :   -0.112697
  10 F :   -0.111359
  11 C :   -0.116733
  12 C :   -0.099921
  13 Cl:    0.039203
  14 N :   -0.139682
  15 C :   -0.141395
  16 C :   -0.227530
  17 C :    0.076143
  18 C :   -0.235565
  19 C :   -0.223826
  20 C :   -0.051174
  21 C :   -0.127834
  22 C :   -0.140365
  23 C :   -0.131271
  24 C :   -0.110025
  25 Cl:    0.039101
  26 C :    0.075783
  27 O :   -0.163422
  28 C :   -0.238841
  29 C :   -0.151890
  30 H :    0.262333
  31 H :    0.157697
  32 H :    0.148415
  33 H :    0.155792
  34 H :    0.115782
  35 H :    0.145310
  36 H :    0.132622
  37 H :    0.133709
  38 H :    0.130209
  39 H :    0.128112
  40 H :    0.136374
  41 H :    0.129468
  42 H :    0.132853
  43 H :    0.134903
  44 H :    0.145497
  45 H :    0.132205
  46 H :    0.128892
  47 H :    0.131104
  48 H :    0.114476

-------------------------------
LOEWDIN REDUCED ORBITAL CHARGES
-------------------------------
  0 O s       :     3.592180  s :     3.592180
      pz      :     1.506825  p :     4.655518
      px      :     1.694032
      py      :     1.454661
      dz2     :     0.015178  d :     0.050033
      dxz     :     0.017167
      dyz     :     0.010326
      dx2y2   :     0.003469
      dxy     :     0.003892

  1 C s       :     2.840605  s :     2.840605
      pz      :     0.951581  p :     2.729174
      px      :     0.933809
      py      :     0.843784
      dz2     :     0.080169  d :     0.263649
      dxz     :     0.076587
      dyz     :     0.041036
      dx2y2   :     0.033697
      dxy     :     0.032160

  2 N s       :     3.145320  s :     3.145320
      pz      :     1.198467  p :     4.006717
      px      :     1.158357
      py      :     1.649893
      dz2     :     0.016638  d :     0.068567
      dxz     :     0.028555
      dyz     :     0.004873
      dx2y2   :     0.009246
      dxy     :     0.009255

  3 C s       :     2.856806  s :     2.856806
      pz      :     1.044316  p :     2.970506
      px      :     0.926253
      py      :     0.999937
      dz2     :     0.026535  d :     0.132891
      dxz     :     0.028827
      dyz     :     0.014227
      dx2y2   :     0.029412
      dxy     :     0.033890

  4 C s       :     2.917706  s :     2.917706
      pz      :     1.045413  p :     3.108203
      px      :     1.063031
      py      :     0.999759
      dz2     :     0.012461  d :     0.082324
      dxz     :     0.025132
      dyz     :     0.010566
      dx2y2   :     0.016322
      dxy     :     0.017843

  5 C s       :     2.916422  s :     2.916422
      pz      :     1.036568  p :     3.109156
      px      :     1.070093
      py      :     1.002494
      dz2     :     0.013964  d :     0.084583
      dxz     :     0.026596
      dyz     :     0.010721
      dx2y2   :     0.015613
      dxy     :     0.017690

  6 C s       :     2.886361  s :     2.886361
      pz      :     1.052506  p :     3.087195
      px      :     1.004643
      py      :     1.030045
      dz2     :     0.023144  d :     0.096912
      dxz     :     0.023513
      dyz     :     0.014664
      dx2y2   :     0.022549
      dxy     :     0.013042

  7 C s       :     2.849454  s :     2.849454
      pz      :     0.767105  p :     2.509591
      px      :     0.972046
      py      :     0.770440
      dz2     :     0.069575  d :     0.329477
      dxz     :     0.053733
      dyz     :     0.084496
      dx2y2   :     0.075751
      dxy     :     0.045922

  8 F s       :     3.761801  s :     3.761801
      pz      :     1.778173  p :     5.320000
      px      :     1.891015
      py      :     1.650811
      dz2     :     0.003746  d :     0.031301
      dxz     :     0.003160
      dyz     :     0.011472
      dx2y2   :     0.007092
      dxy     :     0.005831

  9 F s       :     3.759409  s :     3.759409
      pz      :     1.822297  p :     5.322257
      px      :     1.864908
      py      :     1.635052
      dz2     :     0.003442  d :     0.031031
      dxz     :     0.003154
      dyz     :     0.009248
      dx2y2   :     0.007639
      dxy     :     0.007547

 10 F s       :     3.759346  s :     3.759346
      pz      :     1.590258  p :     5.321007
      px      :     1.832685
      py      :     1.898064
      dz2     :     0.011628  d :     0.031006
      dxz     :     0.011246
      dyz     :     0.004717
      dx2y2   :     0.002077
      dxy     :     0.001338

 11 C s       :     2.918155  s :     2.918155
      pz      :     1.055478  p :     3.114861
      px      :     1.046915
      py      :     1.012467
      dz2     :     0.015060  d :     0.083717
      dxz     :     0.024319
      dyz     :     0.009723
      dx2y2   :     0.017595
      dxy     :     0.017020

 12 C s       :     2.914748  s :     2.914748
      pz      :     1.003216  p :     3.074756
      px      :     1.049503
      py      :     1.022037
      dz2     :     0.022291  d :     0.110417
      dxz     :     0.031663
      dyz     :     0.015443
      dx2y2   :     0.019780
      dxy     :     0.021239

 13 Cls       :     5.802849  s :     5.802849
      pz      :     3.606220  p :    11.124876
      px      :     3.753216
      py      :     3.765440
      dz2     :     0.005491  d :     0.033072
      dxz     :     0.010210
      dyz     :     0.008667
      dx2y2   :     0.002765
      dxy     :     0.005939

 14 N s       :     3.108782  s :     3.108782
      pz      :     1.290937  p :     3.946448
      px      :     1.131273
      py      :     1.524238
      dz2     :     0.019229  d :     0.084453
      dxz     :     0.020962
      dyz     :     0.011529
      dx2y2   :     0.018699
      dxy     :     0.014033

 15 C s       :     2.926930  s :     2.926930
      pz      :     0.978490  p :     3.100256
      px      :     1.031031
      py      :     1.090735
      dz2     :     0.019703  d :     0.114209
      dxz     :     0.026445
      dyz     :     0.032332
      dx2y2   :     0.012628
      dxy     :     0.023101

 16 C s       :     2.950361  s :     2.950361
      pz      :     1.082470  p :     3.197240
      px      :     1.042669
      py      :     1.072101
      dz2     :     0.011263  d :     0.079928
      dxz     :     0.019427
      dyz     :     0.017452
      dx2y2   :     0.013962
      dxy     :     0.017823

 17 C s       :     2.868013  s :     2.868013
      pz      :     1.020139  p :     2.891212
      px      :     0.895937
      py      :     0.975136
      dz2     :     0.020826  d :     0.164632
      dxz     :     0.040831
      dyz     :     0.034953
      dx2y2   :     0.023171
      dxy     :     0.044851

 18 C s       :     2.945447  s :     2.945447
      pz      :     1.074511  p :     3.209306
      px      :     1.071662
      py      :     1.063133
      dz2     :     0.012453  d :     0.080811
      dxz     :     0.018584
      dyz     :     0.018480
      dx2y2   :     0.007413
      dxy     :     0.023882

 19 C s       :     2.926437  s :     2.926437
      pz      :     1.082636  p :     3.211641
      px      :     1.058682
      py      :     1.070323
      dz2     :     0.007519  d :     0.085748
      dxz     :     0.022183
      dyz     :     0.024521
      dx2y2   :     0.007790
      dxy     :     0.023735

 20 C s       :     2.872901  s :     2.872901
      pz      :     1.006433  p :     3.079053
      px      :     1.039654
      py      :     1.032965
      dz2     :     0.009517  d :     0.099220
      dxz     :     0.014248
      dyz     :     0.016213
      dx2y2   :     0.030068
      dxy     :     0.029173

 21 C s       :     2.915792  s :     2.915792
      pz      :     1.009896  p :     3.126537
      px      :     1.047689
      py      :     1.068952
      dz2     :     0.010797  d :     0.085505
      dxz     :     0.014924
      dyz     :     0.008613
      dx2y2   :     0.028085
      dxy     :     0.023086

 22 C s       :     2.913761  s :     2.913761
      pz      :     1.019529  p :     3.141121
      px      :     1.061006
      py      :     1.060586
      dz2     :     0.008332  d :     0.085484
      dxz     :     0.008843
      dyz     :     0.016250
      dx2y2   :     0.026296
      dxy     :     0.025762

 23 C s       :     2.917851  s :     2.917851
      pz      :     1.012527  p :     3.128344
      px      :     1.043633
      py      :     1.072184
      dz2     :     0.006615  d :     0.085076
      dxz     :     0.011733
      dyz     :     0.015051
      dx2y2   :     0.023530
      dxy     :     0.028147

 24 C s       :     2.912765  s :     2.912765
      pz      :     1.070942  p :     3.086548
      px      :     1.085402
      py      :     0.930204
      dz2     :     0.012233  d :     0.110713
      dxz     :     0.014727
      dyz     :     0.017888
      dx2y2   :     0.031973
      dxy     :     0.033892

 25 Cls       :     5.801031  s :     5.801031
      pz      :     3.916497  p :    11.126638
      px      :     3.912860
      py      :     3.297281
      dz2     :     0.004985  d :     0.033231
      dxz     :     0.000700
      dyz     :     0.007060
      dx2y2   :     0.014047
      dxy     :     0.006440

 26 C s       :     2.856306  s :     2.856306
      pz      :     0.982955  p :     2.910702
      px      :     0.885302
      py      :     1.042445
      dz2     :     0.017958  d :     0.157209
      dxz     :     0.028246
      dyz     :     0.021477
      dx2y2   :     0.042110
      dxy     :     0.047418

 27 O s       :     3.461965  s :     3.461965
      pz      :     1.706351  p :     4.639595
      px      :     1.301421
      py      :     1.631822
      dz2     :     0.007237  d :     0.061863
      dxz     :     0.012993
      dyz     :     0.007302
      dx2y2   :     0.013740
      dxy     :     0.020590

 28 C s       :     2.951958  s :     2.951958
      pz      :     1.063131  p :     3.206231
      px      :     1.046262
      py      :     1.096838
      dz2     :     0.008242  d :     0.080652
      dxz     :     0.020618
      dyz     :     0.022175
      dx2y2   :     0.012170
      dxy     :     0.017447

 29 C s       :     2.926755  s :     2.926755
      pz      :     1.031690  p :     3.109082
      px      :     1.030165
      py      :     1.047228
      dz2     :     0.017585  d :     0.116052
      dxz     :     0.029182
      dyz     :     0.021373
      dx2y2   :     0.024996
      dxy     :     0.022915

 30 H s       :     0.737667  s :     0.737667

 31 H s       :     0.842303  s :     0.842303

 32 H s       :     0.851585  s :     0.851585

 33 H s       :     0.844208  s :     0.844208

 34 H s       :     0.884218  s :     0.884218

 35 H s       :     0.854690  s :     0.854690

 36 H s       :     0.867378  s :     0.867378

 37 H s       :     0.866291  s :     0.866291

 38 H s       :     0.869791  s :     0.869791

 39 H s       :     0.871888  s :     0.871888

 40 H s       :     0.863626  s :     0.863626

 41 H s       :     0.870532  s :     0.870532

 42 H s       :     0.867147  s :     0.867147

 43 H s       :     0.865097  s :     0.865097

 44 H s       :     0.854503  s :     0.854503

 45 H s       :     0.867795  s :     0.867795

 46 H s       :     0.871108  s :     0.871108

 47 H s       :     0.868896  s :     0.868896

 48 H s       :     0.885524  s :     0.885524



                      *****************************
                      * MAYER POPULATION ANALYSIS *
                      *****************************

  NA   - Mulliken gross atomic population
  ZA   - Total nuclear charge
  QA   - Mulliken gross atomic charge
  VA   - Mayer's total valence
  BVA  - Mayer's bonded valence
  FA   - Mayer's free valence

  ATOM       NA         ZA         QA         VA         BVA        FA
  0 O      8.4776     8.0000    -0.4776     2.0400     2.0400     0.0000
  1 C      5.3331     6.0000     0.6669     3.9544     3.9544    -0.0000
  2 N      7.7050     7.0000    -0.7050     2.8898     2.8898    -0.0000
  3 C      5.6709     6.0000     0.3291     3.8595     3.8595    -0.0000
  4 C      6.1099     6.0000    -0.1099     3.9054     3.9054     0.0000
  5 C      6.1765     6.0000    -0.1765     3.9307     3.9307     0.0000
  6 C      5.9999     6.0000     0.0001     3.9496     3.9496     0.0000
  7 C      5.1030     6.0000     0.8970     3.9207     3.9207    -0.0000
  8 F      9.2955     9.0000    -0.2955     1.0573     1.0573    -0.0000
  9 F      9.3041     9.0000    -0.3041     1.0560     1.0560     0.0000
 10 F      9.3033     9.0000    -0.3033     1.0575     1.0575    -0.0000
 11 C      6.1748     6.0000    -0.1748     3.9185     3.9185    -0.0000
 12 C      6.1214     6.0000    -0.1214     3.9084     3.9084     0.0000
 13 Cl    17.0044    17.0000    -0.0044     1.1189     1.1189     0.0000
 14 N      7.4371     7.0000    -0.4371     2.9959     2.9959    -0.0000
 15 C      6.1276     6.0000    -0.1276     3.8207     3.8207     0.0000
 16 C      6.2948     6.0000    -0.2948     3.8330     3.8330    -0.0000
 17 C      5.6626     6.0000     0.3374     3.8308     3.8308     0.0000
 18 C      6.3088     6.0000    -0.3088     3.8328     3.8328     0.0000
 19 C      6.3517     6.0000    -0.3517     3.8608     3.8608    -0.0000
 20 C      5.8831     6.0000     0.1169     3.8916     3.8916     0.0000
 21 C      6.1838     6.0000    -0.1838     3.9374     3.9374    -0.0000
 22 C      6.1246     6.0000    -0.1246     3.9346     3.9346    -0.0000
 23 C      6.1330     6.0000    -0.1330     3.9374     3.9374    -0.0000
 24 C      6.1433     6.0000    -0.1433     3.8989     3.8989     0.0000
 25 Cl    17.0098    17.0000    -0.0098     1.1099     1.1099    -0.0000
 26 C      5.6716     6.0000     0.3284     3.8286     3.8286     0.0000
 27 O      8.5403     8.0000    -0.5403     1.9456     1.9456     0.0000
 28 C      6.2877     6.0000    -0.2877     3.8119     3.8119     0.0000
 29 C      6.1536     6.0000    -0.1536     3.8291     3.8291    -0.0000
 30 H      0.6565     1.0000     0.3435     0.8609     0.8609    -0.0000
 31 H      0.8295     1.0000     0.1705     0.9429     0.9429     0.0000
 32 H      0.8390     1.0000     0.1610     0.9395     0.9395     0.0000
 33 H      0.8266     1.0000     0.1734     0.9410     0.9410     0.0000
 34 H      0.8535     1.0000     0.1465     0.9288     0.9288     0.0000
 35 H      0.8264     1.0000     0.1736     0.9370     0.9370    -0.0000
 36 H      0.8514     1.0000     0.1486     0.9383     0.9383    -0.0000
 37 H      0.8446     1.0000     0.1554     0.9376     0.9376    -0.0000
 38 H      0.8487     1.0000     0.1513     0.9348     0.9348    -0.0000
 39 H      0.8535     1.0000     0.1465     0.9388     0.9388    -0.0000
 40 H      0.8441     1.0000     0.1559     0.9314     0.9314    -0.0000
 41 H      0.8447     1.0000     0.1553     0.9274     0.9274    -0.0000
 42 H      0.8713     1.0000     0.1287     0.9391     0.9391    -0.0000
 43 H      0.8674     1.0000     0.1326     0.9375     0.9375    -0.0000
 44 H      0.8489     1.0000     0.1511     0.9384     0.9384    -0.0000
 45 H      0.8474     1.0000     0.1526     0.9396     0.9396    -0.0000
 46 H      0.8552     1.0000     0.1448     0.9384     0.9384     0.0000
 47 H      0.8469     1.0000     0.1531     0.9388     0.9388     0.0000
 48 H      0.8519     1.0000     0.1481     0.9260     0.9260     0.0000

  Mayer bond orders larger than 0.100000
B(  0-O ,  1-C ) :   1.8164 B(  1-C ,  2-N ) :   1.0077 B(  1-C , 14-N ) :   1.0405 
B(  2-N ,  3-C ) :   0.9071 B(  2-N , 30-H ) :   0.8091 B(  3-C ,  4-C ) :   1.4156 
B(  3-C , 12-C ) :   1.3535 B(  4-C ,  5-C ) :   1.4291 B(  4-C , 31-H ) :   0.9088 
B(  5-C ,  6-C ) :   1.3968 B(  5-C , 32-H ) :   0.9180 B(  6-C ,  7-C ) :   0.9804 
B(  6-C , 11-C ) :   1.4135 B(  7-C ,  8-F ) :   0.9873 B(  7-C ,  9-F ) :   0.9488 
B(  7-C , 10-F ) :   0.9496 B( 11-C , 12-C ) :   1.3975 B( 11-C , 33-H ) :   0.9110 
B( 12-C , 13-Cl) :   1.0337 B( 14-N , 15-C ) :   0.9402 B( 14-N , 29-C ) :   0.9546 
B( 15-C , 16-C ) :   0.9723 B( 15-C , 34-H ) :   0.9221 B( 15-C , 35-H ) :   0.9295 
B( 16-C , 17-C ) :   0.9959 B( 16-C , 36-H ) :   0.9260 B( 16-C , 37-H ) :   0.9261 
B( 17-C , 18-C ) :   0.9720 B( 17-C , 27-O ) :   0.8278 B( 17-C , 28-C ) :   0.9836 
B( 18-C , 19-C ) :   0.9958 B( 18-C , 38-H ) :   0.9304 B( 18-C , 39-H ) :   0.9225 
B( 19-C , 20-C ) :   0.9792 B( 19-C , 40-H ) :   0.9316 B( 19-C , 41-H ) :   0.9212 
B( 20-C , 21-C ) :   1.4192 B( 20-C , 26-C ) :   1.3658 B( 21-C , 22-C ) :   1.4376 
B( 21-C , 42-H ) :   0.9268 B( 22-C , 23-C ) :   1.4449 B( 22-C , 43-H ) :   0.9285 
B( 23-C , 24-C ) :   1.4259 B( 23-C , 44-H ) :   0.9231 B( 24-C , 25-Cl) :   1.0257 
B( 24-C , 26-C ) :   1.3228 B( 26-C , 27-O ) :   0.9418 B( 28-C , 29-C ) :   0.9759 
B( 28-C , 45-H ) :   0.9278 B( 28-C , 46-H ) :   0.9231 B( 29-C , 47-H ) :   0.9299 
B( 29-C , 48-H ) :   0.9185 

-------
TIMINGS
-------

Total SCF time: 0 days 0 hours 5 min 59 sec 

Total time                  ....     359.511 sec
Sum of individual times     ....     359.102 sec  ( 99.9%)

SCF preparation             ....       0.343 sec  (  0.1%)
Fock matrix formation       ....     356.924 sec  ( 99.3%)
  Startup                   ....       0.078 sec  (  0.0% of F)
  Split-RI-J                ....      45.816 sec  ( 12.8% of F)
  Chain of spheres X        ....     277.719 sec  ( 77.8% of F)
  XC integration            ....      32.659 sec  (  9.2% of F)
    XC Preparation          ....       0.000 sec  (  0.0% of XC)
    Basis function eval.    ....      11.970 sec  ( 36.7% of XC)
    Density eval.           ....       7.757 sec  ( 23.8% of XC)
    XC-Functional eval.     ....       1.508 sec  (  4.6% of XC)
    XC-Potential eval.      ....       9.652 sec  ( 29.6% of XC)
Diagonalization             ....       0.000 sec  (  0.0%)
Density matrix formation    ....       0.420 sec  (  0.1%)
Total Energy calculation    ....       0.058 sec  (  0.0%)
Population analysis         ....       0.062 sec  (  0.0%)
Orbital Transformation      ....       0.144 sec  (  0.0%)
Orbital Orthonormalization  ....       0.000 sec  (  0.0%)
DIIS solution               ....       0.766 sec  (  0.2%)
SOSCF solution              ....       0.385 sec  (  0.1%)
Finished LeanSCF after 359.6 sec

Maximum memory used throughout the entire LEANSCF-calculation: 74.6 MB

-------------------------   --------------------
FINAL SINGLE POINT ENERGY     -2290.645224665627
-------------------------   --------------------


------------------------------------------------------------------------------
                              ORCA PROPERTY CALCULATIONS
------------------------------------------------------------------------------

GBWName                                 ... /home/nmrbox/aojoawo/Documents/ERDOS/inputs/CHEMBL2443089.gbw
Number of atoms                         ...     49
Number of basis functions               ...    466
Max core memory                         ...   1024 MB

Electric properties:
Dipole moment                           ... YES
Quadrupole moment                       ...  NO
Static polarizability (Dipole/Dipole)   ...  NO
Static polarizability (Dipole/Quad.)    ...  NO
Static polarizability (Quad./Quad.)     ...  NO
Static polarizability (Velocity)        ...  NO

Atomic electric properties:
Dipole moment                           ...  NO
Quadrupole moment                       ...  NO
Static polarizability                   ...  NO

Choice of electric origin               ... Center of mass
Position of electric origin             ...    -1.667576    -0.423350     0.753558

General magnetic properties:
Magnetizability                         ...  NO

EPR properties:
g-Tensor (aka g-matrix)                 ...  NO
Zero-Field splitting spin-orbit         ...  NO
Zero-field splitting spin-spin          ...  NO
Hyperfine couplings                     ...  NO (   0 nuclei)
Quadrupole couplings                    ...  NO (   0 nuclei)
Contact density                         ...  NO (   0 nuclei)

NMR properties:
Chemical shifts                         ...  NO (   0 nuclei)
Spin-rotation constants                 ...  NO (   0 nuclei)
Spin-spin couplings                     ...  NO (   0 nuclei,    0 pairs)

Choice of magnetic origin               ... GIAO
Position of magnetic origin             ...     0.000000     0.000000     0.000000

Properties with geometric perturbations:
SCF Hessian                             ...  NO
IR spectrum                             ...  NO
VCD spectrum                            ...  NO
X-ray spectroscopy properties:
SCF XES/XAS/RIXS spectra                ...  NO


-------------
DIPOLE MOMENT
-------------

Method             : SCF
Type of density    : Electron Density
Multiplicity       :   1
Irrep              :   0
Energy             : -2290.6452246656272109 Eh
Relativity type    : 
Basis              : AO
                                X                 Y                 Z
Electronic contribution:    -53.556289198      -9.643314302      18.640955303
Nuclear contribution   :     54.984072995      10.273045689     -18.454040183
                        -----------------------------------------
Total Dipole Moment    :      1.427783797       0.629731388       0.186915119
                        -----------------------------------------
Magnitude (a.u.)       :      1.571644188
Magnitude (Debye)      :      3.994802053



--------------------
Rotational spectrum 
--------------------
 
Rotational constants in cm-1:             0.012308             0.001277             0.001270 
Rotational constants in MHz :           368.981876            38.283728            38.068193 

Dipole components along the rotational axes: 
x,y,z [a.u.] :     1.383224     0.366640     0.649870 
x,y,z [Debye]:     3.515877     0.931925     1.651839 

 

Dipole moment calculation done in   0.0 sec 

Maximum memory used throughout the entire PROP-calculation: 35.9 MB

--------------------------------
SUGGESTED CITATIONS FOR THIS RUN
--------------------------------

Below you find a list of papers that are relevant to this ORCA run
We neither can nor want to force you to cite these papers, but we appreciate if you do
You receive ORCA, which is the product of decades of hard work by many enthusiastic individuals, for free
The only thing we kindly ask in return is that you cite our papers,
We deeply appreciate it, if you show your appreciation for ORCA by not just citing the generic ORCA reference.

Please note that relegating all ORCA citations to the supporting information does *not* help us.
SI sections are not indexed - citations you put there will not count into any citation statistics
But we need these citations in order to attract the funding resources that allow us to do what we are doing

Therefore, if you are a happy ORCA user, please consider citing a few of the papers listed below in the main body of your paper

In addition to the list printed below, the program has created the file /home/nmrbox/aojoawo/Documents/ERDOS/inputs/CHEMBL2443089.bibtex that contains the list in bibtex format
You can import this file easily into all common literature databanks and citation aid programs


List of essential papers. We consider these as the minimum necessary citations

  1. Neese,F.
     Software update: the ORCA program system, version 5.0
     WIRES Comput. Molec. Sci., 2022 12(1)e1606
     doi.org/10.1002/wcms.1606

List of papers to cite with high priority. The work reported in these papers was absolutely
necessary for this run to complete.
Our perspective: the developers of density functionals and basis sets usually get cited in chemistry papers
Good! But without the algorithms to do something with them, the functionals or basis sets would not do anything.
Hence, in our opinion, the algorithm design and method developments papers are equally worthy of getting cited

  1. Neese,F.
     An improvement of the resolution of the identity approximation for the formation of the Coulomb matrix
     J. Comp. Chem., 2003 24(14)1740-1747
     doi.org/10.1002/jcc.10318
  2. Neese,F.; Wennmohs,F.; Hansen,A.; Becker,U.
     Efficient, approximate and parallel Hartree-Fock and hybrid DFT calculations. A 'chain-of-spheres' algorithm for the Hartree-Fock exchange
     Chem. Phys., 2009 356(1-3)98-109
     doi.org/10.1016/j.chemphys.2008.10.036
  3. Helmich-Paris,B.; de Souza,B.; Neese,F.; Izsák,R.
     An improved chain of spheres for exchange algorithm
     J. Chem. Phys., 2021 155 104109
     doi.org/doi: 10.1063/5.0058766.
  4. Neese,F.
     The SHARK Integral Generation and Digestion System
     J. Comp. Chem., 2022  1-16
     doi.org/10.1002/jcc.26942

List of suggested additional citations. These are papers that are important in the 'surrounding' of 
of this run, or papers that preceded the highly important papers. If you like your results we are grateful for a citation.

  1. Izsak,R.; Neese,F.
     An overlap fitted chain of spheres exchange method
     J. Chem. Phys., 2011 135 144105
     doi.org/10.1063/1.3646921
  2. Izsak,R.; Hansen,A.; Neese,F.
     The resolution of identity and chain of spheres approximations for the LPNO-CCSD singles Fock term
     Molec. Phys., 2012 110 2413-2417
     doi.org/10.1080/00268976.2012.687466
  3. Neese,F.
     The ORCA program system
     WIRES Comput. Molec. Sci., 2012 2(1)73-78
     doi.org/10.1002/wcms.81
  4. Izsak,R.; Neese,F.; Klopper,W.
     Robust fitting techniques in the chain of spheres approximation to the Fock exchange: The role of the complementary space
     J. Chem. Phys., 2013 139 
     doi.org/10.1063/1.4819264
  5. Neese,F.
     Software update: the ORCA program system, version 4.0
     WIRES Comput. Molec. Sci., 2018 8(1)1-6
     doi.org/10.1002/wcms.1327
  6. Neese,F.; Wennmohs,F.; Becker,U.; Riplinger,C.
     The ORCA quantum chemistry program package
     J. Chem. Phys., 2020 152 Art. No. L224108
     doi.org/10.1063/5.0004608

List of optional additional citations

  1. Neese,F.
     Approximate second-order SCF convergence for spin unrestricted wavefunctions
     Chem. Phys. Lett., 2000 325(1-3)93-98
     doi.org/10.1016/s0009-2614(00)00662-x

Timings for individual modules:

Sum of individual times          ...      376.347 sec (=   6.272 min)
Startup calculation              ...       11.441 sec (=   0.191 min)   3.0 %
SCF iterations                   ...      364.679 sec (=   6.078 min)  96.9 %
Property calculations            ...        0.227 sec (=   0.004 min)   0.1 %
                             ****ORCA TERMINATED NORMALLY****
TOTAL RUN TIME: 0 days 0 hours 6 minutes 16 seconds 984 msec
