
                                 *****************
                                 * O   R   C   A *
                                 *****************

                                            #,                                       
                                            ###                                      
                                            ####                                     
                                            #####                                    
                                            ######                                   
                                           ########,                                 
                                     ,,################,,,,,                         
                               ,,#################################,,                 
                          ,,##########################################,,             
                       ,#########################################, ''#####,          
                    ,#############################################,,   '####,        
                  ,##################################################,,,,####,       
                ,###########''''           ''''###############################       
              ,#####''   ,,,,##########,,,,          '''####'''          '####       
            ,##' ,,,,###########################,,,                        '##       
           ' ,,###''''                  '''############,,,                           
         ,,##''                                '''############,,,,        ,,,,,,###''
      ,#''                                            '''#######################'''  
     '                                                          ''''####''''         
             ,#######,   #######,   ,#######,      ##                                
            ,#'     '#,  ##    ##  ,#'     '#,    #''#        ,####,   ,####,        
            ##       ##  ##   ,#'  ##            #'  '#       #'       #'  '#        
            ##       ##  #######   ##           ,######,      #####,   #    #        
            '#,     ,#'  ##    ##  '#,     ,#' ,#      #,     #,   #   #,  ,#        
             '#######'   ##     ##  '#######'  #'      '#     '####' # '####'        



                #########################################################
                #                        -***-                          #
                #          Department of theory and spectroscopy        #
                #                                                       #
                #                      Frank Neese                      #
                #                                                       #
                #     Directorship, Architecture, Infrastructure        #
                #                    SHARK, DRIVERS                     #
                #        Core code/Algorithms in most modules           #
                #                                                       #
                #        Max Planck Institute fuer Kohlenforschung      #
                #                Kaiser Wilhelm Platz 1                 #
                #                 D-45470 Muelheim/Ruhr                 #
                #                      Germany                          #
                #                                                       #
                #                  All rights reserved                  #
                #                        -***-                          #
                #########################################################


                         Program Version 6.0.0  -   RELEASE  -


 With contributions from (in alphabetic order):
   Daniel Aravena         : Magnetic Suceptibility
   Michael Atanasov       : Ab Initio Ligand Field Theory (pilot matlab implementation)
   Alexander A. Auer      : GIAO ZORA, VPT2 properties, NMR spectrum
   Ute Becker             : All parallelization in ORCA, NUMFREQ, NUMCALC
   Giovanni Bistoni       : ED, misc. LED, open-shell LED, HFLD
   Martin Brehm           : Molecular dynamics
   Dmytro Bykov           : pre 5.0 version of the SCF Hessian
   Marcos Casanova-Páez   : Triplet and SCS-CIS(D). UHF-(DLPNO)-IP/EA/STEOM-CCSD. UHF-CVS-IP/STEOM-CCSD
   Vijay G. Chilkuri      : MRCI spin determinant printing, contributions to CSF-ICE
   Pauline Colinet        : FMM embedding
   Dipayan Datta          : RHF DLPNO-CCSD density
   Achintya Kumar Dutta   : EOM-CC, STEOM-CC
   Nicolas Foglia         : Exact transition moments, OPA infrastructure, MCD improvements
   Dmitry Ganyushin       : Spin-Orbit,Spin-Spin,Magnetic field MRCI
   Miquel Garcia          : C-PCM and meta-GGA Hessian, CCSD/C-PCM, Gaussian charge scheme
   Tiago L. C. Gouveia    : GS-ROHF, GS-ROCIS
   Yang Guo               : DLPNO-NEVPT2, F12-NEVPT2, CIM, IAO-localization
   Andreas Hansen         : Spin unrestricted coupled pair/coupled cluster methods
   Ingolf Harden          : AUTO-CI MPn and infrastructure 
   Benjamin Helmich-Paris : MC-RPA, TRAH-(SCF,CASSCF), AVAS, COSX integrals, SCF dyn. polar.
   Lee Huntington         : MR-EOM, pCC
   Robert Izsak           : Overlap fitted RIJCOSX, COSX-SCS-MP3, EOM
   Riya Kayal             : Wick's Theorem for AUTO-CI, AUTO-CI UHF-CCSDT
   Emily Kempfer          : AUTO-CI, RHF CISDT and CCSDT
   Christian Kollmar      : KDIIS, OOCD, Brueckner-CCSD(T), CCSD density, CASPT2, CASPT2-K, improved NEVPT2
   Axel Koslowski         : Symmetry handling
   Simone Kossmann        : Meta GGA functionals, TD-DFT gradient, OOMP2, (MP2 Hessian; deprecated post 5.0)
   Lucas Lang             : DCDCAS
   Marvin Lechner         : AUTO-CI (C++ implementation), FIC-MRCC
   Spencer Leger          : CASSCF response
   Dagmar Lenk            : GEPOL surface, SMD, ORCA-2-JSON
   Dimitrios Liakos       : Extrapolation schemes; Compound Job, initial MDCI parallelization
   Dimitrios Manganas     : Further ROCIS development; embedding schemes. LFT, Crystal Embedding
   Dimitrios Pantazis     : SARC Basis sets
   Anastasios Papadopoulos: AUTO-CI, single reference methods and gradients
   Taras Petrenko         : pre 6.0 DFT Hessian and TD-DFT gradient, (ASA, deprecated), ECA, 1-Electron XAS/XES, NRVS
   Peter Pinski           : DLPNO-MP2, DLPNO-MP2 Gradient
   Christoph Reimann      : Effective Core Potentials
   Marius Retegan         : Local ZFS, SOC
   Christoph Riplinger    : Optimizer, TS searches, QM/MM, DLPNO-CCSD(T), (RO)-DLPNO pert. Triples
   Michael Roemelt        : Original ROCIS implementation
   Masaaki Saitow         : Open-shell DLPNO-CCSD energy and density
   Barbara Sandhoefer     : DKH picture change effects
   Kantharuban Sivalingam : CASSCF convergence/infrastructure, NEVPT2 and variants, FIC-MRCI
   Bernardo de Souza      : ESD, SOC TD-DFT
   Georgi Stoychev        : AutoAux, RI-MP2 NMR, DLPNO-MP2 response, X2C
   Van Anh Tran           : RI-MP2 g-tensors
   Willem Van den Heuvel  : Paramagnetic NMR
   Zikuan Wang            : NOTCH, Electric field optimization 
   Frank Wennmohs         : Technical directorship and infrastructure
   Hang Xu                : AUTO-CI-Response properties 


 We gratefully acknowledge several colleagues who have allowed us to
 interface, adapt or use parts of their codes:
   Stefan Grimme, W. Hujo, H. Kruse, P. Pracht,  : VdW corrections, initial TS optimization,
                  C. Bannwarth, S. Ehlert,         DFT functionals, gCP, sTDA/sTD-DF
                  L. Wittmann, M. Mueller
   Ed Valeev, F. Pavosevic, A. Kumar             : LibInt (2-el integral package), F12 methods
   Garnet Chan, S. Sharma, J. Yang, R. Olivares  : DMRG
   Ulf Ekstrom                                   : XCFun DFT Library
   Mihaly Kallay                                 : mrcc  (arbitrary order and MRCC methods)
   Frank Weinhold                                : gennbo (NPA and NBO analysis)
   Simon Mueller                                 : openCOSMO-RS
   Christopher J. Cramer and Donald G. Truhlar   : smd solvation model
   Lars Goerigk                                  : TD-DFT with DH, B97 family of functionals
   V. Asgeirsson, H. Jonsson                     : NEB implementation
   FAccTs GmbH                                   : IRC, NEB, NEB-TS, DLPNO-Multilevel, CI-OPT
                                                   MM, QMMM, 2- and 3-layer-ONIOM, Crystal-QMMM,
                                                   LR-CPCM, SF, NACMEs, symmetry and pop. for TD-DFT,
                                                   nearIR, NL-DFT gradient (VV10), updates on ESD,
                                                   ML-optimized integration grids, MBIS, APM,
                                                   GOAT, DOCKER, SOLVATOR, interface openCOSMO-RS
   S Lehtola, MJT Oliveira, MAL Marques          : LibXC Library
   Liviu Ungur et al                             : ANISO software


 Your calculation uses the libint2 library for the computation of 2-el integrals
 For citations please refer to: http://libint.valeyev.net

 Your ORCA version has been built with support for libXC version: 6.2.2
 For citations please refer to: https://libxc.gitlab.io

 This ORCA versions uses:
   CBLAS   interface :  Fast vector & matrix operations
   LAPACKE interface :  Fast linear algebra routines
   SCALAPACK package :  Parallel linear algebra routines
   Shared memory     :  Shared parallel matrices
   BLAS/LAPACK       :  OpenBLAS 0.3.27  USE64BITINT DYNAMIC_ARCH NO_AFFINITY SkylakeX SINGLE_THREADED
        Core in use  :  SkylakeX
   Copyright (c) 2011-2014, The OpenBLAS Project


Warning: RI is on but no J-basis has been assigned. Assigning Def2/J (nothing to worry about!)
================================================================================

----- Orbital basis set information -----
Your calculation utilizes the basis: 6-31G*
   H-He, Li-Ne : W. J. Hehre, R. Ditchfield and J.A. Pople, J. Chem. Phys. 56, 2257 (1972).
                 Note: He and Ne are unpublished basis sets taken from the Gaussian program.
                 Note: Li and B from J. D. Dill and J. A. Pople, J. Chem. Phys. 62, 2921 (1975).
   Na - Ar     : M. M. Francl, W. J. Pietro, W. J. Hehre, J. S. Binkley, M. S. Gordon, 
                 D. J. DeFrees and J. A. Pople, J. Chem. Phys. 77, 3654 (1982).
   K - Zn      : V. A. Rassolov, J. A. Pople, M. A. Ratner, and T. L. Windus, J. Chem. Phys. 109, 1223 (1998).

----- AuxJ basis set information -----
Your calculation utilizes the auxiliary basis: def2/J
   F. Weigend, Phys. Chem. Chem. Phys. 8, 1057 (2006).

================================================================================
                                        WARNINGS
                       Please study these warnings very carefully!
================================================================================


================================================================================
                                       INPUT FILE
================================================================================
NAME = /home/nmrbox/aojoawo/Documents/ERDOS/inputs/CHEMBL3233042.inp
|  1> ! B3LYP 6-31G* SP
|  2> 
|  3> * xyz 0 1
|  4> C -0.4924 1.5765 1.7035
|  5> C -0.7289 1.1104 0.2432
|  6> C -1.5918 -0.1575 0.1319
|  7> C -2.2912 -0.7122 1.2255
|  8> C -3.0802 -1.8542 1.0630
|  9> C -3.2121 -2.4603 -0.1949
| 10> C -4.0311 -3.7181 -0.3410
| 11> F -3.2957 -4.7958 0.1163
| 12> F -5.1950 -3.6176 0.4017
| 13> F -4.3783 -3.9395 -1.6634
| 14> C -2.5108 -1.9222 -1.2846
| 15> C -1.7236 -0.7796 -1.1253
| 16> C -1.4874 2.2221 -0.5035
| 17> C -2.7599 2.6347 -0.0480
| 18> C -3.4775 3.6242 -0.7220
| 19> C -2.9532 4.2051 -1.8744
| 20> C -1.7132 3.7924 -2.3607
| 21> C -0.9726 2.8106 -1.6821
| 22> C 0.3151 2.3314 -2.2757
| 23> C 1.2620 1.8679 -1.1843
| 24> N 0.6172 0.8488 -0.3450
| 25> C 1.4435 -0.2264 0.1704
| 26> O 0.9100 -1.2943 0.5773
| 27> N 2.8676 -0.0628 0.2851
| 28> C 3.7937 -1.1582 0.3932
| 29> C 5.0049 -0.9716 1.0787
| 30> C 5.9314 -2.0145 1.1767
| 31> C 5.6624 -3.2490 0.5796
| 32> F 6.5628 -4.2586 0.6732
| 33> C 4.4693 -3.4391 -0.1228
| 34> C 3.5401 -2.3984 -0.2230
| 35> H -1.4304 1.8653 2.2195
| 36> H -0.0039 0.7761 2.2990
| 37> H 0.1774 2.4632 1.7115
| 38> H -2.2343 -0.2808 2.2136
| 39> H -3.5902 -2.2670 1.9247
| 40> H -2.5689 -2.3825 -2.2626
| 41> H -1.2072 -0.3808 -1.9885
| 42> H -3.2102 2.1785 0.8237
| 43> H -4.4483 3.9324 -0.3556
| 44> H -3.5157 4.9659 -2.4004
| 45> H -1.3326 4.2341 -3.2735
| 46> H 0.8074 3.1465 -2.8502
| 47> H 0.1052 1.4916 -2.9725
| 48> H 2.1677 1.4578 -1.6829
| 49> H 1.5681 2.7306 -0.5525
| 50> H 3.2404 0.9066 0.4012
| 51> H 5.2262 -0.0196 1.5445
| 52> H 6.8584 -1.8639 1.7147
| 53> H 4.2670 -4.3904 -0.5981
| 54> H 2.6389 -2.5573 -0.8000
| 55> *
| 56> 
| 57>                          ****END OF INPUT****
================================================================================

                       ****************************
                       * Single Point Calculation *
                       ****************************

---------------------------------
CARTESIAN COORDINATES (ANGSTROEM)
---------------------------------
  C     -0.492400    1.576500    1.703500
  C     -0.728900    1.110400    0.243200
  C     -1.591800   -0.157500    0.131900
  C     -2.291200   -0.712200    1.225500
  C     -3.080200   -1.854200    1.063000
  C     -3.212100   -2.460300   -0.194900
  C     -4.031100   -3.718100   -0.341000
  F     -3.295700   -4.795800    0.116300
  F     -5.195000   -3.617600    0.401700
  F     -4.378300   -3.939500   -1.663400
  C     -2.510800   -1.922200   -1.284600
  C     -1.723600   -0.779600   -1.125300
  C     -1.487400    2.222100   -0.503500
  C     -2.759900    2.634700   -0.048000
  C     -3.477500    3.624200   -0.722000
  C     -2.953200    4.205100   -1.874400
  C     -1.713200    3.792400   -2.360700
  C     -0.972600    2.810600   -1.682100
  C      0.315100    2.331400   -2.275700
  C      1.262000    1.867900   -1.184300
  N      0.617200    0.848800   -0.345000
  C      1.443500   -0.226400    0.170400
  O      0.910000   -1.294300    0.577300
  N      2.867600   -0.062800    0.285100
  C      3.793700   -1.158200    0.393200
  C      5.004900   -0.971600    1.078700
  C      5.931400   -2.014500    1.176700
  C      5.662400   -3.249000    0.579600
  F      6.562800   -4.258600    0.673200
  C      4.469300   -3.439100   -0.122800
  C      3.540100   -2.398400   -0.223000
  H     -1.430400    1.865300    2.219500
  H     -0.003900    0.776100    2.299000
  H      0.177400    2.463200    1.711500
  H     -2.234300   -0.280800    2.213600
  H     -3.590200   -2.267000    1.924700
  H     -2.568900   -2.382500   -2.262600
  H     -1.207200   -0.380800   -1.988500
  H     -3.210200    2.178500    0.823700
  H     -4.448300    3.932400   -0.355600
  H     -3.515700    4.965900   -2.400400
  H     -1.332600    4.234100   -3.273500
  H      0.807400    3.146500   -2.850200
  H      0.105200    1.491600   -2.972500
  H      2.167700    1.457800   -1.682900
  H      1.568100    2.730600   -0.552500
  H      3.240400    0.906600    0.401200
  H      5.226200   -0.019600    1.544500
  H      6.858400   -1.863900    1.714700
  H      4.267000   -4.390400   -0.598100
  H      2.638900   -2.557300   -0.800000

----------------------------
CARTESIAN COORDINATES (A.U.)
----------------------------
  NO LB      ZA    FRAG     MASS         X           Y           Z
   0 C     6.0000    0    12.011   -0.930501    2.979153    3.219148
   1 C     6.0000    0    12.011   -1.377421    2.098352    0.459581
   2 C     6.0000    0    12.011   -3.008066   -0.297632    0.249255
   3 C     6.0000    0    12.011   -4.329741   -1.345863    2.315859
   4 C     6.0000    0    12.011   -5.820734   -3.503930    2.008779
   5 C     6.0000    0    12.011   -6.069989   -4.649293   -0.368308
   6 C     6.0000    0    12.011   -7.617675   -7.026191   -0.644397
   7 F     9.0000    0    18.998   -6.227970   -9.062749    0.219775
   8 F     9.0000    0    18.998   -9.817127   -6.836273    0.759103
   9 F     9.0000    0    18.998   -8.273788   -7.444576   -3.143370
  10 C     6.0000    0    12.011   -4.744724   -3.632432   -2.427542
  11 C     6.0000    0    12.011   -3.257132   -1.473230   -2.126509
  12 C     6.0000    0    12.011   -2.810779    4.199160   -0.951477
  13 C     6.0000    0    12.011   -5.215455    4.978861   -0.090707
  14 C     6.0000    0    12.011   -6.571523    6.848745   -1.364382
  15 C     6.0000    0    12.011   -5.580739    7.946487   -3.542103
  16 C     6.0000    0    12.011   -3.237479    7.166597   -4.461076
  17 C     6.0000    0    12.011   -1.837948    5.311264   -3.178708
  18 C     6.0000    0    12.011    0.595453    4.405708   -4.300450
  19 C     6.0000    0    12.011    2.384834    3.529819   -2.238003
  20 N     7.0000    0    14.007    1.166339    1.604000   -0.651956
  21 C     6.0000    0    12.011    2.727820   -0.427834    0.322009
  22 O     8.0000    0    15.999    1.719651   -2.445873    1.090939
  23 N     7.0000    0    14.007    5.418979   -0.118675    0.538761
  24 C     6.0000    0    12.011    7.169054   -2.188681    0.743040
  25 C     6.0000    0    12.011    9.457890   -1.836058    2.038448
  26 C     6.0000    0    12.011   11.208722   -3.806853    2.223641
  27 C     6.0000    0    12.011   10.700385   -6.139720    1.095285
  28 F     9.0000    0    18.998   12.401895   -8.047588    1.272164
  29 C     6.0000    0    12.011    8.445753   -6.498957   -0.232058
  30 C     6.0000    0    12.011    6.689819   -4.532319   -0.421409
  31 H     1.0000    0     1.008   -2.703064    3.524906    4.194247
  32 H     1.0000    0     1.008   -0.007370    1.466616    4.344480
  33 H     1.0000    0     1.008    0.335237    4.654773    3.234266
  34 H     1.0000    0     1.008   -4.222215   -0.530635    4.183098
  35 H     1.0000    0     1.008   -6.784495   -4.284009    3.637156
  36 H     1.0000    0     1.008   -4.854517   -4.502273   -4.275694
  37 H     1.0000    0     1.008   -2.281277   -0.719608   -3.757720
  38 H     1.0000    0     1.008   -6.066399    4.116768    1.556567
  39 H     1.0000    0     1.008   -8.406069    7.431159   -0.671987
  40 H     1.0000    0     1.008   -6.643710    9.384191   -4.536099
  41 H     1.0000    0     1.008   -2.518249    8.001289   -6.186018
  42 H     1.0000    0     1.008    1.525765    5.946023   -5.386097
  43 H     1.0000    0     1.008    0.198799    2.818716   -5.617211
  44 H     1.0000    0     1.008    4.096359    2.754843   -3.180220
  45 H     1.0000    0     1.008    2.963280    5.160086   -1.044074
  46 H     1.0000    0     1.008    6.123469    1.713226    0.758158
  47 H     1.0000    0     1.008    9.876087   -0.037039    2.918682
  48 H     1.0000    0     1.008   12.960498   -3.522261    3.240313
  49 H     1.0000    0     1.008    8.063461   -8.296654   -1.130245
  50 H     1.0000    0     1.008    4.986798   -4.832597   -1.511781

--------------------------------
INTERNAL COORDINATES (ANGSTROEM)
--------------------------------
 C      0   0   0     0.000000000000     0.00000000     0.00000000
 C      1   0   0     1.551018230067     0.00000000     0.00000000
 C      2   1   0     1.537710801809   113.67174581     0.00000000
 C      3   2   1     1.411670432502   123.08906319    10.30996731
 C      4   3   2     1.397530411118   120.71209920   178.88627723
 C      5   4   3     1.402521739582   120.69815863   358.90942201
 C      6   5   4     1.508034167385   119.89471987   177.97972043
 F      7   6   5     1.382524408464   109.22254874   282.26615406
 F      7   6   5     1.384328989077   110.12593850    41.99399515
 F      7   6   5     1.385029804733   111.22121982   161.99397291
 C      6   5   4     1.403146246832   118.93384399     1.62999486
 C     11   6   5     1.396637064523   120.45560463   358.25815498
 C      2   1   3     1.539077655611   108.35271071   118.16603194
 C     13   2   1     1.413143750650   119.88714369   299.94820378
 C     14  13   2     1.395828073224   120.94888269   181.14040881
 C     15  14  13     1.392968434675   120.10581961     1.11355650
 C     16  15  14     1.394420661063   119.98687743     0.38508297
 C     17  16  15     1.404605837949   120.48164287   358.74963967
 C     18  17  16     1.496718039579   119.06600383   176.32311601
 C     19  18  17     1.517433959024   110.45143447   151.57863916
 N     20  19  18     1.469270683026   110.41795923    54.97672265
 C     21  20  19     1.450677045383   117.84375157   144.47429895
 O     22  21  20     1.261190021369   120.08326256   199.06968075
 N     22  21  20     1.438047933833   120.53665816    22.17491772
 C     24  22  21     1.438488088237   123.84298409   199.37969416
 C     25  24  22     1.404184905915   119.39398129   208.67195531
 C     26  25  24     1.398444371436   120.43603682   181.13169483
 C     27  26  25     1.397454707674   120.08753123     0.63575019
 F     28  27  26     1.356013746243   120.02692677   179.87299279
 C     28  27  26     1.397494679775   119.95114896     0.36301734
 C     30  28  27     1.398752719390   120.12860115   359.63527466
 H      1   2   3     1.108830663357   112.79391986   296.88534571
 H      1   2   3     1.110807210996   110.80942689    58.19664065
 H      1   2   3     1.111275361915   109.78337661   177.18362656
 H      4   3   2     1.079669014096   121.72660379   358.45636405
 H      5   4   3     1.083065432003   118.99849932   178.88315444
 H     11   6   5     1.082467412904   120.78121283   178.27454127
 H     12  11   6     1.082046505470   118.65440219   180.90944946
 H     14  13   2     1.082011746701   120.75223906     0.08152156
 H     15  14  13     1.082445767695   119.96507589   180.37592627
 H     16  15  14     1.082542788993   119.96571425   179.44307737
 H     17  16  15     1.083124688113   119.05752306   178.27578751
 H     19  18  17     1.112114000451   110.55272257    31.33767982
 H     19  18  17     1.111239078686   109.15585292   272.33957234
 H     20  19  18     1.112239389700   107.35769071   176.05708261
 H     20  19  18     1.112258845773   110.08226719   293.92086699
 H     24  22  21     1.045081532705   117.88161934    26.31083387
 H     26  25  24     1.082703712934   120.21039078     1.67509525
 H     27  26  25     1.082336990036   119.90103329   180.54637756
 H     30  28  27     1.082500378753   119.98525067   179.08488105
 H     31  30  28     1.081822374514   118.83684579   177.93565775

---------------------------
INTERNAL COORDINATES (A.U.)
---------------------------
 C      0   0   0     0.000000000000     0.00000000     0.00000000
 C      1   0   0     2.930999683546     0.00000000     0.00000000
 C      2   1   0     2.905852288591   113.67174581     0.00000000
 C      3   2   1     2.667670508783   123.08906319    10.30996731
 C      4   3   2     2.640949740840   120.71209920   178.88627723
 C      5   4   3     2.650381984681   120.69815863   358.90942201
 C      6   5   4     2.849771576953   119.89471987   177.97972043
 F      7   6   5     2.612592505459   109.22254874   282.26615406
 F      7   6   5     2.616002668604   110.12593850    41.99399515
 F      7   6   5     2.617327018265   111.22121982   161.99397291
 C      6   5   4     2.651562132353   118.93384399     1.62999486
 C     11   6   5     2.639261560433   120.45560463   358.25815498
 C      2   1   3     2.908435267942   108.35271071   118.16603194
 C     13   2   1     2.670454676590   119.88714369   299.94820378
 C     14  13   2     2.637732788432   120.94888269   181.14040881
 C     15  14  13     2.632328854732   120.10581961     1.11355650
 C     16  15  14     2.635073164891   119.98687743     0.38508297
 C     17  16  15     2.654320359830   120.48164287   358.74963967
 C     18  17  16     2.828387194503   119.06600383   176.32311601
 C     19  18  17     2.867534608868   110.45143447   151.57863916
 N     20  19  18     2.776519207519   110.41795923    54.97672265
 C     21  20  19     2.741382324539   117.84375157   144.47429895
 O     22  21  20     2.383303743221   120.08326256   199.06968075
 N     22  21  20     2.717516762395   120.53665816    22.17491772
 C     24  22  21     2.718348533676   123.84298409   199.37969416
 C     25  24  22     2.653524913566   119.39398129   208.67195531
 C     26  25  24     2.642676875537   120.43603682   181.13169483
 C     27  26  25     2.640806682063   120.08753123     0.63575019
 F     28  27  26     2.562494614232   120.02692677   179.87299279
 C     28  27  26     2.640882218387   119.95114896     0.36301734
 C     30  28  27     2.643259568724   120.12860115   359.63527466
 H      1   2   3     2.095386282638   112.79391986   296.88534571
 H      1   2   3     2.099121416367   110.80942689    58.19664065
 H      1   2   3     2.100006093394   109.78337661   177.18362656
 H      4   3   2     2.040278751923   121.72660379   358.45636405
 H      5   4   3     2.046697051603   118.99849932   178.88315444
 H     11   6   5     2.045566959284   120.78121283   178.27454127
 H     12  11   6     2.044771559505   118.65440219   180.90944946
 H     14  13   2     2.044705874952   120.75223906     0.08152156
 H     15  14  13     2.045526055765   119.96507589   180.37592627
 H     16  15  14     2.045709399447   119.96571425   179.44307737
 H     17  16  15     2.046809029423   119.05752306   178.27578751
 H     19  18  17     2.101590890553   110.55272257    31.33767982
 H     19  18  17     2.099937528028   109.15585292   272.33957234
 H     20  19  18     2.101827841893   107.35769071   176.05708261
 H     20  19  18     2.101864608542   110.08226719   293.92086699
 H     24  22  21     1.974917884430   117.88161934    26.31083387
 H     26  25  24     2.046013501624   120.21039078     1.67509525
 H     27  26  25     2.045320495781   119.90103329   180.54637756
 H     30  28  27     2.045629255709   119.98525067   179.08488105
 H     31  30  28     2.044348013381   118.83684579   177.93565775

---------------------
BASIS SET INFORMATION
---------------------
There are 5 groups of distinct atoms

 Group   1 Type C   : 10s4p1d contracted to 3s2p1d pattern {631/31/1}
 Group   2 Type F   : 10s4p1d contracted to 3s2p1d pattern {631/31/1}
 Group   3 Type N   : 10s4p1d contracted to 3s2p1d pattern {631/31/1}
 Group   4 Type O   : 10s4p1d contracted to 3s2p1d pattern {631/31/1}
 Group   5 Type H   : 4s contracted to 2s pattern {31}

Atom   0C    basis set group =>   1
Atom   1C    basis set group =>   1
Atom   2C    basis set group =>   1
Atom   3C    basis set group =>   1
Atom   4C    basis set group =>   1
Atom   5C    basis set group =>   1
Atom   6C    basis set group =>   1
Atom   7F    basis set group =>   2
Atom   8F    basis set group =>   2
Atom   9F    basis set group =>   2
Atom  10C    basis set group =>   1
Atom  11C    basis set group =>   1
Atom  12C    basis set group =>   1
Atom  13C    basis set group =>   1
Atom  14C    basis set group =>   1
Atom  15C    basis set group =>   1
Atom  16C    basis set group =>   1
Atom  17C    basis set group =>   1
Atom  18C    basis set group =>   1
Atom  19C    basis set group =>   1
Atom  20N    basis set group =>   3
Atom  21C    basis set group =>   1
Atom  22O    basis set group =>   4
Atom  23N    basis set group =>   3
Atom  24C    basis set group =>   1
Atom  25C    basis set group =>   1
Atom  26C    basis set group =>   1
Atom  27C    basis set group =>   1
Atom  28F    basis set group =>   2
Atom  29C    basis set group =>   1
Atom  30C    basis set group =>   1
Atom  31H    basis set group =>   5
Atom  32H    basis set group =>   5
Atom  33H    basis set group =>   5
Atom  34H    basis set group =>   5
Atom  35H    basis set group =>   5
Atom  36H    basis set group =>   5
Atom  37H    basis set group =>   5
Atom  38H    basis set group =>   5
Atom  39H    basis set group =>   5
Atom  40H    basis set group =>   5
Atom  41H    basis set group =>   5
Atom  42H    basis set group =>   5
Atom  43H    basis set group =>   5
Atom  44H    basis set group =>   5
Atom  45H    basis set group =>   5
Atom  46H    basis set group =>   5
Atom  47H    basis set group =>   5
Atom  48H    basis set group =>   5
Atom  49H    basis set group =>   5
Atom  50H    basis set group =>   5
---------------------------------
AUXILIARY/J BASIS SET INFORMATION
---------------------------------
There are 5 groups of distinct atoms

 Group   1 Type C   : 12s5p4d2f1g contracted to 6s4p3d1f1g pattern {711111/2111/211/2/1}
 Group   2 Type F   : 12s5p4d2f1g contracted to 6s4p3d1f1g pattern {711111/2111/211/2/1}
 Group   3 Type N   : 12s5p4d2f1g contracted to 6s4p3d1f1g pattern {711111/2111/211/2/1}
 Group   4 Type O   : 12s5p4d2f1g contracted to 6s4p3d1f1g pattern {711111/2111/211/2/1}
 Group   5 Type H   : 5s2p1d contracted to 3s1p1d pattern {311/2/1}

Atom   0C    basis set group =>   1
Atom   1C    basis set group =>   1
Atom   2C    basis set group =>   1
Atom   3C    basis set group =>   1
Atom   4C    basis set group =>   1
Atom   5C    basis set group =>   1
Atom   6C    basis set group =>   1
Atom   7F    basis set group =>   2
Atom   8F    basis set group =>   2
Atom   9F    basis set group =>   2
Atom  10C    basis set group =>   1
Atom  11C    basis set group =>   1
Atom  12C    basis set group =>   1
Atom  13C    basis set group =>   1
Atom  14C    basis set group =>   1
Atom  15C    basis set group =>   1
Atom  16C    basis set group =>   1
Atom  17C    basis set group =>   1
Atom  18C    basis set group =>   1
Atom  19C    basis set group =>   1
Atom  20N    basis set group =>   3
Atom  21C    basis set group =>   1
Atom  22O    basis set group =>   4
Atom  23N    basis set group =>   3
Atom  24C    basis set group =>   1
Atom  25C    basis set group =>   1
Atom  26C    basis set group =>   1
Atom  27C    basis set group =>   1
Atom  28F    basis set group =>   2
Atom  29C    basis set group =>   1
Atom  30C    basis set group =>   1
Atom  31H    basis set group =>   5
Atom  32H    basis set group =>   5
Atom  33H    basis set group =>   5
Atom  34H    basis set group =>   5
Atom  35H    basis set group =>   5
Atom  36H    basis set group =>   5
Atom  37H    basis set group =>   5
Atom  38H    basis set group =>   5
Atom  39H    basis set group =>   5
Atom  40H    basis set group =>   5
Atom  41H    basis set group =>   5
Atom  42H    basis set group =>   5
Atom  43H    basis set group =>   5
Atom  44H    basis set group =>   5
Atom  45H    basis set group =>   5
Atom  46H    basis set group =>   5
Atom  47H    basis set group =>   5
Atom  48H    basis set group =>   5
Atom  49H    basis set group =>   5
Atom  50H    basis set group =>   5
------------------------------------------------------------------------------
                             ORCA STARTUP CALCULATIONS
                           -- RI-GTO INTEGRALS CHOSEN --
------------------------------------------------------------------------------
------------------------------------------------------------------------------
                   ___                                                        
                  /   \      - P O W E R E D   B Y -                         
                 /     \                                                     
                 |  |  |   _    _      __       _____    __    __             
                 |  |  |  | |  | |    /  \     |  _  \  |  |  /  |          
                  \  \/   | |  | |   /    \    | | | |  |  | /  /          
                 / \  \   | |__| |  /  /\  \   | |_| |  |  |/  /          
                |  |  |   |  __  | /  /__\  \  |    /   |      \           
                |  |  |   | |  | | |   __   |  |    \   |  |\   \          
                \     /   | |  | | |  |  |  |  | |\  \  |  | \   \       
                 \___/    |_|  |_| |__|  |__|  |_| \__\ |__|  \__/        
                                                                              
                      - O R C A' S   B I G   F R I E N D -                    
                                      &                                       
                       - I N T E G R A L  F E E D E R -                       
                                                                              
 v1 FN, 2020, v2 2021, v3 2022-2024                                           
------------------------------------------------------------------------------


----------------------
SHARK INTEGRAL PACKAGE
----------------------

Number of atoms                             ...     51
Number of basis functions                   ...    474
Number of shells                            ...    226
Maximum angular momentum                    ...      2
Integral batch strategy                     ... SHARK/LIBINT Hybrid
RI-J (if used) integral strategy            ... SPLIT-RIJ (Revised 2003 algorithm where possible)
Printlevel                                  ...      1
Contraction scheme used                     ... SEGMENTED contraction
Prescreening option                         ... SCHWARTZ
   Thresh                                   ... 1.000e-10
   Tcut                                     ... 1.000e-11
   Tpresel                                  ... 1.000e-11 
Coulomb Range Separation                    ... NOT USED
Exchange Range Separation                   ... NOT USED
Multipole approximations                    ... NOT USED
Finite Nucleus Model                        ... NOT USED
CABS basis                                  ... NOT available
Auxiliary Coulomb fitting basis             ... AVAILABLE
   # of basis functions in Aux-J            ...   1739
   # of shells in Aux-J                     ...    565
   Maximum angular momentum in Aux-J        ...      4
Auxiliary J/K fitting basis                 ... NOT available
Auxiliary Correlation fitting basis         ... NOT available
Auxiliary 'external' fitting basis          ... NOT available

Checking pre-screening integrals            ... done (  0.0 sec) Dimension = 226
Check shell pair data                       ... done (  0.0 sec)
Shell pair information
Shell pair cut-off parameter TPreSel        ...   1.0e-11
Total number of shell pairs                 ...     25651
Shell pairs after pre-screening             ...     15087
Total number of primitive shell pairs       ...    149496
Primitive shell pairs kept                  ...     45978
          la=0 lb=0:   5011 shell pairs
          la=1 lb=0:   5255 shell pairs
          la=1 lb=1:   1387 shell pairs
          la=2 lb=0:   2065 shell pairs
          la=2 lb=1:   1146 shell pairs
          la=2 lb=2:    223 shell pairs

Calculating one electron integrals          ... done (  0.2 sec)
Calculating RI/J V-Matrix + Cholesky decomp.... done (  0.4 sec)
Calculating Nuclear repulsion               ... done (  0.0 sec) ENN=   2988.209950902779 Eh

Diagonalization of the overlap matrix:
Smallest eigenvalue                        ... 3.951e-04
Time for diagonalization                   ...    0.055 sec
Threshold for overlap eigenvalues          ... 1.000e-07
Number of eigenvalues below threshold      ... 0
Time for construction of square roots      ...    0.033 sec
Total time needed                          ...    0.099 sec

-------------------
DFT GRID GENERATION
-------------------

General Integration Accuracy     IntAcc      ... 4.388
Radial Grid Type                 RadialGrid  ... OptM3 with GC (2021)
Angular Grid (max. ang.)         AngularGrid ... 4 (Lebedev-302)
Angular grid pruning method      GridPruning ... 4 (adaptive)
Weight generation scheme         WeightScheme... mBecke (2022)
Basis function cutoff            BFCut       ... 1.0000e-10
Integration weight cutoff        WCut        ... 1.0000e-14
Partially contracted basis set               ... off
Rotationally invariant grid construction     ... off
Angular grids for H and He will be reduced by one unit

Total number of grid points                  ...   248481
Total number of batches                      ...     3909
Average number of points per batch           ...       63
Average number of grid points per atom       ...     4872

--------------------
COSX GRID GENERATION
--------------------

GRIDX 1
-------
General Integration Accuracy     IntAcc      ... 3.816
Radial Grid Type                 RadialGrid  ... OptM3 with GC (2021)
Angular Grid (max. ang.)         AngularGrid ... 1 (Lebedev-50)
Angular grid pruning method      GridPruning ... 4 (adaptive)
Weight generation scheme         WeightScheme... mBecke (2022)
Basis function cutoff            BFCut       ... 1.0000e-10
Integration weight cutoff        WCut        ... 1.0000e-14
Partially contracted basis set               ... on
Rotationally invariant grid construction     ... off
Angular grids for H and He will be reduced by one unit

Total number of grid points                  ...    31456
Total number of batches                      ...      273
Average number of points per batch           ...      115
Average number of grid points per atom       ...      617
UseSFitting                                  ... on

GRIDX 2
-------
General Integration Accuracy     IntAcc      ... 4.020
Radial Grid Type                 RadialGrid  ... OptM3 with GC (2021)
Angular Grid (max. ang.)         AngularGrid ... 2 (Lebedev-110)
Angular grid pruning method      GridPruning ... 4 (adaptive)
Weight generation scheme         WeightScheme... mBecke (2022)
Basis function cutoff            BFCut       ... 1.0000e-10
Integration weight cutoff        WCut        ... 1.0000e-14
Partially contracted basis set               ... on
Rotationally invariant grid construction     ... off
Angular grids for H and He will be reduced by one unit

Total number of grid points                  ...    68733
Total number of batches                      ...      561
Average number of points per batch           ...      122
Average number of grid points per atom       ...     1348
UseSFitting                                  ... on

GRIDX 3
-------
General Integration Accuracy     IntAcc      ... 4.338
Radial Grid Type                 RadialGrid  ... OptM3 with GC (2021)
Angular Grid (max. ang.)         AngularGrid ... 3 (Lebedev-194)
Angular grid pruning method      GridPruning ... 4 (adaptive)
Weight generation scheme         WeightScheme... mBecke (2022)
Basis function cutoff            BFCut       ... 1.0000e-10
Integration weight cutoff        WCut        ... 1.0000e-14
Partially contracted basis set               ... on
Rotationally invariant grid construction     ... off
Angular grids for H and He will be reduced by one unit

Total number of grid points                  ...   150368
Total number of batches                      ...     1199
Average number of points per batch           ...      125
Average number of grid points per atom       ...     2948
UseSFitting                                  ... on
Initializing property integral containers    ... done (  0.1 sec)

SHARK setup successfully completed in  14.2 seconds

Maximum memory used throughout the entire STARTUP-calculation: 107.1 MB
-------------------------------------------------------------------------------
                                 ORCA GUESS
                   Start orbitals & Density for SCF / CASSCF
-------------------------------------------------------------------------------

------------
SCF SETTINGS
------------
Hamiltonian:
 Density Functional     Method          .... DFT(GTOs)
 Exchange Functional    Exchange        .... B88
   X-Alpha parameter    XAlpha          ....  0.666667
   Becke's b parameter  XBeta           ....  0.004200
 Correlation Functional Correlation     .... LYP
 LDA part of GGA corr.  LDAOpt          .... VWN-5
 Gradients option       PostSCFGGA      .... off
 Hybrid DFT is turned on
   Fraction HF Exchange ScalHFX         ....  0.200000
   Scaling of DF-GGA-X  ScalDFX         ....  0.720000
   Scaling of DF-GGA-C  ScalDFC         ....  0.810000
   Scaling of DF-LDA-C  ScalLDAC        ....  1.000000
   Perturbative correction              ....  0.000000
   NL short-range parameter             ....  4.800000
 RI-approximation to the Coulomb term is turned on
   Number of AuxJ basis functions       .... 1739
   RIJ-COSX (HFX calculated with COS-X)).... on


General Settings:
 Integral files         IntName         .... /home/nmrbox/aojoawo/Documents/ERDOS/inputs/CHEMBL3233042
 Hartree-Fock type      HFTyp           .... RHF
 Total Charge           Charge          ....    0
 Multiplicity           Mult            ....    1
 Number of Electrons    NEL             ....  222
 Basis Dimension        Dim             ....  474
 Nuclear Repulsion      ENuc            ....   2988.2099509028 Eh

Convergence Acceleration:
 AO-DIIS                CNVDIIS         .... on
   Start iteration      DIISMaxIt       ....    12
   Startup error        DIISStart       ....  0.200000
   # of expansion vecs  DIISMaxEq       ....     5
   Bias factor          DIISBfac        ....   1.050
   Max. coefficient     DIISMaxC        ....  10.000
 MO-DIIS                CNVKDIIS        .... off
 Trust-Rad. Augm. Hess. CNVTRAH         .... auto
   Auto Start mean grad. ratio tolernc. ....  1.125000
   Auto Start start iteration           ....    50
   Auto Start num. interpolation iter.  ....    10
   Max. Number of Micro iterations      ....    24
   Max. Number of Macro iterations      .... Maxiter - #DIIS iter
   Number of Davidson start vectors     ....     2
   Converg. threshold    (grad. norm)   ....   5.000e-05
   Grad. Scal. Fac. for Micro threshold ....   0.100
   Minimum threshold for Micro iter.    ....   1.000e-02
   NR start threshold (gradient norm)   ....   1.000e-04
   Initial trust radius                 ....   0.400
   Minimum AH scaling param. (alpha)    ....   1.000
   Maximum AH scaling param. (alpha)    .... 1000.000
   Quad. conv. algorithm                .... NR
   White noise on init. David. guess    .... on
   Maximum white noise                  ....   0.010
   Pseudo random numbers                .... off
   Inactive MOs                         .... canonical
   Orbital update algorithm             .... Taylor
   Preconditioner                       .... Diag
   Full preconditioner red. dimension   ....   250
 SOSCF                  CNVSOSCF        .... on
   Start iteration      SOSCFMaxIt      ....   150
   Startup grad/error   SOSCFStart      ....  0.003300
   Hessian update       SOSCFHessUp     .... L-BFGS
 Level Shifting         CNVShift        .... on
   Level shift para.    LevelShift      ....    0.2500
   Turn off err/grad.   ShiftErr        ....    0.0010
 Zerner damping         CNVZerner       .... off
 Static damping         CNVDamp         .... on
   Fraction old density DampFac         ....    0.7000
   Max. Damping (<1)    DampMax         ....    0.9800
   Min. Damping (>=0)   DampMin         ....    0.0000
   Turn off err/grad.   DampErr         ....    0.1000

SCF Procedure:
 Maximum # iterations   MaxIter         ....   125
 SCF integral mode      SCFMode         .... Direct
   Integral package                     .... SHARK and LIBINT hybrid scheme
 Reset frequency        DirectResetFreq ....    20
 Integral Threshold     Thresh          ....  1.000e-10 Eh
 Primitive CutOff       TCut            ....  1.000e-11 Eh

Convergence Tolerance:
 Convergence Check Mode ConvCheckMode   .... Total+1el-Energy
 Convergence forced     ConvForced      .... 0
 Energy Change          TolE            ....  1.000e-06 Eh
 1-El. energy change                    ....  1.000e-03 Eh
 Orbital Gradient       TolG            ....  5.000e-05
 Orbital Rotation angle TolX            ....  5.000e-05
 DIIS Error             TolErr          ....  1.000e-06

------------------------------
INITIAL GUESS: MODEL POTENTIAL
------------------------------
Loading Hartree-Fock densities                     ... done
Calculating cut-offs                               ... done
Initializing the effective Hamiltonian             ... done
Setting up the integral package (SHARK)            ... done
Starting the Coulomb interaction                   ... done (   3.6 sec)
Making the grid                                    ... done (   1.7 sec)
Mapping shells                                     ... done
Starting the XC term evaluation                    ... done (   1.2 sec)
  promolecular density results
     # of electrons  =    221.992317013
     EX              =   -190.842831821
     EC              =     -7.691745694
     EX+EC           =   -198.534577515
Transforming the Hamiltonian                       ... done (   0.0 sec)
Diagonalizing the Hamiltonian                      ... done (   0.0 sec)
Back transforming the eigenvectors                 ... done (   0.0 sec)
Now organizing SCF variables                       ... done
                      ------------------
                      INITIAL GUESS DONE (   6.6 sec)
                      ------------------
             **** ENERGY FILE WAS UPDATED (/home/nmrbox/aojoawo/Documents/ERDOS/inputs/CHEMBL3233042.en.tmp) ****
Finished Guess after   6.9 sec
Maximum memory used throughout the entire GUESS-calculation: 58.2 MB

-------------------------------------------------------------------------------------------
                                      ORCA LEAN-SCF
                              memory conserving SCF solver
-------------------------------------------------------------------------------------------

----------------------------------------D-I-I-S--------------------------------------------
Iteration    Energy (Eh)           Delta-E    RMSDP     MaxDP     DIISErr   Damp  Time(sec)
-------------------------------------------------------------------------------------------
               ***  Starting incremental Fock matrix formation  ***
    1    -1509.1450547983508841     0.00e+00  1.97e-03  1.12e-01  2.88e-01  0.700  68.4
    2    -1509.4681548019693764    -3.23e-01  1.31e-03  6.04e-02  1.00e-01  0.700  30.7
                               ***Turning on AO-DIIS***
    3    -1509.5934287705872521    -1.25e-01  5.53e-04  1.84e-02  3.74e-02  0.700  29.4
    4    -1509.6703173963119298    -7.69e-02  9.34e-04  2.62e-02  1.61e-02  0.000  25.0
    5    -1509.8390809251636711    -1.69e-01  2.03e-04  7.86e-03  7.04e-03  0.000  26.3
                              *** Initializing SOSCF ***
---------------------------------------S-O-S-C-F--------------------------------------
Iteration    Energy (Eh)           Delta-E    RMSDP     MaxDP     MaxGrad    Time(sec)
--------------------------------------------------------------------------------------
    6    -1509.8402163854002538    -1.14e-03  6.14e-05  2.29e-03  1.61e-03    22.6
               *** Restarting incremental Fock matrix formation ***
    7    -1509.8402063636126513     1.00e-05  4.61e-05  2.35e-03  2.87e-04    64.7
    8    -1509.8401882190414653     1.81e-05  2.60e-05  1.95e-03  7.56e-04    36.3
    9    -1509.8402167324097718    -2.85e-05  1.10e-05  4.61e-04  1.13e-04    30.6
   10    -1509.8402156817205650     1.05e-06  6.34e-06  2.65e-04  1.77e-04    25.8
   11    -1509.8402173353374565    -1.65e-06  2.26e-06  7.51e-05  1.57e-05    23.7
   12    -1509.8402174410125554    -1.06e-07  1.32e-06  4.26e-05  2.39e-05    19.8
                 **** Energy Check signals convergence ****

               *****************************************************
               *                     SUCCESS                       *
               *           SCF CONVERGED AFTER  12 CYCLES          *
               *****************************************************

Recomputing exchange energy using gridx3       ... done (  109.586 sec)
Old exchange energy                            :    -38.646750055 Eh
New exchange energy                            :    -38.646757269 Eh
Exchange energy change after final integration :     -0.000007213 Eh
Total energy after final integration           :  -1509.840224654 Eh
             **** ENERGY FILE WAS UPDATED (/home/nmrbox/aojoawo/Documents/ERDOS/inputs/CHEMBL3233042.en.tmp) ****

----------------
TOTAL SCF ENERGY
----------------

Total Energy       :      -1509.84022465438420 Eh          -41084.84123 eV

Components:
Nuclear Repulsion  :       2988.20995090277893 Eh           81313.32665 eV
Electronic Energy  :      -4498.05016834379239 Eh         -122398.16768 eV
One Electron Energy:      -8009.55996179977228 Eh         -217951.20699 eV
Two Electron Energy:       3511.50979345598034 Eh           95553.03930 eV

Virial components:
Potential Energy   :      -3010.35441201595313 Eh          -81915.90808 eV
Kinetic Energy     :       1500.51418736156893 Eh           40831.06685 eV
Virial Ratio       :          2.00621522766753

DFT components:
N(Alpha)           :      111.000172334350 electrons
N(Beta)            :      111.000172334350 electrons
N(Total)           :      222.000344668700 electrons
E(X)               :     -153.570950740130 Eh       
E(C)               :       -9.040319501627 Eh       
E(XC)              :     -162.611270241757 Eh       

---------------
SCF CONVERGENCE
---------------

  Last Energy change         ...    1.0568e-07  Tolerance :   1.0000e-06
  Last MAX-Density change    ...    4.2631e-05  Tolerance :   1.0000e-05
  Last RMS-Density change    ...    1.3241e-06  Tolerance :   1.0000e-06
  Last DIIS Error            ...    1.6120e-03  Tolerance :   1.0000e-06
  Last Orbital Gradient      ...    2.3897e-05  Tolerance :   5.0000e-05
  Last Orbital Rotation      ...    4.5330e-05  Tolerance :   5.0000e-05


----------------
ORBITAL ENERGIES
----------------

  NO   OCC          E(Eh)            E(eV) 
   0   2.0000     -24.707928      -672.3369 
   1   2.0000     -24.705881      -672.2812 
   2   2.0000     -24.701996      -672.1755 
   3   2.0000     -24.691434      -671.8881 
   4   2.0000     -19.106833      -519.9234 
   5   2.0000     -14.373162      -391.1136 
   6   2.0000     -14.361612      -390.7993 
   7   2.0000     -10.420809      -283.5646 
   8   2.0000     -10.320802      -280.8433 
   9   2.0000     -10.261622      -279.2329 
  10   2.0000     -10.252921      -278.9962 
  11   2.0000     -10.234683      -278.4999 
  12   2.0000     -10.230205      -278.3780 
  13   2.0000     -10.204414      -277.6762 
  14   2.0000     -10.199298      -277.5370 
  15   2.0000     -10.198810      -277.5237 
  16   2.0000     -10.197292      -277.4824 
  17   2.0000     -10.196599      -277.4636 
  18   2.0000     -10.193306      -277.3740 
  19   2.0000     -10.190255      -277.2909 
  20   2.0000     -10.189715      -277.2762 
  21   2.0000     -10.188295      -277.2376 
  22   2.0000     -10.187501      -277.2160 
  23   2.0000     -10.187384      -277.2128 
  24   2.0000     -10.187300      -277.2105 
  25   2.0000     -10.186924      -277.2003 
  26   2.0000     -10.186854      -277.1984 
  27   2.0000     -10.186284      -277.1829 
  28   2.0000     -10.183858      -277.1169 
  29   2.0000     -10.182495      -277.0798 
  30   2.0000     -10.181826      -277.0616 
  31   2.0000      -1.266183       -34.4546 
  32   2.0000      -1.204993       -32.7895 
  33   2.0000      -1.192433       -32.4478 
  34   2.0000      -1.190044       -32.3828 
  35   2.0000      -1.023382       -27.8476 
  36   2.0000      -0.936408       -25.4810 
  37   2.0000      -0.919966       -25.0336 
  38   2.0000      -0.862141       -23.4600 
  39   2.0000      -0.856541       -23.3077 
  40   2.0000      -0.845192       -22.9988 
  41   2.0000      -0.811648       -22.0861 
  42   2.0000      -0.787558       -21.4305 
  43   2.0000      -0.758891       -20.6505 
  44   2.0000      -0.752717       -20.4825 
  45   2.0000      -0.746191       -20.3049 
  46   2.0000      -0.740053       -20.1379 
  47   2.0000      -0.736845       -20.0506 
  48   2.0000      -0.710409       -19.3312 
  49   2.0000      -0.683921       -18.6104 
  50   2.0000      -0.653984       -17.7958 
  51   2.0000      -0.646482       -17.5917 
  52   2.0000      -0.627852       -17.0847 
  53   2.0000      -0.616909       -16.7870 
  54   2.0000      -0.611337       -16.6353 
  55   2.0000      -0.607226       -16.5235 
  56   2.0000      -0.586704       -15.9650 
  57   2.0000      -0.582775       -15.8581 
  58   2.0000      -0.556762       -15.1503 
  59   2.0000      -0.553649       -15.0656 
  60   2.0000      -0.552275       -15.0282 
  61   2.0000      -0.547720       -14.9042 
  62   2.0000      -0.540258       -14.7012 
  63   2.0000      -0.531137       -14.4530 
  64   2.0000      -0.520964       -14.1762 
  65   2.0000      -0.506606       -13.7855 
  66   2.0000      -0.497075       -13.5261 
  67   2.0000      -0.476951       -12.9785 
  68   2.0000      -0.476425       -12.9642 
  69   2.0000      -0.468745       -12.7552 
  70   2.0000      -0.456760       -12.4291 
  71   2.0000      -0.451423       -12.2839 
  72   2.0000      -0.448711       -12.2100 
  73   2.0000      -0.447899       -12.1879 
  74   2.0000      -0.441518       -12.0143 
  75   2.0000      -0.439456       -11.9582 
  76   2.0000      -0.435432       -11.8487 
  77   2.0000      -0.432904       -11.7799 
  78   2.0000      -0.428426       -11.6581 
  79   2.0000      -0.425174       -11.5696 
  80   2.0000      -0.421366       -11.4660 
  81   2.0000      -0.414613       -11.2822 
  82   2.0000      -0.412009       -11.2113 
  83   2.0000      -0.407303       -11.0833 
  84   2.0000      -0.405717       -11.0401 
  85   2.0000      -0.401464       -10.9244 
  86   2.0000      -0.398495       -10.8436 
  87   2.0000      -0.394228       -10.7275 
  88   2.0000      -0.392311       -10.6753 
  89   2.0000      -0.386509       -10.5174 
  90   2.0000      -0.385977       -10.5030 
  91   2.0000      -0.385240       -10.4829 
  92   2.0000      -0.380265       -10.3475 
  93   2.0000      -0.371151       -10.0995 
  94   2.0000      -0.359767        -9.7898 
  95   2.0000      -0.356672        -9.7055 
  96   2.0000      -0.351111        -9.5542 
  97   2.0000      -0.348447        -9.4817 
  98   2.0000      -0.342622        -9.3232 
  99   2.0000      -0.341437        -9.2910 
 100   2.0000      -0.335483        -9.1290 
 101   2.0000      -0.329129        -8.9560 
 102   2.0000      -0.292911        -7.9705 
 103   2.0000      -0.274188        -7.4610 
 104   2.0000      -0.256618        -6.9829 
 105   2.0000      -0.249785        -6.7970 
 106   2.0000      -0.249675        -6.7940 
 107   2.0000      -0.246049        -6.6953 
 108   2.0000      -0.235540        -6.4094 
 109   2.0000      -0.227085        -6.1793 
 110   2.0000      -0.211942        -5.7672 
 111   0.0000      -0.021176        -0.5762 
 112   0.0000      -0.013423        -0.3653 
 113   0.0000      -0.008544        -0.2325 
 114   0.0000      -0.006076        -0.1653 
 115   0.0000      -0.000138        -0.0038 
 116   0.0000       0.004347         0.1183 
 117   0.0000       0.036834         1.0023 
 118   0.0000       0.058973         1.6047 
 119   0.0000       0.082535         2.2459 
 120   0.0000       0.088663         2.4126 
 121   0.0000       0.093226         2.5368 
*Only the first 10 virtual orbitals were printed.

                    ********************************
                    * MULLIKEN POPULATION ANALYSIS *
                    ********************************

-----------------------
MULLIKEN ATOMIC CHARGES
-----------------------
   0 C :   -0.467542
   1 C :    0.084795
   2 C :    0.209764
   3 C :   -0.181204
   4 C :   -0.157661
   5 C :   -0.014026
   6 C :    0.891143
   7 F :   -0.297822
   8 F :   -0.308280
   9 F :   -0.309262
  10 C :   -0.160570
  11 C :   -0.152671
  12 C :    0.103017
  13 C :   -0.179695
  14 C :   -0.128382
  15 C :   -0.122041
  16 C :   -0.182977
  17 C :    0.102882
  18 C :   -0.341992
  19 C :   -0.152524
  20 N :   -0.473309
  21 C :    0.682091
  22 O :   -0.477103
  23 N :   -0.720602
  24 C :    0.343832
  25 C :   -0.175733
  26 C :   -0.211287
  27 C :    0.407304
  28 F :   -0.321493
  29 C :   -0.219516
  30 C :   -0.127401
  31 H :    0.150809
  32 H :    0.173706
  33 H :    0.145760
  34 H :    0.130138
  35 H :    0.145931
  36 H :    0.145123
  37 H :    0.128864
  38 H :    0.135740
  39 H :    0.132545
  40 H :    0.129442
  41 H :    0.124915
  42 H :    0.147000
  43 H :    0.166675
  44 H :    0.160035
  45 H :    0.131458
  46 H :    0.328835
  47 H :    0.128240
  48 H :    0.143873
  49 H :    0.148848
  50 H :    0.160331
Sum of atomic charges:    0.0000000

--------------------------------
MULLIKEN REDUCED ORBITAL CHARGES
--------------------------------
  0 C s       :     3.313524  s :     3.313524
      pz      :     0.977836  p :     3.120226
      px      :     1.073593
      py      :     1.068796
      dz2     :     0.007025  d :     0.033792
      dxz     :     0.007047
      dyz     :     0.006984
      dx2y2   :     0.003671
      dxy     :     0.009065

  1 C s       :     3.172957  s :     3.172957
      pz      :     0.905473  p :     2.680375
      px      :     0.799335
      py      :     0.975568
      dz2     :     0.012848  d :     0.061872
      dxz     :     0.012613
      dyz     :     0.010203
      dx2y2   :     0.013348
      dxy     :     0.012861

  2 C s       :     3.144978  s :     3.144978
      pz      :     0.852684  p :     2.605784
      px      :     0.880773
      py      :     0.872328
      dz2     :     0.010144  d :     0.039473
      dxz     :     0.008061
      dyz     :     0.009873
      dx2y2   :     0.005424
      dxy     :     0.005972

  3 C s       :     3.204491  s :     3.204491
      pz      :     0.979895  p :     2.941207
      px      :     0.989913
      py      :     0.971398
      dz2     :     0.009934  d :     0.035506
      dxz     :     0.005244
      dyz     :     0.009635
      dx2y2   :     0.005569
      dxy     :     0.005124

  4 C s       :     3.201016  s :     3.201016
      pz      :     0.966612  p :     2.920357
      px      :     0.982477
      py      :     0.971268
      dz2     :     0.008298  d :     0.036288
      dxz     :     0.008126
      dyz     :     0.009583
      dx2y2   :     0.005044
      dxy     :     0.005238

  5 C s       :     3.155643  s :     3.155643
      pz      :     0.904256  p :     2.820322
      px      :     0.986982
      py      :     0.929084
      dz2     :     0.010877  d :     0.038061
      dxz     :     0.007745
      dyz     :     0.008569
      dx2y2   :     0.004190
      dxy     :     0.006680

  6 C s       :     2.806143  s :     2.806143
      pz      :     0.613013  p :     2.165031
      px      :     0.715661
      py      :     0.836357
      dz2     :     0.032399  d :     0.137684
      dxz     :     0.030765
      dyz     :     0.021567
      dx2y2   :     0.024425
      dxy     :     0.028528

  7 F s       :     3.976413  s :     3.976413
      pz      :     1.854079  p :     5.305096
      px      :     1.790407
      py      :     1.660610
      dz2     :     0.002177  d :     0.016312
      dxz     :     0.001909
      dyz     :     0.003245
      dx2y2   :     0.003675
      dxy     :     0.005306

  8 F s       :     3.979394  s :     3.979394
      pz      :     1.784338  p :     5.312653
      px      :     1.614331
      py      :     1.913983
      dz2     :     0.002365  d :     0.016233
      dxz     :     0.005796
      dyz     :     0.001147
      dx2y2   :     0.003903
      dxy     :     0.003023

  9 F s       :     3.980106  s :     3.980106
      pz      :     1.528323  p :     5.312966
      px      :     1.881062
      py      :     1.903581
      dz2     :     0.007288  d :     0.016190
      dxz     :     0.004117
      dyz     :     0.003591
      dx2y2   :     0.000530
      dxy     :     0.000665

 10 C s       :     3.204215  s :     3.204215
      pz      :     0.983383  p :     2.920037
      px      :     0.965953
      py      :     0.970701
      dz2     :     0.009368  d :     0.036318
      dxz     :     0.005548
      dyz     :     0.009990
      dx2y2   :     0.006342
      dxy     :     0.005071

 11 C s       :     3.195405  s :     3.195405
      pz      :     0.972427  p :     2.921722
      px      :     0.982996
      py      :     0.966299
      dz2     :     0.008419  d :     0.035544
      dxz     :     0.007848
      dyz     :     0.009409
      dx2y2   :     0.004643
      dxy     :     0.005225

 12 C s       :     3.147147  s :     3.147147
      pz      :     0.901104  p :     2.710937
      px      :     0.879324
      py      :     0.930509
      dz2     :     0.008297  d :     0.038899
      dxz     :     0.008739
      dyz     :     0.006641
      dx2y2   :     0.007252
      dxy     :     0.007970

 13 C s       :     3.203246  s :     3.203246
      pz      :     0.992021  p :     2.940692
      px      :     0.968916
      py      :     0.979755
      dz2     :     0.006091  d :     0.035757
      dxz     :     0.008662
      dyz     :     0.006336
      dx2y2   :     0.007407
      dxy     :     0.007261

 14 C s       :     3.187966  s :     3.187966
      pz      :     0.953721  p :     2.904000
      px      :     0.980802
      py      :     0.969477
      dz2     :     0.007819  d :     0.036416
      dxz     :     0.008257
      dyz     :     0.006476
      dx2y2   :     0.007596
      dxy     :     0.006267

 15 C s       :     3.187312  s :     3.187312
      pz      :     0.958495  p :     2.898235
      px      :     0.960071
      py      :     0.979669
      dz2     :     0.006837  d :     0.036494
      dxz     :     0.008783
      dyz     :     0.007111
      dx2y2   :     0.005521
      dxy     :     0.008241

 16 C s       :     3.205042  s :     3.205042
      pz      :     0.980310  p :     2.941844
      px      :     0.964859
      py      :     0.996676
      dz2     :     0.006772  d :     0.036090
      dxz     :     0.008616
      dyz     :     0.006449
      dx2y2   :     0.007112
      dxy     :     0.007142

 17 C s       :     3.138966  s :     3.138966
      pz      :     0.893353  p :     2.717351
      px      :     0.892984
      py      :     0.931015
      dz2     :     0.008495  d :     0.040801
      dxz     :     0.009519
      dyz     :     0.007408
      dx2y2   :     0.007629
      dxy     :     0.007750

 18 C s       :     3.259006  s :     3.259006
      pz      :     0.995251  p :     3.041976
      px      :     0.988747
      py      :     1.057978
      dz2     :     0.003883  d :     0.041010
      dxz     :     0.009716
      dyz     :     0.011959
      dx2y2   :     0.007382
      dxy     :     0.008070

 19 C s       :     3.213976  s :     3.213976
      pz      :     0.940679  p :     2.883428
      px      :     1.002309
      py      :     0.940440
      dz2     :     0.008103  d :     0.055120
      dxz     :     0.011436
      dyz     :     0.016124
      dx2y2   :     0.008316
      dxy     :     0.011141

 20 N s       :     3.579106  s :     3.579106
      pz      :     1.458869  p :     3.861412
      px      :     1.148231
      py      :     1.254312
      dz2     :     0.004511  d :     0.032791
      dxz     :     0.007266
      dyz     :     0.005508
      dx2y2   :     0.006468
      dxy     :     0.009039

 21 C s       :     2.923499  s :     2.923499
      pz      :     0.811879  p :     2.279862
      px      :     0.712029
      py      :     0.755954
      dz2     :     0.010749  d :     0.114549
      dxz     :     0.019168
      dyz     :     0.017349
      dx2y2   :     0.037346
      dxy     :     0.029936

 22 O s       :     3.895670  s :     3.895670
      pz      :     1.477956  p :     4.555695
      px      :     1.684624
      py      :     1.393115
      dz2     :     0.003654  d :     0.025738
      dxz     :     0.002595
      dyz     :     0.006621
      dx2y2   :     0.006575
      dxy     :     0.006293

 23 N s       :     3.637469  s :     3.637469
      pz      :     1.717834  p :     4.053672
      px      :     1.149422
      py      :     1.186415
      dz2     :     0.003693  d :     0.029461
      dxz     :     0.004144
      dyz     :     0.002385
      dx2y2   :     0.010826
      dxy     :     0.008414

 24 C s       :     3.057923  s :     3.057923
      pz      :     0.932395  p :     2.543895
      px      :     0.822345
      py      :     0.789155
      dz2     :     0.007137  d :     0.054350
      dxz     :     0.009203
      dyz     :     0.010958
      dx2y2   :     0.011038
      dxy     :     0.016014

 25 C s       :     3.180734  s :     3.180734
      pz      :     1.006222  p :     2.959720
      px      :     0.972630
      py      :     0.980867
      dz2     :     0.003881  d :     0.035280
      dxz     :     0.006361
      dyz     :     0.006098
      dx2y2   :     0.011154
      dxy     :     0.007787

 26 C s       :     3.205202  s :     3.205202
      pz      :     1.016060  p :     2.971217
      px      :     0.999036
      py      :     0.956121
      dz2     :     0.003351  d :     0.034868
      dxz     :     0.006063
      dyz     :     0.006946
      dx2y2   :     0.010920
      dxy     :     0.007587

 27 C s       :     3.078467  s :     3.078467
      pz      :     0.968810  p :     2.442070
      px      :     0.761846
      py      :     0.711413
      dz2     :     0.008633  d :     0.072160
      dxz     :     0.009913
      dyz     :     0.012111
      dx2y2   :     0.019607
      dxy     :     0.021896

 28 F s       :     3.970877  s :     3.970877
      pz      :     1.908513  p :     5.333544
      px      :     1.735920
      py      :     1.689111
      dz2     :     0.002042  d :     0.017073
      dxz     :     0.002054
      dyz     :     0.002628
      dx2y2   :     0.004356
      dxy     :     0.005992

 29 C s       :     3.210831  s :     3.210831
      pz      :     1.011143  p :     2.973759
      px      :     0.961726
      py      :     1.000890
      dz2     :     0.003961  d :     0.034926
      dxz     :     0.006217
      dyz     :     0.006153
      dx2y2   :     0.011417
      dxy     :     0.007178

 30 C s       :     3.178580  s :     3.178580
      pz      :     0.976458  p :     2.913635
      px      :     0.987503
      py      :     0.949674
      dz2     :     0.003311  d :     0.035186
      dxz     :     0.006801
      dyz     :     0.006786
      dx2y2   :     0.010272
      dxy     :     0.008016

 31 H s       :     0.849191  s :     0.849191

 32 H s       :     0.826294  s :     0.826294

 33 H s       :     0.854240  s :     0.854240

 34 H s       :     0.869862  s :     0.869862

 35 H s       :     0.854069  s :     0.854069

 36 H s       :     0.854877  s :     0.854877

 37 H s       :     0.871136  s :     0.871136

 38 H s       :     0.864260  s :     0.864260

 39 H s       :     0.867455  s :     0.867455

 40 H s       :     0.870558  s :     0.870558

 41 H s       :     0.875085  s :     0.875085

 42 H s       :     0.853000  s :     0.853000

 43 H s       :     0.833325  s :     0.833325

 44 H s       :     0.839965  s :     0.839965

 45 H s       :     0.868542  s :     0.868542

 46 H s       :     0.671165  s :     0.671165

 47 H s       :     0.871760  s :     0.871760

 48 H s       :     0.856127  s :     0.856127

 49 H s       :     0.851152  s :     0.851152

 50 H s       :     0.839669  s :     0.839669



                     *******************************
                     * LOEWDIN POPULATION ANALYSIS *
                     *******************************

----------------------
LOEWDIN ATOMIC CHARGES
----------------------
   0 C :   -0.354230
   1 C :    0.049105
   2 C :    0.020167
   3 C :   -0.132771
   4 C :   -0.108884
   5 C :   -0.074603
   6 C :    0.309291
   7 F :   -0.114938
   8 F :   -0.117429
   9 F :   -0.116147
  10 C :   -0.113523
  11 C :   -0.113590
  12 C :   -0.011996
  13 C :   -0.121154
  14 C :   -0.129547
  15 C :   -0.126601
  16 C :   -0.131948
  17 C :   -0.029349
  18 C :   -0.226804
  19 C :   -0.158018
  20 N :   -0.117888
  21 C :    0.163613
  22 O :   -0.288444
  23 N :   -0.224154
  24 C :    0.034367
  25 C :   -0.146321
  26 C :   -0.155137
  27 C :    0.105495
  28 F :   -0.107789
  29 C :   -0.151263
  30 C :   -0.121227
  31 H :    0.127617
  32 H :    0.137703
  33 H :    0.127323
  34 H :    0.135161
  35 H :    0.140637
  36 H :    0.140556
  37 H :    0.132615
  38 H :    0.135237
  39 H :    0.134152
  40 H :    0.132345
  41 H :    0.130829
  42 H :    0.132400
  43 H :    0.136473
  44 H :    0.134243
  45 H :    0.106772
  46 H :    0.255647
  47 H :    0.132308
  48 H :    0.143586
  49 H :    0.145808
  50 H :    0.150305

-------------------------------
LOEWDIN REDUCED ORBITAL CHARGES
-------------------------------
  0 C s       :     2.993023  s :     2.993023
      pz      :     1.048213  p :     3.295884
      px      :     1.126400
      py      :     1.121270
      dz2     :     0.015356  d :     0.065324
      dxz     :     0.013407
      dyz     :     0.013849
      dx2y2   :     0.006511
      dxy     :     0.016201

  1 C s       :     2.856140  s :     2.856140
      pz      :     1.014981  p :     2.956050
      px      :     0.911538
      py      :     1.029531
      dz2     :     0.031171  d :     0.138705
      dxz     :     0.026896
      dyz     :     0.021696
      dx2y2   :     0.029051
      dxy     :     0.029891

  2 C s       :     2.887804  s :     2.887804
      pz      :     1.062459  p :     2.994834
      px      :     0.961787
      py      :     0.970588
      dz2     :     0.027864  d :     0.097196
      dxz     :     0.019790
      dyz     :     0.025210
      dx2y2   :     0.010685
      dxy     :     0.013647

  3 C s       :     2.915440  s :     2.915440
      pz      :     1.064845  p :     3.134486
      px      :     1.024378
      py      :     1.045262
      dz2     :     0.022005  d :     0.082845
      dxz     :     0.012792
      dyz     :     0.022172
      dx2y2   :     0.012182
      dxy     :     0.013693

  4 C s       :     2.915313  s :     2.915313
      pz      :     1.062305  p :     3.108593
      px      :     1.009729
      py      :     1.036558
      dz2     :     0.020135  d :     0.084978
      dxz     :     0.017361
      dyz     :     0.023978
      dx2y2   :     0.011144
      dxy     :     0.012360

  5 C s       :     2.886107  s :     2.886107
      pz      :     1.075176  p :     3.091511
      px      :     1.014643
      py      :     1.001692
      dz2     :     0.030351  d :     0.096985
      dxz     :     0.019490
      dyz     :     0.023001
      dx2y2   :     0.008628
      dxy     :     0.015514

  6 C s       :     2.851189  s :     2.851189
      pz      :     0.760010  p :     2.510690
      px      :     0.830960
      py      :     0.919720
      dz2     :     0.081722  d :     0.328830
      dxz     :     0.074018
      dyz     :     0.046506
      dx2y2   :     0.054416
      dxy     :     0.072168

  7 F s       :     3.761712  s :     3.761712
      pz      :     1.854762  p :     5.322008
      px      :     1.792092
      py      :     1.675154
      dz2     :     0.004025  d :     0.031219
      dxz     :     0.003472
      dyz     :     0.005933
      dx2y2   :     0.007126
      dxy     :     0.010663

  8 F s       :     3.759993  s :     3.759993
      pz      :     1.788385  p :     5.326542
      px      :     1.629445
      py      :     1.908713
      dz2     :     0.003804  d :     0.030893
      dxz     :     0.011949
      dyz     :     0.002042
      dx2y2   :     0.007950
      dxy     :     0.005148

  9 F s       :     3.758733  s :     3.758733
      pz      :     1.548242  p :     5.326613
      px      :     1.878156
      py      :     1.900215
      dz2     :     0.014762  d :     0.030801
      dxz     :     0.007563
      dyz     :     0.006721
      dx2y2   :     0.000734
      dxy     :     0.001021

 10 C s       :     2.915866  s :     2.915866
      pz      :     1.068451  p :     3.112685
      px      :     1.004435
      py      :     1.039799
      dz2     :     0.021109  d :     0.084972
      dxz     :     0.013518
      dyz     :     0.023036
      dx2y2   :     0.013760
      dxy     :     0.013549

 11 C s       :     2.914846  s :     2.914846
      pz      :     1.062256  p :     3.115592
      px      :     1.014628
      py      :     1.038708
      dz2     :     0.020114  d :     0.083152
      dxz     :     0.016625
      dyz     :     0.023611
      dx2y2   :     0.010340
      dxy     :     0.012461

 12 C s       :     2.881811  s :     2.881811
      pz      :     1.021339  p :     3.034769
      px      :     1.030889
      py      :     0.982540
      dz2     :     0.019540  d :     0.095416
      dxz     :     0.023288
      dyz     :     0.016038
      dx2y2   :     0.017815
      dxy     :     0.018735

 13 C s       :     2.916465  s :     2.916465
      pz      :     1.048212  p :     3.121145
      px      :     1.042652
      py      :     1.030280
      dz2     :     0.013645  d :     0.083544
      dxz     :     0.019637
      dyz     :     0.013383
      dx2y2   :     0.017725
      dxy     :     0.019155

 14 C s       :     2.914956  s :     2.914956
      pz      :     1.045047  p :     3.128704
      px      :     1.055574
      py      :     1.028083
      dz2     :     0.018735  d :     0.085887
      dxz     :     0.019139
      dyz     :     0.017533
      dx2y2   :     0.016201
      dxy     :     0.014279

 15 C s       :     2.916152  s :     2.916152
      pz      :     1.044714  p :     3.124328
      px      :     1.053690
      py      :     1.025924
      dz2     :     0.016512  d :     0.086121
      dxz     :     0.022957
      dyz     :     0.015246
      dx2y2   :     0.013522
      dxy     :     0.017885

 16 C s       :     2.916863  s :     2.916863
      pz      :     1.045776  p :     3.130328
      px      :     1.053339
      py      :     1.031213
      dz2     :     0.015154  d :     0.084757
      dxz     :     0.020197
      dyz     :     0.013214
      dx2y2   :     0.017444
      dxy     :     0.018747

 17 C s       :     2.872356  s :     2.872356
      pz      :     1.026004  p :     3.055449
      px      :     1.013835
      py      :     1.015611
      dz2     :     0.020810  d :     0.101544
      dxz     :     0.024329
      dyz     :     0.019863
      dx2y2   :     0.017968
      dxy     :     0.018574

 18 C s       :     2.927568  s :     2.927568
      pz      :     1.066044  p :     3.212282
      px      :     1.050412
      py      :     1.095827
      dz2     :     0.008211  d :     0.086955
      dxz     :     0.022539
      dyz     :     0.023905
      dx2y2   :     0.015467
      dxy     :     0.016832

 19 C s       :     2.925714  s :     2.925714
      pz      :     1.031543  p :     3.115722
      px      :     1.065369
      py      :     1.018810
      dz2     :     0.017308  d :     0.116581
      dxz     :     0.024703
      dyz     :     0.033432
      dx2y2   :     0.017482
      dxy     :     0.023657

 20 N s       :     3.122566  s :     3.122566
      pz      :     1.437418  p :     3.913799
      px      :     1.188003
      py      :     1.288378
      dz2     :     0.009580  d :     0.081523
      dxz     :     0.017132
      dyz     :     0.013805
      dx2y2   :     0.017281
      dxy     :     0.023725

 21 C s       :     2.843140  s :     2.843140
      pz      :     0.862135  p :     2.730627
      px      :     0.919984
      py      :     0.948508
      dz2     :     0.023203  d :     0.262621
      dxz     :     0.040476
      dyz     :     0.038535
      dx2y2   :     0.087862
      dxy     :     0.072546

 22 O s       :     3.591266  s :     3.591266
      pz      :     1.484691  p :     4.646742
      px      :     1.697459
      py      :     1.464592
      dz2     :     0.006696  d :     0.050437
      dxz     :     0.004380
      dyz     :     0.012540
      dx2y2   :     0.012484
      dxy     :     0.014337

 23 N s       :     3.146694  s :     3.146694
      pz      :     1.660299  p :     4.008116
      px      :     1.164320
      py      :     1.183497
      dz2     :     0.005751  d :     0.069344
      dxz     :     0.008422
      dyz     :     0.004942
      dx2y2   :     0.028026
      dxy     :     0.022203

 24 C s       :     2.854670  s :     2.854670
      pz      :     1.008657  p :     2.979606
      px      :     0.985511
      py      :     0.985437
      dz2     :     0.015465  d :     0.131358
      dxz     :     0.021086
      dyz     :     0.025383
      dx2y2   :     0.028780
      dxy     :     0.040645

 25 C s       :     2.913858  s :     2.913858
      pz      :     1.030148  p :     3.149564
      px      :     1.050851
      py      :     1.068564
      dz2     :     0.007996  d :     0.082899
      dxz     :     0.015098
      dyz     :     0.012173
      dx2y2   :     0.026846
      dxy     :     0.020785

 26 C s       :     2.919900  s :     2.919900
      pz      :     1.035347  p :     3.152951
      px      :     1.066440
      py      :     1.051164
      dz2     :     0.007015  d :     0.082287
      dxz     :     0.011062
      dyz     :     0.016793
      dx2y2   :     0.026629
      dxy     :     0.020788

 27 C s       :     2.863967  s :     2.863967
      pz      :     1.019697  p :     2.851715
      px      :     0.929964
      py      :     0.902055
      dz2     :     0.020195  d :     0.178822
      dxz     :     0.023847
      dyz     :     0.028320
      dx2y2   :     0.051412
      dxy     :     0.055048

 28 F s       :     3.734732  s :     3.734732
      pz      :     1.901174  p :     5.338647
      px      :     1.740462
      py      :     1.697011
      dz2     :     0.004140  d :     0.034410
      dxz     :     0.004131
      dyz     :     0.005306
      dx2y2   :     0.008625
      dxy     :     0.012208

 29 C s       :     2.921104  s :     2.921104
      pz      :     1.029430  p :     3.147943
      px      :     1.045232
      py      :     1.073280
      dz2     :     0.008165  d :     0.082216
      dxz     :     0.015358
      dyz     :     0.011946
      dx2y2   :     0.027174
      dxy     :     0.019573

 30 C s       :     2.915861  s :     2.915861
      pz      :     1.015353  p :     3.123254
      px      :     1.064819
      py      :     1.043082
      dz2     :     0.007111  d :     0.082112
      dxz     :     0.012346
      dyz     :     0.016258
      dx2y2   :     0.025127
      dxy     :     0.021269

 31 H s       :     0.872383  s :     0.872383

 32 H s       :     0.862297  s :     0.862297

 33 H s       :     0.872677  s :     0.872677

 34 H s       :     0.864839  s :     0.864839

 35 H s       :     0.859363  s :     0.859363

 36 H s       :     0.859444  s :     0.859444

 37 H s       :     0.867385  s :     0.867385

 38 H s       :     0.864763  s :     0.864763

 39 H s       :     0.865848  s :     0.865848

 40 H s       :     0.867655  s :     0.867655

 41 H s       :     0.869171  s :     0.869171

 42 H s       :     0.867600  s :     0.867600

 43 H s       :     0.863527  s :     0.863527

 44 H s       :     0.865757  s :     0.865757

 45 H s       :     0.893228  s :     0.893228

 46 H s       :     0.744353  s :     0.744353

 47 H s       :     0.867692  s :     0.867692

 48 H s       :     0.856414  s :     0.856414

 49 H s       :     0.854192  s :     0.854192

 50 H s       :     0.849695  s :     0.849695



                      *****************************
                      * MAYER POPULATION ANALYSIS *
                      *****************************

  NA   - Mulliken gross atomic population
  ZA   - Total nuclear charge
  QA   - Mulliken gross atomic charge
  VA   - Mayer's total valence
  BVA  - Mayer's bonded valence
  FA   - Mayer's free valence

  ATOM       NA         ZA         QA         VA         BVA        FA
  0 C      6.4675     6.0000    -0.4675     3.8159     3.8159     0.0000
  1 C      5.9152     6.0000     0.0848     3.9032     3.9032     0.0000
  2 C      5.7902     6.0000     0.2098     3.9317     3.9317     0.0000
  3 C      6.1812     6.0000    -0.1812     3.9223     3.9223     0.0000
  4 C      6.1577     6.0000    -0.1577     3.9350     3.9350     0.0000
  5 C      6.0140     6.0000    -0.0140     3.9653     3.9653     0.0000
  6 C      5.1089     6.0000     0.8911     3.9130     3.9130     0.0000
  7 F      9.2978     9.0000    -0.2978     1.0543     1.0543     0.0000
  8 F      9.3083     9.0000    -0.3083     1.0477     1.0477     0.0000
  9 F      9.3093     9.0000    -0.3093     1.0525     1.0525     0.0000
 10 C      6.1606     6.0000    -0.1606     3.9313     3.9313    -0.0000
 11 C      6.1527     6.0000    -0.1527     3.9169     3.9169     0.0000
 12 C      5.8970     6.0000     0.1030     3.9328     3.9328     0.0000
 13 C      6.1797     6.0000    -0.1797     3.9152     3.9152    -0.0000
 14 C      6.1284     6.0000    -0.1284     3.9465     3.9465     0.0000
 15 C      6.1220     6.0000    -0.1220     3.9403     3.9403     0.0000
 16 C      6.1830     6.0000    -0.1830     3.9318     3.9318    -0.0000
 17 C      5.8971     6.0000     0.1029     3.9617     3.9617    -0.0000
 18 C      6.3420     6.0000    -0.3420     3.8428     3.8428    -0.0000
 19 C      6.1525     6.0000    -0.1525     3.8402     3.8402    -0.0000
 20 N      7.4733     7.0000    -0.4733     2.9600     2.9600     0.0000
 21 C      5.3179     6.0000     0.6821     3.9202     3.9202     0.0000
 22 O      8.4771     8.0000    -0.4771     2.0425     2.0425    -0.0000
 23 N      7.7206     7.0000    -0.7206     2.8683     2.8683     0.0000
 24 C      5.6562     6.0000     0.3438     3.8651     3.8651    -0.0000
 25 C      6.1757     6.0000    -0.1757     3.9057     3.9057    -0.0000
 26 C      6.2113     6.0000    -0.2113     3.9069     3.9069     0.0000
 27 C      5.5927     6.0000     0.4073     3.8233     3.8233     0.0000
 28 F      9.3215     9.0000    -0.3215     1.0399     1.0399    -0.0000
 29 C      6.2195     6.0000    -0.2195     3.8937     3.8937    -0.0000
 30 C      6.1274     6.0000    -0.1274     3.9082     3.9082     0.0000
 31 H      0.8492     1.0000     0.1508     0.9402     0.9402     0.0000
 32 H      0.8263     1.0000     0.1737     0.9370     0.9370     0.0000
 33 H      0.8542     1.0000     0.1458     0.9396     0.9396     0.0000
 34 H      0.8699     1.0000     0.1301     0.9425     0.9425     0.0000
 35 H      0.8541     1.0000     0.1459     0.9405     0.9405     0.0000
 36 H      0.8549     1.0000     0.1451     0.9433     0.9433    -0.0000
 37 H      0.8711     1.0000     0.1289     0.9458     0.9458    -0.0000
 38 H      0.8643     1.0000     0.1357     0.9450     0.9450     0.0000
 39 H      0.8675     1.0000     0.1325     0.9370     0.9370     0.0000
 40 H      0.8706     1.0000     0.1294     0.9368     0.9368    -0.0000
 41 H      0.8751     1.0000     0.1249     0.9394     0.9394    -0.0000
 42 H      0.8530     1.0000     0.1470     0.9351     0.9351    -0.0000
 43 H      0.8333     1.0000     0.1667     0.9271     0.9271     0.0000
 44 H      0.8400     1.0000     0.1600     0.9377     0.9377    -0.0000
 45 H      0.8685     1.0000     0.1315     0.9275     0.9275    -0.0000
 46 H      0.6712     1.0000     0.3288     0.8661     0.8661     0.0000
 47 H      0.8718     1.0000     0.1282     0.9386     0.9386     0.0000
 48 H      0.8561     1.0000     0.1439     0.9372     0.9372    -0.0000
 49 H      0.8512     1.0000     0.1488     0.9363     0.9363    -0.0000
 50 H      0.8397     1.0000     0.1603     0.9443     0.9443     0.0000

  Mayer bond orders larger than 0.100000
B(  0-C ,  1-C ) :   0.9879 B(  0-C , 31-H ) :   0.9279 B(  0-C , 32-H ) :   0.9265 
B(  0-C , 33-H ) :   0.9422 B(  1-C ,  2-C ) :   0.9649 B(  1-C , 12-C ) :   0.9554 
B(  1-C , 20-N ) :   0.8793 B(  2-C ,  3-C ) :   1.4167 B(  2-C , 11-C ) :   1.4021 
B(  3-C ,  4-C ) :   1.4212 B(  3-C , 34-H ) :   0.9182 B(  4-C ,  5-C ) :   1.4152 
B(  4-C , 35-H ) :   0.9210 B(  5-C ,  6-C ) :   0.9821 B(  5-C , 10-C ) :   1.4041 
B(  6-C ,  7-F ) :   0.9844 B(  6-C ,  8-F ) :   0.9486 B(  6-C ,  9-F ) :   0.9424 
B( 10-C , 11-C ) :   1.4373 B( 10-C , 36-H ) :   0.9209 B( 11-C , 37-H ) :   0.9178 
B( 12-C , 13-C ) :   1.3867 B( 12-C , 17-C ) :   1.4363 B( 13-C , 14-C ) :   1.4527 
B( 13-C , 38-H ) :   0.9170 B( 14-C , 15-C ) :   1.4372 B( 14-C , 39-H ) :   0.9293 
B( 15-C , 16-C ) :   1.4525 B( 15-C , 40-H ) :   0.9290 B( 16-C , 17-C ) :   1.4061 
B( 16-C , 41-H ) :   0.9253 B( 17-C , 18-C ) :   0.9901 B( 18-C , 19-C ) :   0.9931 
B( 18-C , 42-H ) :   0.9287 B( 18-C , 43-H ) :   0.9143 B( 19-C , 20-N ) :   0.9457 
B( 19-C , 44-H ) :   0.9252 B( 19-C , 45-H ) :   0.9202 B( 20-N , 21-C ) :   1.0296 
B( 21-C , 22-O ) :   1.7861 B( 21-C , 23-N ) :   1.0035 B( 23-N , 24-C ) :   0.8683 
B( 23-N , 46-H ) :   0.8230 B( 24-C , 25-C ) :   1.4072 B( 24-C , 30-C ) :   1.4176 
B( 25-C , 26-C ) :   1.4273 B( 25-C , 47-H ) :   0.9245 B( 26-C , 27-C ) :   1.3984 
B( 26-C , 48-H ) :   0.9206 B( 27-C , 28-F ) :   0.9133 B( 27-C , 29-C ) :   1.3833 
B( 29-C , 30-C ) :   1.4302 B( 29-C , 49-H ) :   0.9205 B( 30-C , 50-H ) :   0.9110 


-------
TIMINGS
-------

Total SCF time: 0 days 0 hours 8 min 33 sec 

Total time                  ....     513.392 sec
Sum of individual times     ....     512.816 sec  ( 99.9%)

SCF preparation             ....       0.339 sec  (  0.1%)
Fock matrix formation       ....     509.840 sec  ( 99.3%)
  Startup                   ....       0.200 sec  (  0.0% of F)
  Split-RI-J                ....      65.244 sec  ( 12.8% of F)
  Chain of spheres X        ....     396.912 sec  ( 77.9% of F)
  XC integration            ....      45.806 sec  (  9.0% of F)
    Basis function eval.    ....      17.805 sec  ( 38.9% of XC)
    Density eval.           ....      11.639 sec  ( 25.4% of XC)
    XC-Functional eval.     ....       2.215 sec  (  4.8% of XC)
    XC-Potential eval.      ....      12.087 sec  ( 26.4% of XC)
Diagonalization             ....       0.000 sec  (  0.0%)
Density matrix formation    ....       0.363 sec  (  0.1%)
Total Energy calculation    ....       0.076 sec  (  0.0%)
Population analysis         ....       0.066 sec  (  0.0%)
Orbital Transformation      ....       0.300 sec  (  0.1%)
Orbital Orthonormalization  ....       0.000 sec  (  0.0%)
DIIS solution               ....       1.224 sec  (  0.2%)
SOSCF solution              ....       0.609 sec  (  0.1%)
Finished LeanSCF after 513.5 sec

Maximum memory used throughout the entire LEANSCF-calculation: 80.4 MB

-------------------------   --------------------
FINAL SINGLE POINT ENERGY     -1509.840224654384
-------------------------   --------------------


------------------------------------------------------------------------------
                              ORCA PROPERTY CALCULATIONS
------------------------------------------------------------------------------

GBWName                                 ... /home/nmrbox/aojoawo/Documents/ERDOS/inputs/CHEMBL3233042.gbw
Number of atoms                         ...     51
Number of basis functions               ...    474
Max core memory                         ...   1024 MB

Electric properties:
Dipole moment                           ... YES
Quadrupole moment                       ...  NO
Static polarizability (Dipole/Dipole)   ...  NO
Static polarizability (Dipole/Quad.)    ...  NO
Static polarizability (Quad./Quad.)     ...  NO
Static polarizability (Velocity)        ...  NO

Atomic electric properties:
Dipole moment                           ...  NO
Quadrupole moment                       ...  NO
Static polarizability                   ...  NO

Choice of electric origin               ... Center of mass
Position of electric origin             ...    -0.318246    -1.304584    -0.351474

General magnetic properties:
Magnetizability                         ...  NO

EPR properties:
g-Tensor (aka g-matrix)                 ...  NO
Zero-Field splitting spin-orbit         ...  NO
Zero-field splitting spin-spin          ...  NO
Hyperfine couplings                     ...  NO (   0 nuclei)
Quadrupole couplings                    ...  NO (   0 nuclei)
Contact density                         ...  NO (   0 nuclei)

NMR properties:
Chemical shifts                         ...  NO (   0 nuclei)
Spin-rotation constants                 ...  NO (   0 nuclei)
Spin-spin couplings                     ...  NO (   0 nuclei,    0 pairs)

Choice of magnetic origin               ... GIAO
Position of magnetic origin             ...     0.000000     0.000000     0.000000

Properties with geometric perturbations:
SCF Hessian                             ...  NO
IR spectrum                             ...  NO
VCD spectrum                            ...  NO
X-ray spectroscopy properties:
SCF XES/XAS/RIXS spectra                ...  NO


-------------
DIPOLE MOMENT
-------------

Method             : SCF
Type of density    : Electron Density
Multiplicity       :   1
Irrep              :   0
Energy             : -1509.8402246543842011 Eh
Relativity type    : 
Basis              : AO
                                X                 Y                 Z
Electronic contribution:    -11.030895366     -38.093988149       0.931831701
Nuclear contribution   :     11.713381433      40.805815320      -1.331361268
                        -----------------------------------------
Total Dipole Moment    :      0.682486067       2.711827171      -0.399529567
                        -----------------------------------------
Magnitude (a.u.)       :      2.824786312
Magnitude (Debye)      :      7.180036199



--------------------
Rotational spectrum 
--------------------
 
Rotational constants in cm-1:             0.005144             0.003019             0.002082 
Rotational constants in MHz :           154.212392            90.498952            62.402735 

Dipole components along the rotational axes: 
x,y,z [a.u.] :     0.077899     2.823462    -0.037586 
x,y,z [Debye]:     0.198005     7.176670    -0.095537 

 

Dipole moment calculation done in   0.0 sec 

Maximum memory used throughout the entire PROP-calculation: 39.0 MB

--------------------------------
SUGGESTED CITATIONS FOR THIS RUN
--------------------------------

Below you find a list of papers that are relevant to this ORCA run
We neither can nor want to force you to cite these papers, but we appreciate if you do
You receive ORCA, which is the product of decades of hard work by many enthusiastic individuals, for free
The only thing we kindly ask in return is that you cite our papers,
We deeply appreciate it, if you show your appreciation for ORCA by not just citing the generic ORCA reference.

Please note that relegating all ORCA citations to the supporting information does *not* help us.
SI sections are not indexed - citations you put there will not count into any citation statistics
But we need these citations in order to attract the funding resources that allow us to do what we are doing

Therefore, if you are a happy ORCA user, please consider citing a few of the papers listed below in the main body of your paper

In addition to the list printed below, the program has created the file /home/nmrbox/aojoawo/Documents/ERDOS/inputs/CHEMBL3233042.bibtex that contains the list in bibtex format
You can import this file easily into all common literature databanks and citation aid programs


List of essential papers. We consider these as the minimum necessary citations

  1. Neese,F.
     Software update: the ORCA program system, version 5.0
     WIRES Comput. Molec. Sci., 2022 12(1)e1606
     doi.org/10.1002/wcms.1606

List of papers to cite with high priority. The work reported in these papers was absolutely
necessary for this run to complete.
Our perspective: the developers of density functionals and basis sets usually get cited in chemistry papers
Good! But without the algorithms to do something with them, the functionals or basis sets would not do anything.
Hence, in our opinion, the algorithm design and method developments papers are equally worthy of getting cited

  1. Neese,F.
     An improvement of the resolution of the identity approximation for the formation of the Coulomb matrix
     J. Comp. Chem., 2003 24(14)1740-1747
     doi.org/10.1002/jcc.10318
  2. Neese,F.; Wennmohs,F.; Hansen,A.; Becker,U.
     Efficient, approximate and parallel Hartree-Fock and hybrid DFT calculations. A 'chain-of-spheres' algorithm for the Hartree-Fock exchange
     Chem. Phys., 2009 356(1-3)98-109
     doi.org/10.1016/j.chemphys.2008.10.036
  3. Helmich-Paris,B.; de Souza,B.; Neese,F.; Izsák,R.
     An improved chain of spheres for exchange algorithm
     J. Chem. Phys., 2021 155 104109
     doi.org/doi: 10.1063/5.0058766.
  4. Neese,F.
     The SHARK Integral Generation and Digestion System
     J. Comp. Chem., 2022  1-16
     doi.org/10.1002/jcc.26942

List of suggested additional citations. These are papers that are important in the 'surrounding' of 
of this run, or papers that preceded the highly important papers. If you like your results we are grateful for a citation.

  1. Izsak,R.; Neese,F.
     An overlap fitted chain of spheres exchange method
     J. Chem. Phys., 2011 135 144105
     doi.org/10.1063/1.3646921
  2. Izsak,R.; Hansen,A.; Neese,F.
     The resolution of identity and chain of spheres approximations for the LPNO-CCSD singles Fock term
     Molec. Phys., 2012 110 2413-2417
     doi.org/10.1080/00268976.2012.687466
  3. Neese,F.
     The ORCA program system
     WIRES Comput. Molec. Sci., 2012 2(1)73-78
     doi.org/10.1002/wcms.81
  4. Izsak,R.; Neese,F.; Klopper,W.
     Robust fitting techniques in the chain of spheres approximation to the Fock exchange: The role of the complementary space
     J. Chem. Phys., 2013 139 
     doi.org/10.1063/1.4819264
  5. Neese,F.
     Software update: the ORCA program system, version 4.0
     WIRES Comput. Molec. Sci., 2018 8(1)1-6
     doi.org/10.1002/wcms.1327
  6. Neese,F.; Wennmohs,F.; Becker,U.; Riplinger,C.
     The ORCA quantum chemistry program package
     J. Chem. Phys., 2020 152 Art. No. L224108
     doi.org/10.1063/5.0004608

List of optional additional citations

  1. Neese,F.
     Approximate second-order SCF convergence for spin unrestricted wavefunctions
     Chem. Phys. Lett., 2000 325(1-3)93-98
     doi.org/10.1016/s0009-2614(00)00662-x

Timings for individual modules:

Sum of individual times          ...      534.972 sec (=   8.916 min)
Startup calculation              ...       14.284 sec (=   0.238 min)   2.7 %
SCF iterations                   ...      520.460 sec (=   8.674 min)  97.3 %
Property calculations            ...        0.228 sec (=   0.004 min)   0.0 %
                             ****ORCA TERMINATED NORMALLY****
TOTAL RUN TIME: 0 days 0 hours 8 minutes 55 seconds 734 msec
