
                                 *****************
                                 * O   R   C   A *
                                 *****************

                                            #,                                       
                                            ###                                      
                                            ####                                     
                                            #####                                    
                                            ######                                   
                                           ########,                                 
                                     ,,################,,,,,                         
                               ,,#################################,,                 
                          ,,##########################################,,             
                       ,#########################################, ''#####,          
                    ,#############################################,,   '####,        
                  ,##################################################,,,,####,       
                ,###########''''           ''''###############################       
              ,#####''   ,,,,##########,,,,          '''####'''          '####       
            ,##' ,,,,###########################,,,                        '##       
           ' ,,###''''                  '''############,,,                           
         ,,##''                                '''############,,,,        ,,,,,,###''
      ,#''                                            '''#######################'''  
     '                                                          ''''####''''         
             ,#######,   #######,   ,#######,      ##                                
            ,#'     '#,  ##    ##  ,#'     '#,    #''#        ,####,   ,####,        
            ##       ##  ##   ,#'  ##            #'  '#       #'       #'  '#        
            ##       ##  #######   ##           ,######,      #####,   #    #        
            '#,     ,#'  ##    ##  '#,     ,#' ,#      #,     #,   #   #,  ,#        
             '#######'   ##     ##  '#######'  #'      '#     '####' # '####'        



                #########################################################
                #                        -***-                          #
                #          Department of theory and spectroscopy        #
                #                                                       #
                #                      Frank Neese                      #
                #                                                       #
                #     Directorship, Architecture, Infrastructure        #
                #                    SHARK, DRIVERS                     #
                #        Core code/Algorithms in most modules           #
                #                                                       #
                #        Max Planck Institute fuer Kohlenforschung      #
                #                Kaiser Wilhelm Platz 1                 #
                #                 D-45470 Muelheim/Ruhr                 #
                #                      Germany                          #
                #                                                       #
                #                  All rights reserved                  #
                #                        -***-                          #
                #########################################################


                         Program Version 6.0.0  -   RELEASE  -


 With contributions from (in alphabetic order):
   Daniel Aravena         : Magnetic Suceptibility
   Michael Atanasov       : Ab Initio Ligand Field Theory (pilot matlab implementation)
   Alexander A. Auer      : GIAO ZORA, VPT2 properties, NMR spectrum
   Ute Becker             : All parallelization in ORCA, NUMFREQ, NUMCALC
   Giovanni Bistoni       : ED, misc. LED, open-shell LED, HFLD
   Martin Brehm           : Molecular dynamics
   Dmytro Bykov           : pre 5.0 version of the SCF Hessian
   Marcos Casanova-Páez   : Triplet and SCS-CIS(D). UHF-(DLPNO)-IP/EA/STEOM-CCSD. UHF-CVS-IP/STEOM-CCSD
   Vijay G. Chilkuri      : MRCI spin determinant printing, contributions to CSF-ICE
   Pauline Colinet        : FMM embedding
   Dipayan Datta          : RHF DLPNO-CCSD density
   Achintya Kumar Dutta   : EOM-CC, STEOM-CC
   Nicolas Foglia         : Exact transition moments, OPA infrastructure, MCD improvements
   Dmitry Ganyushin       : Spin-Orbit,Spin-Spin,Magnetic field MRCI
   Miquel Garcia          : C-PCM and meta-GGA Hessian, CCSD/C-PCM, Gaussian charge scheme
   Tiago L. C. Gouveia    : GS-ROHF, GS-ROCIS
   Yang Guo               : DLPNO-NEVPT2, F12-NEVPT2, CIM, IAO-localization
   Andreas Hansen         : Spin unrestricted coupled pair/coupled cluster methods
   Ingolf Harden          : AUTO-CI MPn and infrastructure 
   Benjamin Helmich-Paris : MC-RPA, TRAH-(SCF,CASSCF), AVAS, COSX integrals, SCF dyn. polar.
   Lee Huntington         : MR-EOM, pCC
   Robert Izsak           : Overlap fitted RIJCOSX, COSX-SCS-MP3, EOM
   Riya Kayal             : Wick's Theorem for AUTO-CI, AUTO-CI UHF-CCSDT
   Emily Kempfer          : AUTO-CI, RHF CISDT and CCSDT
   Christian Kollmar      : KDIIS, OOCD, Brueckner-CCSD(T), CCSD density, CASPT2, CASPT2-K, improved NEVPT2
   Axel Koslowski         : Symmetry handling
   Simone Kossmann        : Meta GGA functionals, TD-DFT gradient, OOMP2, (MP2 Hessian; deprecated post 5.0)
   Lucas Lang             : DCDCAS
   Marvin Lechner         : AUTO-CI (C++ implementation), FIC-MRCC
   Spencer Leger          : CASSCF response
   Dagmar Lenk            : GEPOL surface, SMD, ORCA-2-JSON
   Dimitrios Liakos       : Extrapolation schemes; Compound Job, initial MDCI parallelization
   Dimitrios Manganas     : Further ROCIS development; embedding schemes. LFT, Crystal Embedding
   Dimitrios Pantazis     : SARC Basis sets
   Anastasios Papadopoulos: AUTO-CI, single reference methods and gradients
   Taras Petrenko         : pre 6.0 DFT Hessian and TD-DFT gradient, (ASA, deprecated), ECA, 1-Electron XAS/XES, NRVS
   Peter Pinski           : DLPNO-MP2, DLPNO-MP2 Gradient
   Christoph Reimann      : Effective Core Potentials
   Marius Retegan         : Local ZFS, SOC
   Christoph Riplinger    : Optimizer, TS searches, QM/MM, DLPNO-CCSD(T), (RO)-DLPNO pert. Triples
   Michael Roemelt        : Original ROCIS implementation
   Masaaki Saitow         : Open-shell DLPNO-CCSD energy and density
   Barbara Sandhoefer     : DKH picture change effects
   Kantharuban Sivalingam : CASSCF convergence/infrastructure, NEVPT2 and variants, FIC-MRCI
   Bernardo de Souza      : ESD, SOC TD-DFT
   Georgi Stoychev        : AutoAux, RI-MP2 NMR, DLPNO-MP2 response, X2C
   Van Anh Tran           : RI-MP2 g-tensors
   Willem Van den Heuvel  : Paramagnetic NMR
   Zikuan Wang            : NOTCH, Electric field optimization 
   Frank Wennmohs         : Technical directorship and infrastructure
   Hang Xu                : AUTO-CI-Response properties 


 We gratefully acknowledge several colleagues who have allowed us to
 interface, adapt or use parts of their codes:
   Stefan Grimme, W. Hujo, H. Kruse, P. Pracht,  : VdW corrections, initial TS optimization,
                  C. Bannwarth, S. Ehlert,         DFT functionals, gCP, sTDA/sTD-DF
                  L. Wittmann, M. Mueller
   Ed Valeev, F. Pavosevic, A. Kumar             : LibInt (2-el integral package), F12 methods
   Garnet Chan, S. Sharma, J. Yang, R. Olivares  : DMRG
   Ulf Ekstrom                                   : XCFun DFT Library
   Mihaly Kallay                                 : mrcc  (arbitrary order and MRCC methods)
   Frank Weinhold                                : gennbo (NPA and NBO analysis)
   Simon Mueller                                 : openCOSMO-RS
   Christopher J. Cramer and Donald G. Truhlar   : smd solvation model
   Lars Goerigk                                  : TD-DFT with DH, B97 family of functionals
   V. Asgeirsson, H. Jonsson                     : NEB implementation
   FAccTs GmbH                                   : IRC, NEB, NEB-TS, DLPNO-Multilevel, CI-OPT
                                                   MM, QMMM, 2- and 3-layer-ONIOM, Crystal-QMMM,
                                                   LR-CPCM, SF, NACMEs, symmetry and pop. for TD-DFT,
                                                   nearIR, NL-DFT gradient (VV10), updates on ESD,
                                                   ML-optimized integration grids, MBIS, APM,
                                                   GOAT, DOCKER, SOLVATOR, interface openCOSMO-RS
   S Lehtola, MJT Oliveira, MAL Marques          : LibXC Library
   Liviu Ungur et al                             : ANISO software


 Your calculation uses the libint2 library for the computation of 2-el integrals
 For citations please refer to: http://libint.valeyev.net

 Your ORCA version has been built with support for libXC version: 6.2.2
 For citations please refer to: https://libxc.gitlab.io

 This ORCA versions uses:
   CBLAS   interface :  Fast vector & matrix operations
   LAPACKE interface :  Fast linear algebra routines
   SCALAPACK package :  Parallel linear algebra routines
   Shared memory     :  Shared parallel matrices
   BLAS/LAPACK       :  OpenBLAS 0.3.27  USE64BITINT DYNAMIC_ARCH NO_AFFINITY SkylakeX SINGLE_THREADED
        Core in use  :  SkylakeX
   Copyright (c) 2011-2014, The OpenBLAS Project


Warning: RI is on but no J-basis has been assigned. Assigning Def2/J (nothing to worry about!)
================================================================================

----- Orbital basis set information -----
Your calculation utilizes the basis: 6-31G*
   H-He, Li-Ne : W. J. Hehre, R. Ditchfield and J.A. Pople, J. Chem. Phys. 56, 2257 (1972).
                 Note: He and Ne are unpublished basis sets taken from the Gaussian program.
                 Note: Li and B from J. D. Dill and J. A. Pople, J. Chem. Phys. 62, 2921 (1975).
   Na - Ar     : M. M. Francl, W. J. Pietro, W. J. Hehre, J. S. Binkley, M. S. Gordon, 
                 D. J. DeFrees and J. A. Pople, J. Chem. Phys. 77, 3654 (1982).
   K - Zn      : V. A. Rassolov, J. A. Pople, M. A. Ratner, and T. L. Windus, J. Chem. Phys. 109, 1223 (1998).

----- AuxJ basis set information -----
Your calculation utilizes the auxiliary basis: def2/J
   F. Weigend, Phys. Chem. Chem. Phys. 8, 1057 (2006).

================================================================================
                                        WARNINGS
                       Please study these warnings very carefully!
================================================================================


================================================================================
                                       INPUT FILE
================================================================================
NAME = /home/nmrbox/aojoawo/Documents/ERDOS/inputs/CHEMBL3917717.inp
|  1> ! B3LYP 6-31G* SP
|  2> 
|  3> * xyz 0 1
|  4> C 4.4734 4.1350 1.0831
|  5> O 3.8685 2.8831 1.3786
|  6> C 3.3485 2.0091 0.4105
|  7> C 3.3533 2.3158 -0.9642
|  8> C 2.8416 1.4035 -1.8880
|  9> C 2.3112 0.1850 -1.4559
| 10> C 2.2883 -0.1375 -0.0865
| 11> C 1.6256 -1.4349 0.3585
| 12> C 2.3158 -2.0926 1.5626
| 13> N 0.1836 -1.2467 0.6246
| 14> C -0.2663 -0.0556 1.3048
| 15> O 0.0782 0.1330 2.5020
| 16> C -1.0611 0.9828 0.6101
| 17> C -1.0356 1.0987 -0.7918
| 18> C -1.7815 2.0856 -1.4371
| 19> C -2.5518 2.9763 -0.6858
| 20> C -2.5785 2.8786 0.7100
| 21> C -1.8344 1.8916 1.3564
| 22> C -0.7396 -2.3861 0.4078
| 23> C -1.2546 -2.9810 1.7023
| 24> N -1.7552 -4.3182 1.7150
| 25> O -1.2888 -2.3022 2.7640
| 26> C -1.8618 -2.0158 -0.5400
| 27> C -3.0544 -1.4271 -0.0820
| 28> C -4.0504 -1.0478 -0.9879
| 29> C -3.8683 -1.2489 -2.3558
| 30> C -2.6822 -1.8182 -2.8233
| 31> C -1.6823 -2.1929 -1.9233
| 32> C 2.8092 0.7921 0.8411
| 33> H 5.3577 3.9866 0.4254
| 34> H 4.8106 4.6048 2.0272
| 35> H 3.7394 4.8096 0.5941
| 36> H 3.7549 3.2578 -1.3243
| 37> H 2.8520 1.6435 -2.9414
| 38> H 1.9020 -0.5010 -2.1902
| 39> H 1.7458 -2.1550 -0.4807
| 40> H 1.9566 -3.1374 1.6749
| 41> H 3.4158 -2.1212 1.4040
| 42> H 2.0929 -1.5521 2.5068
| 43> H -0.4470 0.4207 -1.3968
| 44> H -1.7617 2.1598 -2.5185
| 45> H -3.1292 3.7399 -1.1838
| 46> H -3.1734 3.5684 1.2891
| 47> H -1.8686 1.8362 2.4348
| 48> H -0.1739 -3.2161 -0.0703
| 49> H -1.7752 -4.8900 0.8402
| 50> H -2.1199 -4.7330 2.5996
| 51> H -3.2105 -1.2425 0.9706
| 52> H -4.9638 -0.5912 -0.6311
| 53> H -4.6429 -0.9620 -3.0551
| 54> H -2.5373 -1.9643 -3.8854
| 55> H -0.7628 -2.6137 -2.3061
| 56> H 2.7880 0.5875 1.9073
| 57> *
| 58> 
| 59>                          ****END OF INPUT****
================================================================================

                       ****************************
                       * Single Point Calculation *
                       ****************************

---------------------------------
CARTESIAN COORDINATES (ANGSTROEM)
---------------------------------
  C      4.473400    4.135000    1.083100
  O      3.868500    2.883100    1.378600
  C      3.348500    2.009100    0.410500
  C      3.353300    2.315800   -0.964200
  C      2.841600    1.403500   -1.888000
  C      2.311200    0.185000   -1.455900
  C      2.288300   -0.137500   -0.086500
  C      1.625600   -1.434900    0.358500
  C      2.315800   -2.092600    1.562600
  N      0.183600   -1.246700    0.624600
  C     -0.266300   -0.055600    1.304800
  O      0.078200    0.133000    2.502000
  C     -1.061100    0.982800    0.610100
  C     -1.035600    1.098700   -0.791800
  C     -1.781500    2.085600   -1.437100
  C     -2.551800    2.976300   -0.685800
  C     -2.578500    2.878600    0.710000
  C     -1.834400    1.891600    1.356400
  C     -0.739600   -2.386100    0.407800
  C     -1.254600   -2.981000    1.702300
  N     -1.755200   -4.318200    1.715000
  O     -1.288800   -2.302200    2.764000
  C     -1.861800   -2.015800   -0.540000
  C     -3.054400   -1.427100   -0.082000
  C     -4.050400   -1.047800   -0.987900
  C     -3.868300   -1.248900   -2.355800
  C     -2.682200   -1.818200   -2.823300
  C     -1.682300   -2.192900   -1.923300
  C      2.809200    0.792100    0.841100
  H      5.357700    3.986600    0.425400
  H      4.810600    4.604800    2.027200
  H      3.739400    4.809600    0.594100
  H      3.754900    3.257800   -1.324300
  H      2.852000    1.643500   -2.941400
  H      1.902000   -0.501000   -2.190200
  H      1.745800   -2.155000   -0.480700
  H      1.956600   -3.137400    1.674900
  H      3.415800   -2.121200    1.404000
  H      2.092900   -1.552100    2.506800
  H     -0.447000    0.420700   -1.396800
  H     -1.761700    2.159800   -2.518500
  H     -3.129200    3.739900   -1.183800
  H     -3.173400    3.568400    1.289100
  H     -1.868600    1.836200    2.434800
  H     -0.173900   -3.216100   -0.070300
  H     -1.775200   -4.890000    0.840200
  H     -2.119900   -4.733000    2.599600
  H     -3.210500   -1.242500    0.970600
  H     -4.963800   -0.591200   -0.631100
  H     -4.642900   -0.962000   -3.055100
  H     -2.537300   -1.964300   -3.885400
  H     -0.762800   -2.613700   -2.306100
  H      2.788000    0.587500    1.907300

----------------------------
CARTESIAN COORDINATES (A.U.)
----------------------------
  NO LB      ZA    FRAG     MASS         X           Y           Z
   0 C     6.0000    0    12.011    8.453501    7.814018    2.046762
   1 O     8.0000    0    15.999    7.310406    5.448269    2.605176
   2 C     6.0000    0    12.011    6.327748    3.796649    0.775733
   3 C     6.0000    0    12.011    6.336819    4.376228   -1.822074
   4 C     6.0000    0    12.011    5.369846    2.652231   -3.567803
   5 C     6.0000    0    12.011    4.367535    0.349599   -2.751252
   6 C     6.0000    0    12.011    4.324260   -0.259837   -0.163461
   7 C     6.0000    0    12.011    3.071939   -2.711568    0.677467
   8 C     6.0000    0    12.011    4.376228   -3.954441    2.952886
   9 N     7.0000    0    14.007    0.346954   -2.355922    1.180323
  10 C     6.0000    0    12.011   -0.503234   -0.105069    2.465715
  11 O     8.0000    0    15.999    0.147777    0.251334    4.728095
  12 C     6.0000    0    12.011   -2.005188    1.857223    1.152922
  13 C     6.0000    0    12.011   -1.957000    2.076242   -1.496285
  14 C     6.0000    0    12.011   -3.366547    3.941213   -2.715725
  15 C     6.0000    0    12.011   -4.822203    5.624392   -1.295974
  16 C     6.0000    0    12.011   -4.872659    5.439766    1.341706
  17 C     6.0000    0    12.011   -3.466514    3.574606    2.563225
  18 C     6.0000    0    12.011   -1.397641   -4.509076    0.770630
  19 C     6.0000    0    12.011   -2.370850   -5.633274    3.216881
  20 N     7.0000    0    14.007   -3.316847   -8.160215    3.240880
  21 O     8.0000    0    15.999   -2.435479   -4.350528    5.223203
  22 C     6.0000    0    12.011   -3.518292   -3.809310   -1.020452
  23 C     6.0000    0    12.011   -5.771980   -2.696828   -0.154958
  24 C     6.0000    0    12.011   -7.654147   -1.980055   -1.866860
  25 C     6.0000    0    12.011   -7.310028   -2.360079   -4.451817
  26 C     6.0000    0    12.011   -5.068623   -3.435900   -5.335264
  27 C     6.0000    0    12.011   -3.179086   -4.143980   -3.634510
  28 C     6.0000    0    12.011    5.308619    1.496852    1.589449
  29 H     1.0000    0     1.008   10.124586    7.533582    0.803889
  30 H     1.0000    0     1.008    9.090717    8.701811    3.830853
  31 H     1.0000    0     1.008    7.066442    9.088827    1.122686
  32 H     1.0000    0     1.008    7.095733    6.156350   -2.502564
  33 H     1.0000    0     1.008    5.389499    3.105765   -5.558440
  34 H     1.0000    0     1.008    3.594259   -0.946753   -4.138878
  35 H     1.0000    0     1.008    3.299084   -4.072360   -0.908391
  36 H     1.0000    0     1.008    3.697438   -5.928827    3.165102
  37 H     1.0000    0     1.008    6.454927   -4.008487    2.653175
  38 H     1.0000    0     1.008    3.955008   -2.933044    4.737165
  39 H     1.0000    0     1.008   -0.844708    0.795008   -2.639569
  40 H     1.0000    0     1.008   -3.329131    4.081431   -4.759275
  41 H     1.0000    0     1.008   -5.913331    7.067387   -2.237058
  42 H     1.0000    0     1.008   -5.996857    6.743299    2.436046
  43 H     1.0000    0     1.008   -3.531142    3.469915    4.601105
  44 H     1.0000    0     1.008   -0.328623   -6.077548   -0.132848
  45 H     1.0000    0     1.008   -3.354642   -9.240761    1.587748
  46 H     1.0000    0     1.008   -4.006030   -8.944074    4.912532
  47 H     1.0000    0     1.008   -6.066966   -2.347985    1.834168
  48 H     1.0000    0     1.008   -9.380223   -1.117206   -1.192606
  49 H     1.0000    0     1.008   -8.773809   -1.817917   -5.773302
  50 H     1.0000    0     1.008   -4.794802   -3.711989   -7.342342
  51 H     1.0000    0     1.008   -1.441483   -4.939177   -4.357897
  52 H     1.0000    0     1.008    5.268556    1.110214    3.604275

--------------------------------
INTERNAL COORDINATES (ANGSTROEM)
--------------------------------
 C      0   0   0     0.000000000000     0.00000000     0.00000000
 O      1   0   0     1.421435144493     0.00000000     0.00000000
 C      2   1   0     1.404098860480   124.22808857     0.00000000
 C      3   2   1     1.408505598143   122.42061544   358.49466168
 C      4   3   2     1.395540977542   120.16424173   179.05803876
 C      5   4   3     1.397417911721   120.29873099     0.52691478
 C      6   5   4     1.407049046764   120.46247381   359.90678179
 C      7   6   5     1.523300052518   119.11773222   176.24673858
 C      8   7   6     1.535839229868   113.46897120   145.45648264
 N      8   7   6     1.478374935529   111.62292038   271.23025568
 C     10   8   7     1.443537758425   119.59399826   319.15485778
 O     11  10   8     1.259975416427   119.07940957   294.62346072
 C     11  10   8     1.480739575347   121.65862185   111.32641235
 C     13  11  10     1.406913881515   121.03267334   338.32202809
 C     14  13  11     1.395260015194   120.62555764   180.39596096
 C     15  14  13     1.396839385899   119.80695371     0.60929936
 C     16  15  14     1.399469835331   120.16234292   359.86867160
 C     17  16  15     1.394878765341   120.09365865     0.06526993
 C     10   8   7     1.482407784653   118.89967604   149.99019900
 C     19  10   8     1.514879949039   112.86636765   107.87656830
 N     20  19  10     1.427888472536   119.64003262   201.59003612
 O     20  19  10     1.260613330883   121.16145290    23.83426039
 C     19  10   8     1.514853052279   111.40548145   235.24145424
 C     23  19  10     1.406636573533   121.78027220   272.42604434
 C     24  23  19     1.398763489658   120.41936875   177.44391847
 C     25  24  23     1.394543663712   120.21096368   359.91488791
 C     26  25  24     1.396242081446   119.87802606   359.34628975
 C     27  26  25     1.396495649832   120.12307840     0.35811094
 C      3   2   1     1.399053197702   118.16516185   178.47619266
 H      1   2   3     1.112015440540   110.11054071   300.13296640
 H      1   2   3     1.107131740129   109.03009684   181.09440681
 H      1   2   3     1.110388292445   110.20135280    61.98044370
 H      4   3   2     1.085503832329   120.93038809   359.25978755
 H      5   4   3     1.080444223456   119.77888756   180.24473313
 H      6   5   4     1.085005589847   119.02455590   178.86680030
 H      8   7   6     1.112316811884   106.49731261    29.94544500
 H      9   8   7     1.110514732005   109.68306226   194.16399725
 H      9   8   7     1.111742740026   110.10984197   312.97243712
 H      9   8   7     1.110557652713   111.58885679    74.67901952
 H     14  13  11     1.082662902292   121.00288178     1.02925379
 H     15  14  13     1.084123443156   119.99866749   180.57723654
 H     16  15  14     1.079110615275   119.87236829   180.00840211
 H     17  16  15     1.079391893614   120.06615419   179.93070481
 H     18  17  16     1.080363531410   118.81379988   179.87938050
 H     19  10   8     1.112428020143   108.64080592   352.70555658
 H     21  20  19     1.045289567536   120.76692893   359.67481361
 H     21  20  19     1.042872135019   120.17437072   180.56476005
 H     24  23  19     1.080005152765   120.75816889   358.61706491
 H     25  24  23     1.081706688525   120.13931002   180.28818302
 H     26  25  24     1.082283354764   120.13934015   179.52659044
 H     27  26  25     1.081849171558   119.83854336   180.64525934
 H     28  27  26     1.081244065880   119.02266018   181.22425976
 H     29   3   2     1.085860506695   118.27059200     1.81671172

---------------------------
INTERNAL COORDINATES (A.U.)
---------------------------
 C      0   0   0     0.000000000000     0.00000000     0.00000000
 O      1   0   0     2.686123140223     0.00000000     0.00000000
 C      2   1   0     2.653362311257   124.22808857     0.00000000
 C      3   2   1     2.661689838585   122.42061544   358.49466168
 C      4   3   2     2.637190256220   120.16424173   179.05803876
 C      5   4   3     2.640737147790   120.29873099     0.52691478
 C      6   5   4     2.658937355379   120.46247381   359.90678179
 C      7   6   5     2.878619919046   119.11773222   176.24673858
 C      8   7   6     2.902315530182   113.46897120   145.45648264
 N      8   7   6     2.793723751403   111.62292038   271.23025568
 C     10   8   7     2.727891027399   119.59399826   319.15485778
 O     11  10   8     2.381008472520   119.07940957   294.62346072
 C     11  10   8     2.798192273065   121.65862185   111.32641235
 C     13  11  10     2.658681930076   121.03267334   338.32202809
 C     14  13  11     2.636659314328   120.62555764   180.39596096
 C     15  14  13     2.639643892425   119.80695371     0.60929936
 C     16  15  14     2.644614721459   120.16234292   359.86867160
 C     17  16  15     2.635938856517   120.09365865     0.06526993
 C     10   8   7     2.801344731787   118.89967604   149.99019900
 C     19  10   8     2.862708229452   112.86636765   107.87656830
 N     20  19  10     2.698318162875   119.64003262   201.59003612
 O     20  19  10     2.382213956139   121.16145290    23.83426039
 C     19  10   8     2.862657401943   111.40548145   235.24145424
 C     23  19  10     2.658157893934   121.78027220   272.42604434
 C     24  23  19     2.643279921581   120.41936875   177.44391847
 C     25  24  23     2.635305606211   120.21096368   359.91488791
 C     26  25  24     2.638515150589   119.87802606   359.34628975
 C     27  26  25     2.638994325395   120.12307840     0.35811094
 C      3   2   1     2.643827390443   118.16516185   178.47619266
 H      1   2   3     2.101404639313   110.11054071   300.13296640
 H      1   2   3     2.092175783015   109.03009684   181.09440681
 H      1   2   3     2.098329775034   110.20135280    61.98044370
 H      4   3   2     2.051304960423   120.93038809   359.25978755
 H      5   4   3     2.041743685310   119.77888756   180.24473313
 H      6   5   4     2.050363418585   119.02455590   178.86680030
 H      8   7   6     2.101974148617   106.49731261    29.94544500
 H      9   8   7     2.098568711174   109.68306226   194.16399725
 H      9   8   7     2.100889310024   110.10984197   312.97243712
 H      9   8   7     2.098649819559   111.58885679    74.67901952
 H     14  13  11     2.045936380689   121.00288178     1.02925379
 H     15  14  13     2.048696402928   119.99866749   180.57723654
 H     16  15  14     2.039223531078   119.87236829   180.00840211
 H     17  16  15     2.039755070105   120.06615419   179.93070481
 H     18  17  16     2.041591199440   118.81379988   179.87938050
 H     19  10   8     2.102184301771   108.64080592   352.70555658
 H     21  20  19     1.975311013288   120.76692893   359.67481361
 H     21  20  19     1.970742727884   120.17437072   180.56476005
 H     24  23  19     2.040913961951   120.75816889   358.61706491
 H     25  24  23     2.044129398543   120.13931002   180.28818302
 H     26  25  24     2.045219139806   120.13934015   179.52659044
 H     27  26  25     2.044398652454   119.83854336   180.64525934
 H     28  27  26     2.043255168440   119.02266018   181.22425976
 H     29   3   2     2.051978977295   118.27059200     1.81671172

---------------------
BASIS SET INFORMATION
---------------------
There are 4 groups of distinct atoms

 Group   1 Type C   : 10s4p1d contracted to 3s2p1d pattern {631/31/1}
 Group   2 Type O   : 10s4p1d contracted to 3s2p1d pattern {631/31/1}
 Group   3 Type N   : 10s4p1d contracted to 3s2p1d pattern {631/31/1}
 Group   4 Type H   : 4s contracted to 2s pattern {31}

Atom   0C    basis set group =>   1
Atom   1O    basis set group =>   2
Atom   2C    basis set group =>   1
Atom   3C    basis set group =>   1
Atom   4C    basis set group =>   1
Atom   5C    basis set group =>   1
Atom   6C    basis set group =>   1
Atom   7C    basis set group =>   1
Atom   8C    basis set group =>   1
Atom   9N    basis set group =>   3
Atom  10C    basis set group =>   1
Atom  11O    basis set group =>   2
Atom  12C    basis set group =>   1
Atom  13C    basis set group =>   1
Atom  14C    basis set group =>   1
Atom  15C    basis set group =>   1
Atom  16C    basis set group =>   1
Atom  17C    basis set group =>   1
Atom  18C    basis set group =>   1
Atom  19C    basis set group =>   1
Atom  20N    basis set group =>   3
Atom  21O    basis set group =>   2
Atom  22C    basis set group =>   1
Atom  23C    basis set group =>   1
Atom  24C    basis set group =>   1
Atom  25C    basis set group =>   1
Atom  26C    basis set group =>   1
Atom  27C    basis set group =>   1
Atom  28C    basis set group =>   1
Atom  29H    basis set group =>   4
Atom  30H    basis set group =>   4
Atom  31H    basis set group =>   4
Atom  32H    basis set group =>   4
Atom  33H    basis set group =>   4
Atom  34H    basis set group =>   4
Atom  35H    basis set group =>   4
Atom  36H    basis set group =>   4
Atom  37H    basis set group =>   4
Atom  38H    basis set group =>   4
Atom  39H    basis set group =>   4
Atom  40H    basis set group =>   4
Atom  41H    basis set group =>   4
Atom  42H    basis set group =>   4
Atom  43H    basis set group =>   4
Atom  44H    basis set group =>   4
Atom  45H    basis set group =>   4
Atom  46H    basis set group =>   4
Atom  47H    basis set group =>   4
Atom  48H    basis set group =>   4
Atom  49H    basis set group =>   4
Atom  50H    basis set group =>   4
Atom  51H    basis set group =>   4
Atom  52H    basis set group =>   4
---------------------------------
AUXILIARY/J BASIS SET INFORMATION
---------------------------------
There are 4 groups of distinct atoms

 Group   1 Type C   : 12s5p4d2f1g contracted to 6s4p3d1f1g pattern {711111/2111/211/2/1}
 Group   2 Type O   : 12s5p4d2f1g contracted to 6s4p3d1f1g pattern {711111/2111/211/2/1}
 Group   3 Type N   : 12s5p4d2f1g contracted to 6s4p3d1f1g pattern {711111/2111/211/2/1}
 Group   4 Type H   : 5s2p1d contracted to 3s1p1d pattern {311/2/1}

Atom   0C    basis set group =>   1
Atom   1O    basis set group =>   2
Atom   2C    basis set group =>   1
Atom   3C    basis set group =>   1
Atom   4C    basis set group =>   1
Atom   5C    basis set group =>   1
Atom   6C    basis set group =>   1
Atom   7C    basis set group =>   1
Atom   8C    basis set group =>   1
Atom   9N    basis set group =>   3
Atom  10C    basis set group =>   1
Atom  11O    basis set group =>   2
Atom  12C    basis set group =>   1
Atom  13C    basis set group =>   1
Atom  14C    basis set group =>   1
Atom  15C    basis set group =>   1
Atom  16C    basis set group =>   1
Atom  17C    basis set group =>   1
Atom  18C    basis set group =>   1
Atom  19C    basis set group =>   1
Atom  20N    basis set group =>   3
Atom  21O    basis set group =>   2
Atom  22C    basis set group =>   1
Atom  23C    basis set group =>   1
Atom  24C    basis set group =>   1
Atom  25C    basis set group =>   1
Atom  26C    basis set group =>   1
Atom  27C    basis set group =>   1
Atom  28C    basis set group =>   1
Atom  29H    basis set group =>   4
Atom  30H    basis set group =>   4
Atom  31H    basis set group =>   4
Atom  32H    basis set group =>   4
Atom  33H    basis set group =>   4
Atom  34H    basis set group =>   4
Atom  35H    basis set group =>   4
Atom  36H    basis set group =>   4
Atom  37H    basis set group =>   4
Atom  38H    basis set group =>   4
Atom  39H    basis set group =>   4
Atom  40H    basis set group =>   4
Atom  41H    basis set group =>   4
Atom  42H    basis set group =>   4
Atom  43H    basis set group =>   4
Atom  44H    basis set group =>   4
Atom  45H    basis set group =>   4
Atom  46H    basis set group =>   4
Atom  47H    basis set group =>   4
Atom  48H    basis set group =>   4
Atom  49H    basis set group =>   4
Atom  50H    basis set group =>   4
Atom  51H    basis set group =>   4
Atom  52H    basis set group =>   4
------------------------------------------------------------------------------
                             ORCA STARTUP CALCULATIONS
                           -- RI-GTO INTEGRALS CHOSEN --
------------------------------------------------------------------------------
------------------------------------------------------------------------------
                   ___                                                        
                  /   \      - P O W E R E D   B Y -                         
                 /     \                                                     
                 |  |  |   _    _      __       _____    __    __             
                 |  |  |  | |  | |    /  \     |  _  \  |  |  /  |          
                  \  \/   | |  | |   /    \    | | | |  |  | /  /          
                 / \  \   | |__| |  /  /\  \   | |_| |  |  |/  /          
                |  |  |   |  __  | /  /__\  \  |    /   |      \           
                |  |  |   | |  | | |   __   |  |    \   |  |\   \          
                \     /   | |  | | |  |  |  |  | |\  \  |  | \   \       
                 \___/    |_|  |_| |__|  |__|  |_| \__\ |__|  \__/        
                                                                              
                      - O R C A' S   B I G   F R I E N D -                    
                                      &                                       
                       - I N T E G R A L  F E E D E R -                       
                                                                              
 v1 FN, 2020, v2 2021, v3 2022-2024                                           
------------------------------------------------------------------------------


----------------------
SHARK INTEGRAL PACKAGE
----------------------

Number of atoms                             ...     53
Number of basis functions                   ...    454
Number of shells                            ...    222
Maximum angular momentum                    ...      2
Integral batch strategy                     ... SHARK/LIBINT Hybrid
RI-J (if used) integral strategy            ... SPLIT-RIJ (Revised 2003 algorithm where possible)
Printlevel                                  ...      1
Contraction scheme used                     ... SEGMENTED contraction
Prescreening option                         ... SCHWARTZ
   Thresh                                   ... 1.000e-10
   Tcut                                     ... 1.000e-11
   Tpresel                                  ... 1.000e-11 
Coulomb Range Separation                    ... NOT USED
Exchange Range Separation                   ... NOT USED
Multipole approximations                    ... NOT USED
Finite Nucleus Model                        ... NOT USED
CABS basis                                  ... NOT available
Auxiliary Coulomb fitting basis             ... AVAILABLE
   # of basis functions in Aux-J            ...   1685
   # of shells in Aux-J                     ...    555
   Maximum angular momentum in Aux-J        ...      4
Auxiliary J/K fitting basis                 ... NOT available
Auxiliary Correlation fitting basis         ... NOT available
Auxiliary 'external' fitting basis          ... NOT available

Checking pre-screening integrals            ... done (  0.0 sec) Dimension = 222
Check shell pair data                       ... done (  0.0 sec)
Shell pair information
Shell pair cut-off parameter TPreSel        ...   1.0e-11
Total number of shell pairs                 ...     24753
Shell pairs after pre-screening             ...     17271
Total number of primitive shell pairs       ...    141927
Primitive shell pairs kept                  ...     51120
          la=0 lb=0:   5940 shell pairs
          la=1 lb=0:   5997 shell pairs
          la=1 lb=1:   1483 shell pairs
          la=2 lb=0:   2344 shell pairs
          la=2 lb=1:   1267 shell pairs
          la=2 lb=2:    240 shell pairs

Calculating one electron integrals          ... done (  0.2 sec)
Calculating RI/J V-Matrix + Cholesky decomp.... done (  0.3 sec)
Calculating Nuclear repulsion               ... done (  0.0 sec) ENN=   2810.073002112716 Eh

Diagonalization of the overlap matrix:
Smallest eigenvalue                        ... 4.595e-04
Time for diagonalization                   ...    0.022 sec
Threshold for overlap eigenvalues          ... 1.000e-07
Number of eigenvalues below threshold      ... 0
Time for construction of square roots      ...    0.023 sec
Total time needed                          ...    0.056 sec

-------------------
DFT GRID GENERATION
-------------------

General Integration Accuracy     IntAcc      ... 4.388
Radial Grid Type                 RadialGrid  ... OptM3 with GC (2021)
Angular Grid (max. ang.)         AngularGrid ... 4 (Lebedev-302)
Angular grid pruning method      GridPruning ... 4 (adaptive)
Weight generation scheme         WeightScheme... mBecke (2022)
Basis function cutoff            BFCut       ... 1.0000e-10
Integration weight cutoff        WCut        ... 1.0000e-14
Partially contracted basis set               ... off
Rotationally invariant grid construction     ... off
Angular grids for H and He will be reduced by one unit

Total number of grid points                  ...   248486
Total number of batches                      ...     3908
Average number of points per batch           ...       63
Average number of grid points per atom       ...     4688

--------------------
COSX GRID GENERATION
--------------------

GRIDX 1
-------
General Integration Accuracy     IntAcc      ... 3.816
Radial Grid Type                 RadialGrid  ... OptM3 with GC (2021)
Angular Grid (max. ang.)         AngularGrid ... 1 (Lebedev-50)
Angular grid pruning method      GridPruning ... 4 (adaptive)
Weight generation scheme         WeightScheme... mBecke (2022)
Basis function cutoff            BFCut       ... 1.0000e-10
Integration weight cutoff        WCut        ... 1.0000e-14
Partially contracted basis set               ... on
Rotationally invariant grid construction     ... off
Angular grids for H and He will be reduced by one unit

Total number of grid points                  ...    31504
Total number of batches                      ...      274
Average number of points per batch           ...      114
Average number of grid points per atom       ...      594
UseSFitting                                  ... on

GRIDX 2
-------
General Integration Accuracy     IntAcc      ... 4.020
Radial Grid Type                 RadialGrid  ... OptM3 with GC (2021)
Angular Grid (max. ang.)         AngularGrid ... 2 (Lebedev-110)
Angular grid pruning method      GridPruning ... 4 (adaptive)
Weight generation scheme         WeightScheme... mBecke (2022)
Basis function cutoff            BFCut       ... 1.0000e-10
Integration weight cutoff        WCut        ... 1.0000e-14
Partially contracted basis set               ... on
Rotationally invariant grid construction     ... off
Angular grids for H and He will be reduced by one unit

Total number of grid points                  ...    67563
Total number of batches                      ...      556
Average number of points per batch           ...      121
Average number of grid points per atom       ...     1275
UseSFitting                                  ... on

GRIDX 3
-------
General Integration Accuracy     IntAcc      ... 4.338
Radial Grid Type                 RadialGrid  ... OptM3 with GC (2021)
Angular Grid (max. ang.)         AngularGrid ... 3 (Lebedev-194)
Angular grid pruning method      GridPruning ... 4 (adaptive)
Weight generation scheme         WeightScheme... mBecke (2022)
Basis function cutoff            BFCut       ... 1.0000e-10
Integration weight cutoff        WCut        ... 1.0000e-14
Partially contracted basis set               ... on
Rotationally invariant grid construction     ... off
Angular grids for H and He will be reduced by one unit

Total number of grid points                  ...   147328
Total number of batches                      ...     1176
Average number of points per batch           ...      125
Average number of grid points per atom       ...     2780
UseSFitting                                  ... on
Initializing property integral containers    ... done (  0.0 sec)

SHARK setup successfully completed in   9.5 seconds

Maximum memory used throughout the entire STARTUP-calculation: 109.9 MB
-------------------------------------------------------------------------------
                                 ORCA GUESS
                   Start orbitals & Density for SCF / CASSCF
-------------------------------------------------------------------------------

------------
SCF SETTINGS
------------
Hamiltonian:
 Density Functional     Method          .... DFT(GTOs)
 Exchange Functional    Exchange        .... B88
   X-Alpha parameter    XAlpha          ....  0.666667
   Becke's b parameter  XBeta           ....  0.004200
 Correlation Functional Correlation     .... LYP
 LDA part of GGA corr.  LDAOpt          .... VWN-5
 Gradients option       PostSCFGGA      .... off
 Hybrid DFT is turned on
   Fraction HF Exchange ScalHFX         ....  0.200000
   Scaling of DF-GGA-X  ScalDFX         ....  0.720000
   Scaling of DF-GGA-C  ScalDFC         ....  0.810000
   Scaling of DF-LDA-C  ScalLDAC        ....  1.000000
   Perturbative correction              ....  0.000000
   NL short-range parameter             ....  4.800000
 RI-approximation to the Coulomb term is turned on
   Number of AuxJ basis functions       .... 1685
   RIJ-COSX (HFX calculated with COS-X)).... on


General Settings:
 Integral files         IntName         .... /home/nmrbox/aojoawo/Documents/ERDOS/inputs/CHEMBL3917717
 Hartree-Fock type      HFTyp           .... RHF
 Total Charge           Charge          ....    0
 Multiplicity           Mult            ....    1
 Number of Electrons    NEL             ....  206
 Basis Dimension        Dim             ....  454
 Nuclear Repulsion      ENuc            ....   2810.0730021127 Eh

Convergence Acceleration:
 AO-DIIS                CNVDIIS         .... on
   Start iteration      DIISMaxIt       ....    12
   Startup error        DIISStart       ....  0.200000
   # of expansion vecs  DIISMaxEq       ....     5
   Bias factor          DIISBfac        ....   1.050
   Max. coefficient     DIISMaxC        ....  10.000
 MO-DIIS                CNVKDIIS        .... off
 Trust-Rad. Augm. Hess. CNVTRAH         .... auto
   Auto Start mean grad. ratio tolernc. ....  1.125000
   Auto Start start iteration           ....    50
   Auto Start num. interpolation iter.  ....    10
   Max. Number of Micro iterations      ....    24
   Max. Number of Macro iterations      .... Maxiter - #DIIS iter
   Number of Davidson start vectors     ....     2
   Converg. threshold    (grad. norm)   ....   5.000e-05
   Grad. Scal. Fac. for Micro threshold ....   0.100
   Minimum threshold for Micro iter.    ....   1.000e-02
   NR start threshold (gradient norm)   ....   1.000e-04
   Initial trust radius                 ....   0.400
   Minimum AH scaling param. (alpha)    ....   1.000
   Maximum AH scaling param. (alpha)    .... 1000.000
   Quad. conv. algorithm                .... NR
   White noise on init. David. guess    .... on
   Maximum white noise                  ....   0.010
   Pseudo random numbers                .... off
   Inactive MOs                         .... canonical
   Orbital update algorithm             .... Taylor
   Preconditioner                       .... Diag
   Full preconditioner red. dimension   ....   250
 SOSCF                  CNVSOSCF        .... on
   Start iteration      SOSCFMaxIt      ....   150
   Startup grad/error   SOSCFStart      ....  0.003300
   Hessian update       SOSCFHessUp     .... L-BFGS
 Level Shifting         CNVShift        .... on
   Level shift para.    LevelShift      ....    0.2500
   Turn off err/grad.   ShiftErr        ....    0.0010
 Zerner damping         CNVZerner       .... off
 Static damping         CNVDamp         .... on
   Fraction old density DampFac         ....    0.7000
   Max. Damping (<1)    DampMax         ....    0.9800
   Min. Damping (>=0)   DampMin         ....    0.0000
   Turn off err/grad.   DampErr         ....    0.1000

SCF Procedure:
 Maximum # iterations   MaxIter         ....   125
 SCF integral mode      SCFMode         .... Direct
   Integral package                     .... SHARK and LIBINT hybrid scheme
 Reset frequency        DirectResetFreq ....    20
 Integral Threshold     Thresh          ....  1.000e-10 Eh
 Primitive CutOff       TCut            ....  1.000e-11 Eh

Convergence Tolerance:
 Convergence Check Mode ConvCheckMode   .... Total+1el-Energy
 Convergence forced     ConvForced      .... 0
 Energy Change          TolE            ....  1.000e-06 Eh
 1-El. energy change                    ....  1.000e-03 Eh
 Orbital Gradient       TolG            ....  5.000e-05
 Orbital Rotation angle TolX            ....  5.000e-05
 DIIS Error             TolErr          ....  1.000e-06

------------------------------
INITIAL GUESS: MODEL POTENTIAL
------------------------------
Loading Hartree-Fock densities                     ... done
Calculating cut-offs                               ... done
Initializing the effective Hamiltonian             ... done
Setting up the integral package (SHARK)            ... done
Starting the Coulomb interaction                   ... done (   2.1 sec)
Making the grid                                    ... done (   1.2 sec)
Mapping shells                                     ... done
Starting the XC term evaluation                    ... done (   0.9 sec)
  promolecular density results
     # of electrons  =    205.992883363
     EX              =   -168.153895066
     EC              =     -6.981584319
     EX+EC           =   -175.135479386
Transforming the Hamiltonian                       ... done (   0.0 sec)
Diagonalizing the Hamiltonian                      ... done (   0.0 sec)
Back transforming the eigenvectors                 ... done (   0.0 sec)
Now organizing SCF variables                       ... done
                      ------------------
                      INITIAL GUESS DONE (   4.3 sec)
                      ------------------
             **** ENERGY FILE WAS UPDATED (/home/nmrbox/aojoawo/Documents/ERDOS/inputs/CHEMBL3917717.en.tmp) ****
Finished Guess after   4.7 sec
Maximum memory used throughout the entire GUESS-calculation: 60.5 MB

-------------------------------------------------------------------------------------------
                                      ORCA LEAN-SCF
                              memory conserving SCF solver
-------------------------------------------------------------------------------------------

----------------------------------------D-I-I-S--------------------------------------------
Iteration    Energy (Eh)           Delta-E    RMSDP     MaxDP     DIISErr   Damp  Time(sec)
-------------------------------------------------------------------------------------------
               ***  Starting incremental Fock matrix formation  ***
    1    -1262.6072987283041584     0.00e+00  2.24e-03  1.11e-01  2.80e-01  0.700  43.2
    2    -1262.9535069971648227    -3.46e-01  1.49e-03  6.05e-02  1.07e-01  0.700  19.3
                               ***Turning on AO-DIIS***
    3    -1263.0862940942479327    -1.33e-01  6.20e-04  1.78e-02  4.27e-02  0.700  18.4
    4    -1263.1687322439956915    -8.24e-02  9.81e-04  3.16e-02  1.82e-02  0.000  17.1
    5    -1263.3491158431038457    -1.80e-01  2.38e-04  9.17e-03  6.70e-03  0.000  18.2
                              *** Initializing SOSCF ***
---------------------------------------S-O-S-C-F--------------------------------------
Iteration    Energy (Eh)           Delta-E    RMSDP     MaxDP     MaxGrad    Time(sec)
--------------------------------------------------------------------------------------
    6    -1263.3505142548592630    -1.40e-03  7.22e-05  2.38e-03  2.14e-03    15.8
               *** Restarting incremental Fock matrix formation ***
    7    -1263.3507153407831538    -2.01e-04  5.15e-05  2.43e-03  4.06e-04    42.4
    8    -1263.3506999695096056     1.54e-05  2.61e-05  2.05e-03  9.38e-04    23.5
    9    -1263.3507263302194588    -2.64e-05  1.54e-05  6.13e-04  1.70e-04    21.2
   10    -1263.3507240224948873     2.31e-06  9.03e-06  4.35e-04  1.91e-04    19.5
   11    -1263.3507273983659616    -3.38e-06  3.55e-06  1.37e-04  3.97e-05    16.8
   12    -1263.3507274059161318    -7.55e-09  2.10e-06  9.53e-05  6.44e-05    14.0
                 **** Energy Check signals convergence ****

               *****************************************************
               *                     SUCCESS                       *
               *           SCF CONVERGED AFTER  12 CYCLES          *
               *****************************************************

Recomputing exchange energy using gridx3       ... done (   74.841 sec)
Old exchange energy                            :    -34.160484575 Eh
New exchange energy                            :    -34.160479047 Eh
Exchange energy change after final integration :      0.000005529 Eh
Total energy after final integration           :  -1263.350721877 Eh
             **** ENERGY FILE WAS UPDATED (/home/nmrbox/aojoawo/Documents/ERDOS/inputs/CHEMBL3917717.en.tmp) ****

----------------
TOTAL SCF ENERGY
----------------

Total Energy       :      -1263.35072187720630 Eh          -34377.52086 eV

Components:
Nuclear Repulsion  :       2810.07300211271604 Eh           76465.97384 eV
Electronic Energy  :      -4073.42372951863217 Eh         -110843.49485 eV
One Electron Energy:      -7308.03626046099544 Eh         -198861.77658 eV
Two Electron Energy:       3234.61253094236326 Eh           88018.28173 eV

Virial components:
Potential Energy   :      -2518.50073929137307 Eh          -68531.88921 eV
Kinetic Energy     :       1255.15001741416677 Eh           34154.36835 eV
Virial Ratio       :          2.00653364486258

DFT components:
N(Alpha)           :      103.000093067220 electrons
N(Beta)            :      103.000093067220 electrons
N(Total)           :      206.000186134440 electrons
E(X)               :     -135.685366319368 Eh       
E(C)               :       -8.224152497179 Eh       
E(XC)              :     -143.909518816547 Eh       

---------------
SCF CONVERGENCE
---------------

  Last Energy change         ...    7.5502e-09  Tolerance :   1.0000e-06
  Last MAX-Density change    ...    9.5252e-05  Tolerance :   1.0000e-05
  Last RMS-Density change    ...    2.0970e-06  Tolerance :   1.0000e-06
  Last DIIS Error            ...    2.1432e-03  Tolerance :   1.0000e-06
  Last Orbital Gradient      ...    6.4427e-05  Tolerance :   5.0000e-05
  Last Orbital Rotation      ...    9.0980e-05  Tolerance :   5.0000e-05


----------------
ORBITAL ENERGIES
----------------

  NO   OCC          E(Eh)            E(eV) 
   0   2.0000     -19.155370      -521.2441 
   1   2.0000     -19.108331      -519.9641 
   2   2.0000     -19.101590      -519.7807 
   3   2.0000     -14.350147      -390.4874 
   4   2.0000     -14.321672      -389.7125 
   5   2.0000     -10.283631      -279.8318 
   6   2.0000     -10.276446      -279.6363 
   7   2.0000     -10.237747      -278.5833 
   8   2.0000     -10.236296      -278.5438 
   9   2.0000     -10.229402      -278.3562 
  10   2.0000     -10.218344      -278.0553 
  11   2.0000     -10.194899      -277.4173 
  12   2.0000     -10.185633      -277.1652 
  13   2.0000     -10.185129      -277.1515 
  14   2.0000     -10.184207      -277.1264 
  15   2.0000     -10.182831      -277.0889 
  16   2.0000     -10.182231      -277.0726 
  17   2.0000     -10.181286      -277.0469 
  18   2.0000     -10.180472      -277.0247 
  19   2.0000     -10.180093      -277.0144 
  20   2.0000     -10.177518      -276.9443 
  21   2.0000     -10.176332      -276.9121 
  22   2.0000     -10.176046      -276.9043 
  23   2.0000     -10.175271      -276.8832 
  24   2.0000     -10.175256      -276.8828 
  25   2.0000     -10.174329      -276.8576 
  26   2.0000     -10.170765      -276.7606 
  27   2.0000     -10.169990      -276.7395 
  28   2.0000     -10.152558      -276.2651 
  29   2.0000      -1.033579       -28.1251 
  30   2.0000      -1.007454       -27.4142 
  31   2.0000      -0.995602       -27.0917 
  32   2.0000      -0.906915       -24.6784 
  33   2.0000      -0.874225       -23.7889 
  34   2.0000      -0.852531       -23.1985 
  35   2.0000      -0.843671       -22.9575 
  36   2.0000      -0.839656       -22.8482 
  37   2.0000      -0.783757       -21.3271 
  38   2.0000      -0.756229       -20.5780 
  39   2.0000      -0.745059       -20.2741 
  40   2.0000      -0.744030       -20.2461 
  41   2.0000      -0.743069       -20.2199 
  42   2.0000      -0.735986       -20.0272 
  43   2.0000      -0.709085       -19.2952 
  44   2.0000      -0.696662       -18.9572 
  45   2.0000      -0.680757       -18.5243 
  46   2.0000      -0.633529       -17.2392 
  47   2.0000      -0.616834       -16.7849 
  48   2.0000      -0.607957       -16.5434 
  49   2.0000      -0.598333       -16.2815 
  50   2.0000      -0.594283       -16.1713 
  51   2.0000      -0.585614       -15.9354 
  52   2.0000      -0.576410       -15.6849 
  53   2.0000      -0.564273       -15.3546 
  54   2.0000      -0.536310       -14.5937 
  55   2.0000      -0.523193       -14.2368 
  56   2.0000      -0.519662       -14.1407 
  57   2.0000      -0.511011       -13.9053 
  58   2.0000      -0.490433       -13.3454 
  59   2.0000      -0.482554       -13.1310 
  60   2.0000      -0.476351       -12.9622 
  61   2.0000      -0.473267       -12.8782 
  62   2.0000      -0.468192       -12.7401 
  63   2.0000      -0.461199       -12.5499 
  64   2.0000      -0.452528       -12.3139 
  65   2.0000      -0.451099       -12.2750 
  66   2.0000      -0.441213       -12.0060 
  67   2.0000      -0.434317       -11.8184 
  68   2.0000      -0.432356       -11.7650 
  69   2.0000      -0.423828       -11.5330 
  70   2.0000      -0.422499       -11.4968 
  71   2.0000      -0.421010       -11.4563 
  72   2.0000      -0.417361       -11.3570 
  73   2.0000      -0.412227       -11.2173 
  74   2.0000      -0.407647       -11.0926 
  75   2.0000      -0.396238       -10.7822 
  76   2.0000      -0.391166       -10.6442 
  77   2.0000      -0.378895       -10.3103 
  78   2.0000      -0.374883       -10.2011 
  79   2.0000      -0.366879        -9.9833 
  80   2.0000      -0.364670        -9.9232 
  81   2.0000      -0.360748        -9.8164 
  82   2.0000      -0.359027        -9.7696 
  83   2.0000      -0.356287        -9.6951 
  84   2.0000      -0.347655        -9.4602 
  85   2.0000      -0.343282        -9.3412 
  86   2.0000      -0.341688        -9.2978 
  87   2.0000      -0.336854        -9.1663 
  88   2.0000      -0.334407        -9.0997 
  89   2.0000      -0.328724        -8.9450 
  90   2.0000      -0.322545        -8.7769 
  91   2.0000      -0.305184        -8.3045 
  92   2.0000      -0.301493        -8.2040 
  93   2.0000      -0.260365        -7.0849 
  94   2.0000      -0.253135        -6.8882 
  95   2.0000      -0.250635        -6.8201 
  96   2.0000      -0.244103        -6.6424 
  97   2.0000      -0.241818        -6.5802 
  98   2.0000      -0.237188        -6.4542 
  99   2.0000      -0.236623        -6.4388 
 100   2.0000      -0.225403        -6.1335 
 101   2.0000      -0.211592        -5.7577 
 102   2.0000      -0.198863        -5.4113 
 103   0.0000      -0.042998        -1.1700 
 104   0.0000      -0.010615        -0.2889 
 105   0.0000      -0.000867        -0.0236 
 106   0.0000       0.003710         0.1010 
 107   0.0000       0.009370         0.2550 
 108   0.0000       0.015876         0.4320 
 109   0.0000       0.021205         0.5770 
 110   0.0000       0.048389         1.3167 
 111   0.0000       0.065821         1.7911 
 112   0.0000       0.077471         2.1081 
 113   0.0000       0.098822         2.6891 
*Only the first 10 virtual orbitals were printed.

                    ********************************
                    * MULLIKEN POPULATION ANALYSIS *
                    ********************************

-----------------------
MULLIKEN ATOMIC CHARGES
-----------------------
   0 C :   -0.192442
   1 O :   -0.509060
   2 C :    0.369626
   3 C :   -0.201254
   4 C :   -0.123090
   5 C :   -0.184565
   6 C :    0.128833
   7 C :   -0.031984
   8 C :   -0.443297
   9 N :   -0.436801
  10 C :    0.462618
  11 O :   -0.417581
  12 C :    0.103233
  13 C :   -0.136478
  14 C :   -0.130254
  15 C :   -0.119143
  16 C :   -0.135408
  17 C :   -0.150015
  18 C :   -0.153804
  19 C :    0.573888
  20 N :   -0.767385
  21 O :   -0.462684
  22 C :    0.159682
  23 C :   -0.169765
  24 C :   -0.120904
  25 C :   -0.122898
  26 C :   -0.128678
  27 C :   -0.184372
  28 C :   -0.211309
  29 H :    0.142076
  30 H :    0.168209
  31 H :    0.145287
  32 H :    0.127300
  33 H :    0.125309
  34 H :    0.113858
  35 H :    0.127092
  36 H :    0.129476
  37 H :    0.133334
  38 H :    0.191440
  39 H :    0.141916
  40 H :    0.125452
  41 H :    0.126318
  42 H :    0.129647
  43 H :    0.158470
  44 H :    0.141906
  45 H :    0.328534
  46 H :    0.350203
  47 H :    0.158907
  48 H :    0.133500
  49 H :    0.127537
  50 H :    0.127030
  51 H :    0.120835
  52 H :    0.161657
Sum of atomic charges:    0.0000000

--------------------------------
MULLIKEN REDUCED ORBITAL CHARGES
--------------------------------
  0 C s       :     3.252167  s :     3.252167
      pz      :     1.085496  p :     2.880927
      px      :     1.007263
      py      :     0.788169
      dz2     :     0.006566  d :     0.059348
      dxz     :     0.011565
      dyz     :     0.011985
      dx2y2   :     0.013121
      dxy     :     0.016110

  1 O s       :     3.867437  s :     3.867437
      pz      :     1.612064  p :     4.615205
      px      :     1.679831
      py      :     1.323310
      dz2     :     0.004956  d :     0.026417
      dxz     :     0.004623
      dyz     :     0.007758
      dx2y2   :     0.004558
      dxy     :     0.004522

  2 C s       :     3.080494  s :     3.080494
      pz      :     0.771689  p :     2.483606
      px      :     0.916325
      py      :     0.795593
      dz2     :     0.015040  d :     0.066274
      dxz     :     0.012744
      dyz     :     0.019799
      dx2y2   :     0.009679
      dxy     :     0.009012

  3 C s       :     3.179742  s :     3.179742
      pz      :     0.951072  p :     2.987209
      px      :     1.046558
      py      :     0.989580
      dz2     :     0.010124  d :     0.034302
      dxz     :     0.006211
      dyz     :     0.009119
      dx2y2   :     0.004287
      dxy     :     0.004561

  4 C s       :     3.186429  s :     3.186429
      pz      :     0.975450  p :     2.899812
      px      :     0.980213
      py      :     0.944149
      dz2     :     0.011725  d :     0.036850
      dxz     :     0.003531
      dyz     :     0.009438
      dx2y2   :     0.006298
      dxy     :     0.005859

  5 C s       :     3.196098  s :     3.196098
      pz      :     0.963652  p :     2.952752
      px      :     1.013336
      py      :     0.975764
      dz2     :     0.008239  d :     0.035715
      dxz     :     0.006273
      dyz     :     0.012213
      dx2y2   :     0.004099
      dxy     :     0.004891

  6 C s       :     3.140568  s :     3.140568
      pz      :     0.867268  p :     2.690687
      px      :     0.943306
      py      :     0.880113
      dz2     :     0.010113  d :     0.039911
      dxz     :     0.007684
      dyz     :     0.011861
      dx2y2   :     0.004995
      dxy     :     0.005258

  7 C s       :     3.191077  s :     3.191077
      pz      :     0.989838  p :     2.780126
      px      :     0.795173
      py      :     0.995115
      dz2     :     0.009027  d :     0.060781
      dxz     :     0.013638
      dyz     :     0.013079
      dx2y2   :     0.015174
      dxy     :     0.009863

  8 C s       :     3.304700  s :     3.304700
      pz      :     1.035966  p :     3.105083
      px      :     1.019004
      py      :     1.050113
      dz2     :     0.009033  d :     0.033514
      dxz     :     0.003849
      dyz     :     0.007001
      dx2y2   :     0.010278
      dxy     :     0.003353

  9 N s       :     3.531803  s :     3.531803
      pz      :     1.647286  p :     3.873859
      px      :     1.081796
      py      :     1.144777
      dz2     :     0.003658  d :     0.031139
      dxz     :     0.005058
      dyz     :     0.004955
      dx2y2   :     0.008421
      dxy     :     0.009048

 10 C s       :     3.076495  s :     3.076495
      pz      :     0.769871  p :     2.360573
      px      :     0.818831
      py      :     0.771871
      dz2     :     0.027742  d :     0.100314
      dxz     :     0.019084
      dyz     :     0.034382
      dx2y2   :     0.010418
      dxy     :     0.008689

 11 O s       :     3.903730  s :     3.903730
      pz      :     1.330148  p :     4.488383
      px      :     1.427480
      py      :     1.730755
      dz2     :     0.009776  d :     0.025468
      dxz     :     0.008107
      dyz     :     0.005966
      dx2y2   :     0.000740
      dxy     :     0.000879

 12 C s       :     3.162344  s :     3.162344
      pz      :     0.842615  p :     2.695963
      px      :     0.951808
      py      :     0.901540
      dz2     :     0.010051  d :     0.038461
      dxz     :     0.008427
      dyz     :     0.010238
      dx2y2   :     0.004215
      dxy     :     0.005531

 13 C s       :     3.204334  s :     3.204334
      pz      :     0.980201  p :     2.895870
      px      :     0.957716
      py      :     0.957953
      dz2     :     0.008858  d :     0.036274
      dxz     :     0.008498
      dyz     :     0.009968
      dx2y2   :     0.003442
      dxy     :     0.005507

 14 C s       :     3.187449  s :     3.187449
      pz      :     0.976682  p :     2.906827
      px      :     0.969878
      py      :     0.960268
      dz2     :     0.012581  d :     0.035977
      dxz     :     0.005210
      dyz     :     0.007061
      dx2y2   :     0.005653
      dxy     :     0.005472

 15 C s       :     3.191076  s :     3.191076
      pz      :     0.950350  p :     2.891594
      px      :     0.970779
      py      :     0.970465
      dz2     :     0.009010  d :     0.036473
      dxz     :     0.008385
      dyz     :     0.010194
      dx2y2   :     0.003117
      dxy     :     0.005767

 16 C s       :     3.190162  s :     3.190162
      pz      :     0.933295  p :     2.909289
      px      :     0.992101
      py      :     0.983893
      dz2     :     0.008751  d :     0.035957
      dxz     :     0.008294
      dyz     :     0.010161
      dx2y2   :     0.003101
      dxy     :     0.005651

 17 C s       :     3.212688  s :     3.212688
      pz      :     0.997474  p :     2.901337
      px      :     0.960727
      py      :     0.943136
      dz2     :     0.012131  d :     0.035990
      dxz     :     0.005295
      dyz     :     0.007041
      dx2y2   :     0.006143
      dxy     :     0.005380

 18 C s       :     3.244198  s :     3.244198
      pz      :     0.991538  p :     2.849537
      px      :     0.938947
      py      :     0.919052
      dz2     :     0.008591  d :     0.060069
      dxz     :     0.014045
      dyz     :     0.013663
      dx2y2   :     0.008229
      dxy     :     0.015542

 19 C s       :     3.015939  s :     3.015939
      pz      :     0.820984  p :     2.311193
      px      :     0.775048
      py      :     0.715161
      dz2     :     0.029170  d :     0.098980
      dxz     :     0.014606
      dyz     :     0.023351
      dx2y2   :     0.015667
      dxy     :     0.016186

 20 N s       :     3.609874  s :     3.609874
      pz      :     1.236624  p :     4.135164
      px      :     1.665571
      py      :     1.232969
      dz2     :     0.004901  d :     0.022347
      dxz     :     0.002089
      dyz     :     0.009356
      dx2y2   :     0.003048
      dxy     :     0.002952

 21 O s       :     3.897719  s :     3.897719
      pz      :     1.450390  p :     4.538914
      px      :     1.478848
      py      :     1.609676
      dz2     :     0.007366  d :     0.026051
      dxz     :     0.006370
      dyz     :     0.007537
      dx2y2   :     0.001973
      dxy     :     0.002805

 22 C s       :     3.122734  s :     3.122734
      pz      :     0.874369  p :     2.677811
      px      :     0.847593
      py      :     0.955848
      dz2     :     0.010408  d :     0.039773
      dxz     :     0.011953
      dyz     :     0.006471
      dx2y2   :     0.005218
      dxy     :     0.005723

 23 C s       :     3.201793  s :     3.201793
      pz      :     1.003448  p :     2.932092
      px      :     0.960242
      py      :     0.968402
      dz2     :     0.011835  d :     0.035879
      dxz     :     0.008742
      dyz     :     0.003893
      dx2y2   :     0.005694
      dxy     :     0.005716

 24 C s       :     3.188850  s :     3.188850
      pz      :     0.931630  p :     2.895846
      px      :     0.982141
      py      :     0.982075
      dz2     :     0.009908  d :     0.036209
      dxz     :     0.010676
      dyz     :     0.006682
      dx2y2   :     0.003960
      dxy     :     0.004983

 25 C s       :     3.184371  s :     3.184371
      pz      :     0.956941  p :     2.902244
      px      :     0.964928
      py      :     0.980375
      dz2     :     0.008284  d :     0.036283
      dxz     :     0.013093
      dyz     :     0.005890
      dx2y2   :     0.004672
      dxy     :     0.004343

 26 C s       :     3.187133  s :     3.187133
      pz      :     0.978226  p :     2.905292
      px      :     0.944298
      py      :     0.982767
      dz2     :     0.012064  d :     0.036253
      dxz     :     0.009014
      dyz     :     0.003699
      dx2y2   :     0.005755
      dxy     :     0.005721

 27 C s       :     3.201493  s :     3.201493
      pz      :     0.961931  p :     2.946755
      px      :     0.976147
      py      :     1.008677
      dz2     :     0.009884  d :     0.036124
      dxz     :     0.010740
      dyz     :     0.006753
      dx2y2   :     0.004031
      dxy     :     0.004716

 28 C s       :     3.220318  s :     3.220318
      pz      :     0.981645  p :     2.957231
      px      :     1.015735
      py      :     0.959852
      dz2     :     0.011408  d :     0.033759
      dxz     :     0.003528
      dyz     :     0.007719
      dx2y2   :     0.005654
      dxy     :     0.005450

 29 H s       :     0.857924  s :     0.857924

 30 H s       :     0.831791  s :     0.831791

 31 H s       :     0.854713  s :     0.854713

 32 H s       :     0.872700  s :     0.872700

 33 H s       :     0.874691  s :     0.874691

 34 H s       :     0.886142  s :     0.886142

 35 H s       :     0.872908  s :     0.872908

 36 H s       :     0.870524  s :     0.870524

 37 H s       :     0.866666  s :     0.866666

 38 H s       :     0.808560  s :     0.808560

 39 H s       :     0.858084  s :     0.858084

 40 H s       :     0.874548  s :     0.874548

 41 H s       :     0.873682  s :     0.873682

 42 H s       :     0.870353  s :     0.870353

 43 H s       :     0.841530  s :     0.841530

 44 H s       :     0.858094  s :     0.858094

 45 H s       :     0.671466  s :     0.671466

 46 H s       :     0.649797  s :     0.649797

 47 H s       :     0.841093  s :     0.841093

 48 H s       :     0.866500  s :     0.866500

 49 H s       :     0.872463  s :     0.872463

 50 H s       :     0.872970  s :     0.872970

 51 H s       :     0.879165  s :     0.879165

 52 H s       :     0.838343  s :     0.838343



                     *******************************
                     * LOEWDIN POPULATION ANALYSIS *
                     *******************************

----------------------
LOEWDIN ATOMIC CHARGES
----------------------
   0 C :   -0.199255
   1 O :   -0.192180
   2 C :    0.091068
   3 C :   -0.173456
   4 C :   -0.125378
   5 C :   -0.152841
   6 C :   -0.019153
   7 C :   -0.040921
   8 C :   -0.368916
   9 N :   -0.133450
  10 C :    0.162494
  11 O :   -0.213456
  12 C :   -0.050478
  13 C :   -0.096431
  14 C :   -0.133365
  15 C :   -0.116516
  16 C :   -0.135922
  17 C :   -0.094913
  18 C :   -0.064488
  19 C :    0.132037
  20 N :   -0.406459
  21 O :   -0.271891
  22 C :   -0.024309
  23 C :   -0.122760
  24 C :   -0.121220
  25 C :   -0.128149
  26 C :   -0.131665
  27 C :   -0.136873
  28 C :   -0.141768
  29 H :    0.113731
  30 H :    0.134760
  31 H :    0.115157
  32 H :    0.132729
  33 H :    0.130532
  34 H :    0.124306
  35 H :    0.118935
  36 H :    0.119033
  37 H :    0.120417
  38 H :    0.146623
  39 H :    0.141862
  40 H :    0.130349
  41 H :    0.130306
  42 H :    0.132197
  43 H :    0.148695
  44 H :    0.136250
  45 H :    0.248745
  46 H :    0.264601
  47 H :    0.145361
  48 H :    0.134180
  49 H :    0.131158
  50 H :    0.130770
  51 H :    0.127011
  52 H :    0.152905

-------------------------------
LOEWDIN REDUCED ORBITAL CHARGES
-------------------------------
  0 C s       :     2.980851  s :     2.980851
      pz      :     1.132770  p :     3.099747
      px      :     1.075369
      py      :     0.891608
      dz2     :     0.012414  d :     0.118657
      dxz     :     0.022651
      dyz     :     0.025352
      dx2y2   :     0.026324
      dxy     :     0.031916

  1 O s       :     3.465270  s :     3.465270
      pz      :     1.619785  p :     4.665643
      px      :     1.678491
      py      :     1.367367
      dz2     :     0.010145  d :     0.061266
      dxz     :     0.008764
      dyz     :     0.018320
      dx2y2   :     0.011863
      dxy     :     0.012175

  2 C s       :     2.861014  s :     2.861014
      pz      :     0.980992  p :     2.890998
      px      :     0.949317
      py      :     0.960689
      dz2     :     0.039733  d :     0.156920
      dxz     :     0.028133
      dyz     :     0.048060
      dx2y2   :     0.020758
      dxy     :     0.020236

  3 C s       :     2.917360  s :     2.917360
      pz      :     1.055217  p :     3.174789
      px      :     1.051420
      py      :     1.068152
      dz2     :     0.027242  d :     0.081307
      dxz     :     0.014320
      dyz     :     0.023653
      dx2y2   :     0.007726
      dxy     :     0.008367

  4 C s       :     2.915082  s :     2.915082
      pz      :     1.069918  p :     3.123200
      px      :     0.998186
      py      :     1.055096
      dz2     :     0.025312  d :     0.087096
      dxz     :     0.007949
      dyz     :     0.024209
      dx2y2   :     0.014967
      dxy     :     0.014659

  5 C s       :     2.916814  s :     2.916814
      pz      :     1.059721  p :     3.151894
      px      :     1.032427
      py      :     1.059746
      dz2     :     0.021300  d :     0.084133
      dxz     :     0.013524
      dyz     :     0.029872
      dx2y2   :     0.009071
      dxy     :     0.010366

  6 C s       :     2.882323  s :     2.882323
      pz      :     1.059718  p :     3.038363
      px      :     0.970905
      py      :     1.007740
      dz2     :     0.028214  d :     0.098467
      dxz     :     0.017695
      dyz     :     0.030515
      dx2y2   :     0.010458
      dxy     :     0.011585

  7 C s       :     2.886516  s :     2.886516
      pz      :     1.062794  p :     3.020915
      px      :     0.910731
      py      :     1.047390
      dz2     :     0.018991  d :     0.133490
      dxz     :     0.030956
      dyz     :     0.027773
      dx2y2   :     0.033825
      dxy     :     0.021946

  8 C s       :     2.994079  s :     2.994079
      pz      :     1.102208  p :     3.309113
      px      :     1.098162
      py      :     1.108744
      dz2     :     0.017677  d :     0.065724
      dxz     :     0.008445
      dyz     :     0.013980
      dx2y2   :     0.019245
      dxy     :     0.006376

  9 N s       :     3.108098  s :     3.108098
      pz      :     1.614526  p :     3.946749
      px      :     1.135162
      py      :     1.197061
      dz2     :     0.007239  d :     0.078603
      dxz     :     0.011073
      dyz     :     0.011699
      dx2y2   :     0.023635
      dxy     :     0.024957

 10 C s       :     2.869912  s :     2.869912
      pz      :     0.967795  p :     2.735675
      px      :     0.851213
      py      :     0.916667
      dz2     :     0.065656  d :     0.231919
      dxz     :     0.043446
      dyz     :     0.082103
      dx2y2   :     0.022349
      dxy     :     0.018364

 11 O s       :     3.592660  s :     3.592660
      pz      :     1.421351  p :     4.570415
      px      :     1.430076
      py      :     1.718988
      dz2     :     0.022428  d :     0.050381
      dxz     :     0.014069
      dyz     :     0.011206
      dx2y2   :     0.001357
      dxy     :     0.001321

 12 C s       :     2.882001  s :     2.882001
      pz      :     1.053059  p :     3.069167
      px      :     1.004828
      py      :     1.011281
      dz2     :     0.028331  d :     0.099311
      dxz     :     0.021320
      dyz     :     0.027263
      dx2y2   :     0.008765
      dxy     :     0.013633

 13 C s       :     2.920878  s :     2.920878
      pz      :     1.065037  p :     3.091288
      px      :     0.997859
      py      :     1.028392
      dz2     :     0.022992  d :     0.084265
      dxz     :     0.019438
      dyz     :     0.024118
      dx2y2   :     0.006581
      dxy     :     0.011135

 14 C s       :     2.916753  s :     2.916753
      pz      :     1.071053  p :     3.131499
      px      :     1.020171
      py      :     1.040275
      dz2     :     0.026641  d :     0.085113
      dxz     :     0.012727
      dyz     :     0.018100
      dx2y2   :     0.012619
      dxy     :     0.015026

 15 C s       :     2.920451  s :     2.920451
      pz      :     1.074684  p :     3.110642
      px      :     1.005946
      py      :     1.030011
      dz2     :     0.024438  d :     0.085423
      dxz     :     0.019919
      dyz     :     0.024238
      dx2y2   :     0.005849
      dxy     :     0.010979

 16 C s       :     2.917039  s :     2.917039
      pz      :     1.069221  p :     3.133992
      px      :     1.023756
      py      :     1.041014
      dz2     :     0.024004  d :     0.084892
      dxz     :     0.019120
      dyz     :     0.024632
      dx2y2   :     0.005976
      dxy     :     0.011160

 17 C s       :     2.920160  s :     2.920160
      pz      :     1.087575  p :     3.090916
      px      :     0.992149
      py      :     1.011191
      dz2     :     0.025537  d :     0.083837
      dxz     :     0.012540
      dyz     :     0.017856
      dx2y2   :     0.013420
      dxy     :     0.014484

 18 C s       :     2.887681  s :     2.887681
      pz      :     1.043842  p :     3.043927
      px      :     1.013972
      py      :     0.986113
      dz2     :     0.019173  d :     0.132880
      dxz     :     0.033021
      dyz     :     0.029449
      dx2y2   :     0.016613
      dxy     :     0.034625

 19 C s       :     2.880942  s :     2.880942
      pz      :     1.007218  p :     2.757065
      px      :     0.824875
      py      :     0.924972
      dz2     :     0.069798  d :     0.229956
      dxz     :     0.030951
      dyz     :     0.056719
      dx2y2   :     0.037630
      dxy     :     0.034857

 20 N s       :     3.216836  s :     3.216836
      pz      :     1.238553  p :     4.140374
      px      :     1.649639
      py      :     1.252182
      dz2     :     0.010646  d :     0.049248
      dxz     :     0.003852
      dyz     :     0.020229
      dx2y2   :     0.007481
      dxy     :     0.007040

 21 O s       :     3.592230  s :     3.592230
      pz      :     1.516720  p :     4.628893
      px      :     1.474812
      py      :     1.637361
      dz2     :     0.015669  d :     0.050768
      dxz     :     0.008795
      dyz     :     0.018307
      dx2y2   :     0.003965
      dxy     :     0.004032

 22 C s       :     2.879244  s :     2.879244
      pz      :     1.040167  p :     3.045030
      px      :     1.020739
      py      :     0.984124
      dz2     :     0.027870  d :     0.100035
      dxz     :     0.032500
      dyz     :     0.014968
      dx2y2   :     0.011809
      dxy     :     0.012888

 23 C s       :     2.919403  s :     2.919403
      pz      :     1.085078  p :     3.119619
      px      :     1.045304
      py      :     0.989236
      dz2     :     0.025225  d :     0.083739
      dxz     :     0.023042
      dyz     :     0.008172
      dx2y2   :     0.013592
      dxy     :     0.013708

 24 C s       :     2.917080  s :     2.917080
      pz      :     1.070703  p :     3.118810
      px      :     1.057164
      py      :     0.990943
      dz2     :     0.026995  d :     0.085329
      dxz     :     0.026990
      dyz     :     0.015193
      dx2y2   :     0.007192
      dxy     :     0.008960

 25 C s       :     2.917176  s :     2.917176
      pz      :     1.073706  p :     3.125543
      px      :     1.056495
      py      :     0.995342
      dz2     :     0.022045  d :     0.085430
      dxz     :     0.031026
      dyz     :     0.013400
      dx2y2   :     0.009610
      dxy     :     0.009349

 26 C s       :     2.916974  s :     2.916974
      pz      :     1.071032  p :     3.129216
      px      :     1.058994
      py      :     0.999189
      dz2     :     0.025734  d :     0.085475
      dxz     :     0.023756
      dyz     :     0.007848
      dx2y2   :     0.013946
      dxy     :     0.014192

 27 C s       :     2.918150  s :     2.918150
      pz      :     1.059974  p :     3.133970
      px      :     1.059247
      py      :     1.014750
      dz2     :     0.026429  d :     0.084752
      dxz     :     0.027232
      dyz     :     0.015075
      dx2y2   :     0.007477
      dxy     :     0.008538

 28 C s       :     2.919658  s :     2.919658
      pz      :     1.084321  p :     3.142976
      px      :     1.024111
      py      :     1.034544
      dz2     :     0.024261  d :     0.079134
      dxz     :     0.007588
      dyz     :     0.020696
      dx2y2   :     0.013111
      dxy     :     0.013479

 29 H s       :     0.886269  s :     0.886269

 30 H s       :     0.865240  s :     0.865240

 31 H s       :     0.884843  s :     0.884843

 32 H s       :     0.867271  s :     0.867271

 33 H s       :     0.869468  s :     0.869468

 34 H s       :     0.875694  s :     0.875694

 35 H s       :     0.881065  s :     0.881065

 36 H s       :     0.880967  s :     0.880967

 37 H s       :     0.879583  s :     0.879583

 38 H s       :     0.853377  s :     0.853377

 39 H s       :     0.858138  s :     0.858138

 40 H s       :     0.869651  s :     0.869651

 41 H s       :     0.869694  s :     0.869694

 42 H s       :     0.867803  s :     0.867803

 43 H s       :     0.851305  s :     0.851305

 44 H s       :     0.863750  s :     0.863750

 45 H s       :     0.751255  s :     0.751255

 46 H s       :     0.735399  s :     0.735399

 47 H s       :     0.854639  s :     0.854639

 48 H s       :     0.865820  s :     0.865820

 49 H s       :     0.868842  s :     0.868842

 50 H s       :     0.869230  s :     0.869230

 51 H s       :     0.872989  s :     0.872989

 52 H s       :     0.847095  s :     0.847095



                      *****************************
                      * MAYER POPULATION ANALYSIS *
                      *****************************

  NA   - Mulliken gross atomic population
  ZA   - Total nuclear charge
  QA   - Mulliken gross atomic charge
  VA   - Mayer's total valence
  BVA  - Mayer's bonded valence
  FA   - Mayer's free valence

  ATOM       NA         ZA         QA         VA         BVA        FA
  0 C      6.1924     6.0000    -0.1924     3.7762     3.7762    -0.0000
  1 O      8.5091     8.0000    -0.5091     1.9733     1.9733     0.0000
  2 C      5.6304     6.0000     0.3696     3.8278     3.8278     0.0000
  3 C      6.2013     6.0000    -0.2013     3.8916     3.8916     0.0000
  4 C      6.1231     6.0000    -0.1231     3.9510     3.9510     0.0000
  5 C      6.1846     6.0000    -0.1846     3.9357     3.9357     0.0000
  6 C      5.8712     6.0000     0.1288     3.9556     3.9556    -0.0000
  7 C      6.0320     6.0000    -0.0320     3.9313     3.9313    -0.0000
  8 C      6.4433     6.0000    -0.4433     3.7908     3.7908    -0.0000
  9 N      7.4368     7.0000    -0.4368     2.9001     2.9001     0.0000
 10 C      5.5374     6.0000     0.4626     3.9192     3.9192    -0.0000
 11 O      8.4176     8.0000    -0.4176     2.0462     2.0462     0.0000
 12 C      5.8968     6.0000     0.1032     3.9047     3.9047     0.0000
 13 C      6.1365     6.0000    -0.1365     3.9032     3.9032    -0.0000
 14 C      6.1303     6.0000    -0.1303     3.9423     3.9423     0.0000
 15 C      6.1191     6.0000    -0.1191     3.9423     3.9423     0.0000
 16 C      6.1354     6.0000    -0.1354     3.9215     3.9215    -0.0000
 17 C      6.1500     6.0000    -0.1500     3.9151     3.9151    -0.0000
 18 C      6.1538     6.0000    -0.1538     3.8530     3.8530    -0.0000
 19 C      5.4261     6.0000     0.5739     3.8314     3.8314     0.0000
 20 N      7.7674     7.0000    -0.7674     2.8324     2.8324     0.0000
 21 O      8.4627     8.0000    -0.4627     2.0635     2.0635    -0.0000
 22 C      5.8403     6.0000     0.1597     3.9289     3.9289    -0.0000
 23 C      6.1698     6.0000    -0.1698     3.9137     3.9137    -0.0000
 24 C      6.1209     6.0000    -0.1209     3.9458     3.9458     0.0000
 25 C      6.1229     6.0000    -0.1229     3.9505     3.9505    -0.0000
 26 C      6.1287     6.0000    -0.1287     3.9475     3.9475    -0.0000
 27 C      6.1844     6.0000    -0.1844     3.9425     3.9425     0.0000
 28 C      6.2113     6.0000    -0.2113     3.8804     3.8804     0.0000
 29 H      0.8579     1.0000     0.1421     0.9314     0.9314    -0.0000
 30 H      0.8318     1.0000     0.1682     0.9312     0.9312    -0.0000
 31 H      0.8547     1.0000     0.1453     0.9302     0.9302     0.0000
 32 H      0.8727     1.0000     0.1273     0.9424     0.9424     0.0000
 33 H      0.8747     1.0000     0.1253     0.9379     0.9379     0.0000
 34 H      0.8861     1.0000     0.1139     0.9431     0.9431    -0.0000
 35 H      0.8729     1.0000     0.1271     0.9329     0.9329    -0.0000
 36 H      0.8705     1.0000     0.1295     0.9414     0.9414    -0.0000
 37 H      0.8667     1.0000     0.1333     0.9393     0.9393     0.0000
 38 H      0.8086     1.0000     0.1914     0.9425     0.9425    -0.0000
 39 H      0.8581     1.0000     0.1419     0.9554     0.9554     0.0000
 40 H      0.8745     1.0000     0.1255     0.9384     0.9384     0.0000
 41 H      0.8737     1.0000     0.1263     0.9360     0.9360     0.0000
 42 H      0.8704     1.0000     0.1296     0.9368     0.9368     0.0000
 43 H      0.8415     1.0000     0.1585     0.9418     0.9418    -0.0000
 44 H      0.8581     1.0000     0.1419     0.9380     0.9380    -0.0000
 45 H      0.6715     1.0000     0.3285     0.8631     0.8631    -0.0000
 46 H      0.6498     1.0000     0.3502     0.8590     0.8590     0.0000
 47 H      0.8411     1.0000     0.1589     0.9451     0.9451    -0.0000
 48 H      0.8665     1.0000     0.1335     0.9366     0.9366     0.0000
 49 H      0.8725     1.0000     0.1275     0.9365     0.9365     0.0000
 50 H      0.8730     1.0000     0.1270     0.9367     0.9367    -0.0000
 51 H      0.8792     1.0000     0.1208     0.9398     0.9398    -0.0000
 52 H      0.8383     1.0000     0.1617     0.9448     0.9448     0.0000

  Mayer bond orders larger than 0.100000
B(  0-C ,  1-O ) :   0.9250 B(  0-C , 29-H ) :   0.9308 B(  0-C , 30-H ) :   0.9453 
B(  0-C , 31-H ) :   0.9306 B(  1-O ,  2-C ) :   0.9173 B(  2-C ,  3-C ) :   1.3689 
B(  2-C , 28-C ) :   1.3760 B(  3-C ,  4-C ) :   1.4416 B(  3-C , 32-H ) :   0.9194 
B(  4-C ,  5-C ) :   1.4403 B(  4-C , 33-H ) :   0.9298 B(  5-C ,  6-C ) :   1.4125 
B(  5-C , 34-H ) :   0.9245 B(  6-C ,  7-C ) :   0.9882 B(  6-C , 28-C ) :   1.4266 
B(  7-C ,  8-C ) :   0.9815 B(  7-C ,  9-N ) :   0.9494 B(  7-C , 35-H ) :   0.9220 
B(  8-C , 36-H ) :   0.9461 B(  8-C , 37-H ) :   0.9404 B(  8-C , 38-H ) :   0.9261 
B(  9-N , 10-C ) :   0.9197 B(  9-N , 18-C ) :   0.9952 B( 10-C , 11-O ) :   1.8536 
B( 10-C , 12-C ) :   1.0033 B( 12-C , 13-C ) :   1.3907 B( 12-C , 17-C ) :   1.3838 
B( 13-C , 14-C ) :   1.4359 B( 13-C , 39-H ) :   0.9038 B( 14-C , 15-C ) :   1.4485 
B( 14-C , 40-H ) :   0.9306 B( 15-C , 16-C ) :   1.4343 B( 15-C , 41-H ) :   0.9311 
B( 16-C , 17-C ) :   1.4400 B( 16-C , 42-H ) :   0.9309 B( 17-C , 43-H ) :   0.9151 
B( 18-C , 19-C ) :   0.8966 B( 18-C , 22-C ) :   0.9539 B( 18-C , 44-H ) :   0.9041 
B( 19-C , 20-N ) :   1.0628 B( 19-C , 21-O ) :   1.8432 B( 20-N , 45-H ) :   0.8325 
B( 20-N , 46-H ) :   0.8228 B( 22-C , 23-C ) :   1.4277 B( 22-C , 27-C ) :   1.4188 
B( 23-C , 24-C ) :   1.4324 B( 23-C , 47-H ) :   0.9095 B( 24-C , 25-C ) :   1.4557 
B( 24-C , 48-H ) :   0.9292 B( 25-C , 26-C ) :   1.4486 B( 25-C , 49-H ) :   0.9304 
B( 26-C , 27-C ) :   1.4447 B( 26-C , 50-H ) :   0.9295 B( 27-C , 51-H ) :   0.9259 
B( 28-C , 52-H ) :   0.9044 

-------
TIMINGS
-------

Total SCF time: 0 days 0 hours 5 min 45 sec 

Total time                  ....     345.123 sec
Sum of individual times     ....     344.606 sec  ( 99.9%)

SCF preparation             ....       0.313 sec  (  0.1%)
Fock matrix formation       ....     342.439 sec  ( 99.2%)
  Startup                   ....       0.093 sec  (  0.0% of F)
  Split-RI-J                ....      44.520 sec  ( 13.0% of F)
  Chain of spheres X        ....     264.840 sec  ( 77.3% of F)
  XC integration            ....      32.227 sec  (  9.4% of F)
    XC Preparation          ....       0.000 sec  (  0.0% of XC)
    Basis function eval.    ....      12.699 sec  ( 39.4% of XC)
    Density eval.           ....       7.974 sec  ( 24.7% of XC)
    XC-Functional eval.     ....       1.309 sec  (  4.1% of XC)
    XC-Potential eval.      ....       8.604 sec  ( 26.7% of XC)
Diagonalization             ....       0.000 sec  (  0.0%)
Density matrix formation    ....       0.312 sec  (  0.1%)
Total Energy calculation    ....       0.071 sec  (  0.0%)
Population analysis         ....       0.061 sec  (  0.0%)
Orbital Transformation      ....       0.280 sec  (  0.1%)
Orbital Orthonormalization  ....       0.000 sec  (  0.0%)
DIIS solution               ....       0.666 sec  (  0.2%)
SOSCF solution              ....       0.466 sec  (  0.1%)
Finished LeanSCF after 345.2 sec

Maximum memory used throughout the entire LEANSCF-calculation: 85.9 MB

-------------------------   --------------------
FINAL SINGLE POINT ENERGY     -1263.350721877206
-------------------------   --------------------


------------------------------------------------------------------------------
                              ORCA PROPERTY CALCULATIONS
------------------------------------------------------------------------------

GBWName                                 ... /home/nmrbox/aojoawo/Documents/ERDOS/inputs/CHEMBL3917717.gbw
Number of atoms                         ...     53
Number of basis functions               ...    454
Max core memory                         ...   1024 MB

Electric properties:
Dipole moment                           ... YES
Quadrupole moment                       ...  NO
Static polarizability (Dipole/Dipole)   ...  NO
Static polarizability (Dipole/Quad.)    ...  NO
Static polarizability (Quad./Quad.)     ...  NO
Static polarizability (Velocity)        ...  NO

Atomic electric properties:
Dipole moment                           ...  NO
Quadrupole moment                       ...  NO
Static polarizability                   ...  NO

Choice of electric origin               ... Center of mass
Position of electric origin             ...    -0.169747    -0.090246     0.328779

General magnetic properties:
Magnetizability                         ...  NO

EPR properties:
g-Tensor (aka g-matrix)                 ...  NO
Zero-Field splitting spin-orbit         ...  NO
Zero-field splitting spin-spin          ...  NO
Hyperfine couplings                     ...  NO (   0 nuclei)
Quadrupole couplings                    ...  NO (   0 nuclei)
Contact density                         ...  NO (   0 nuclei)

NMR properties:
Chemical shifts                         ...  NO (   0 nuclei)
Spin-rotation constants                 ...  NO (   0 nuclei)
Spin-spin couplings                     ...  NO (   0 nuclei,    0 pairs)

Choice of magnetic origin               ... GIAO
Position of magnetic origin             ...     0.000000     0.000000     0.000000

Properties with geometric perturbations:
SCF Hessian                             ...  NO
IR spectrum                             ...  NO
VCD spectrum                            ...  NO
X-ray spectroscopy properties:
SCF XES/XAS/RIXS spectra                ...  NO


-------------
DIPOLE MOMENT
-------------

Method             : SCF
Type of density    : Electron Density
Multiplicity       :   1
Irrep              :   0
Energy             : -1263.3507218772062970 Eh
Relativity type    : 
Basis              : AO
                                X                 Y                 Z
Electronic contribution:     -6.071027142      -2.366359725       4.873187737
Nuclear contribution   :      5.669683474       1.935319576      -6.920989030
                        -----------------------------------------
Total Dipole Moment    :     -0.401343668      -0.431040149      -2.047801293
                        -----------------------------------------
Magnitude (a.u.)       :      2.130812635
Magnitude (Debye)      :      5.416095295



--------------------
Rotational spectrum 
--------------------
 
Rotational constants in cm-1:             0.008208             0.004492             0.003850 
Rotational constants in MHz :           246.062265           134.675555           115.407774 

Dipole components along the rotational axes: 
x,y,z [a.u.] :    -0.760392     0.806244    -1.819928 
x,y,z [Debye]:    -1.932762     2.049309    -4.625889 

 

Dipole moment calculation done in   0.0 sec 

Maximum memory used throughout the entire PROP-calculation: 41.3 MB

--------------------------------
SUGGESTED CITATIONS FOR THIS RUN
--------------------------------

Below you find a list of papers that are relevant to this ORCA run
We neither can nor want to force you to cite these papers, but we appreciate if you do
You receive ORCA, which is the product of decades of hard work by many enthusiastic individuals, for free
The only thing we kindly ask in return is that you cite our papers,
We deeply appreciate it, if you show your appreciation for ORCA by not just citing the generic ORCA reference.

Please note that relegating all ORCA citations to the supporting information does *not* help us.
SI sections are not indexed - citations you put there will not count into any citation statistics
But we need these citations in order to attract the funding resources that allow us to do what we are doing

Therefore, if you are a happy ORCA user, please consider citing a few of the papers listed below in the main body of your paper

In addition to the list printed below, the program has created the file /home/nmrbox/aojoawo/Documents/ERDOS/inputs/CHEMBL3917717.bibtex that contains the list in bibtex format
You can import this file easily into all common literature databanks and citation aid programs


List of essential papers. We consider these as the minimum necessary citations

  1. Neese,F.
     Software update: the ORCA program system, version 5.0
     WIRES Comput. Molec. Sci., 2022 12(1)e1606
     doi.org/10.1002/wcms.1606

List of papers to cite with high priority. The work reported in these papers was absolutely
necessary for this run to complete.
Our perspective: the developers of density functionals and basis sets usually get cited in chemistry papers
Good! But without the algorithms to do something with them, the functionals or basis sets would not do anything.
Hence, in our opinion, the algorithm design and method developments papers are equally worthy of getting cited

  1. Neese,F.
     An improvement of the resolution of the identity approximation for the formation of the Coulomb matrix
     J. Comp. Chem., 2003 24(14)1740-1747
     doi.org/10.1002/jcc.10318
  2. Neese,F.; Wennmohs,F.; Hansen,A.; Becker,U.
     Efficient, approximate and parallel Hartree-Fock and hybrid DFT calculations. A 'chain-of-spheres' algorithm for the Hartree-Fock exchange
     Chem. Phys., 2009 356(1-3)98-109
     doi.org/10.1016/j.chemphys.2008.10.036
  3. Helmich-Paris,B.; de Souza,B.; Neese,F.; Izsák,R.
     An improved chain of spheres for exchange algorithm
     J. Chem. Phys., 2021 155 104109
     doi.org/doi: 10.1063/5.0058766.
  4. Neese,F.
     The SHARK Integral Generation and Digestion System
     J. Comp. Chem., 2022  1-16
     doi.org/10.1002/jcc.26942

List of suggested additional citations. These are papers that are important in the 'surrounding' of 
of this run, or papers that preceded the highly important papers. If you like your results we are grateful for a citation.

  1. Izsak,R.; Neese,F.
     An overlap fitted chain of spheres exchange method
     J. Chem. Phys., 2011 135 144105
     doi.org/10.1063/1.3646921
  2. Izsak,R.; Hansen,A.; Neese,F.
     The resolution of identity and chain of spheres approximations for the LPNO-CCSD singles Fock term
     Molec. Phys., 2012 110 2413-2417
     doi.org/10.1080/00268976.2012.687466
  3. Neese,F.
     The ORCA program system
     WIRES Comput. Molec. Sci., 2012 2(1)73-78
     doi.org/10.1002/wcms.81
  4. Izsak,R.; Neese,F.; Klopper,W.
     Robust fitting techniques in the chain of spheres approximation to the Fock exchange: The role of the complementary space
     J. Chem. Phys., 2013 139 
     doi.org/10.1063/1.4819264
  5. Neese,F.
     Software update: the ORCA program system, version 4.0
     WIRES Comput. Molec. Sci., 2018 8(1)1-6
     doi.org/10.1002/wcms.1327
  6. Neese,F.; Wennmohs,F.; Becker,U.; Riplinger,C.
     The ORCA quantum chemistry program package
     J. Chem. Phys., 2020 152 Art. No. L224108
     doi.org/10.1063/5.0004608

List of optional additional citations

  1. Neese,F.
     Approximate second-order SCF convergence for spin unrestricted wavefunctions
     Chem. Phys. Lett., 2000 325(1-3)93-98
     doi.org/10.1016/s0009-2614(00)00662-x

Timings for individual modules:

Sum of individual times          ...      359.804 sec (=   5.997 min)
Startup calculation              ...        9.574 sec (=   0.160 min)   2.7 %
SCF iterations                   ...      350.037 sec (=   5.834 min)  97.3 %
Property calculations            ...        0.192 sec (=   0.003 min)   0.1 %
                             ****ORCA TERMINATED NORMALLY****
TOTAL RUN TIME: 0 days 0 hours 6 minutes 0 seconds 486 msec
