
                                 *****************
                                 * O   R   C   A *
                                 *****************

                                            #,                                       
                                            ###                                      
                                            ####                                     
                                            #####                                    
                                            ######                                   
                                           ########,                                 
                                     ,,################,,,,,                         
                               ,,#################################,,                 
                          ,,##########################################,,             
                       ,#########################################, ''#####,          
                    ,#############################################,,   '####,        
                  ,##################################################,,,,####,       
                ,###########''''           ''''###############################       
              ,#####''   ,,,,##########,,,,          '''####'''          '####       
            ,##' ,,,,###########################,,,                        '##       
           ' ,,###''''                  '''############,,,                           
         ,,##''                                '''############,,,,        ,,,,,,###''
      ,#''                                            '''#######################'''  
     '                                                          ''''####''''         
             ,#######,   #######,   ,#######,      ##                                
            ,#'     '#,  ##    ##  ,#'     '#,    #''#        ,####,   ,####,        
            ##       ##  ##   ,#'  ##            #'  '#       #'       #'  '#        
            ##       ##  #######   ##           ,######,      #####,   #    #        
            '#,     ,#'  ##    ##  '#,     ,#' ,#      #,     #,   #   #,  ,#        
             '#######'   ##     ##  '#######'  #'      '#     '####' # '####'        



                #########################################################
                #                        -***-                          #
                #          Department of theory and spectroscopy        #
                #                                                       #
                #                      Frank Neese                      #
                #                                                       #
                #     Directorship, Architecture, Infrastructure        #
                #                    SHARK, DRIVERS                     #
                #        Core code/Algorithms in most modules           #
                #                                                       #
                #        Max Planck Institute fuer Kohlenforschung      #
                #                Kaiser Wilhelm Platz 1                 #
                #                 D-45470 Muelheim/Ruhr                 #
                #                      Germany                          #
                #                                                       #
                #                  All rights reserved                  #
                #                        -***-                          #
                #########################################################


                         Program Version 6.0.0  -   RELEASE  -


 With contributions from (in alphabetic order):
   Daniel Aravena         : Magnetic Suceptibility
   Michael Atanasov       : Ab Initio Ligand Field Theory (pilot matlab implementation)
   Alexander A. Auer      : GIAO ZORA, VPT2 properties, NMR spectrum
   Ute Becker             : All parallelization in ORCA, NUMFREQ, NUMCALC
   Giovanni Bistoni       : ED, misc. LED, open-shell LED, HFLD
   Martin Brehm           : Molecular dynamics
   Dmytro Bykov           : pre 5.0 version of the SCF Hessian
   Marcos Casanova-Páez   : Triplet and SCS-CIS(D). UHF-(DLPNO)-IP/EA/STEOM-CCSD. UHF-CVS-IP/STEOM-CCSD
   Vijay G. Chilkuri      : MRCI spin determinant printing, contributions to CSF-ICE
   Pauline Colinet        : FMM embedding
   Dipayan Datta          : RHF DLPNO-CCSD density
   Achintya Kumar Dutta   : EOM-CC, STEOM-CC
   Nicolas Foglia         : Exact transition moments, OPA infrastructure, MCD improvements
   Dmitry Ganyushin       : Spin-Orbit,Spin-Spin,Magnetic field MRCI
   Miquel Garcia          : C-PCM and meta-GGA Hessian, CCSD/C-PCM, Gaussian charge scheme
   Tiago L. C. Gouveia    : GS-ROHF, GS-ROCIS
   Yang Guo               : DLPNO-NEVPT2, F12-NEVPT2, CIM, IAO-localization
   Andreas Hansen         : Spin unrestricted coupled pair/coupled cluster methods
   Ingolf Harden          : AUTO-CI MPn and infrastructure 
   Benjamin Helmich-Paris : MC-RPA, TRAH-(SCF,CASSCF), AVAS, COSX integrals, SCF dyn. polar.
   Lee Huntington         : MR-EOM, pCC
   Robert Izsak           : Overlap fitted RIJCOSX, COSX-SCS-MP3, EOM
   Riya Kayal             : Wick's Theorem for AUTO-CI, AUTO-CI UHF-CCSDT
   Emily Kempfer          : AUTO-CI, RHF CISDT and CCSDT
   Christian Kollmar      : KDIIS, OOCD, Brueckner-CCSD(T), CCSD density, CASPT2, CASPT2-K, improved NEVPT2
   Axel Koslowski         : Symmetry handling
   Simone Kossmann        : Meta GGA functionals, TD-DFT gradient, OOMP2, (MP2 Hessian; deprecated post 5.0)
   Lucas Lang             : DCDCAS
   Marvin Lechner         : AUTO-CI (C++ implementation), FIC-MRCC
   Spencer Leger          : CASSCF response
   Dagmar Lenk            : GEPOL surface, SMD, ORCA-2-JSON
   Dimitrios Liakos       : Extrapolation schemes; Compound Job, initial MDCI parallelization
   Dimitrios Manganas     : Further ROCIS development; embedding schemes. LFT, Crystal Embedding
   Dimitrios Pantazis     : SARC Basis sets
   Anastasios Papadopoulos: AUTO-CI, single reference methods and gradients
   Taras Petrenko         : pre 6.0 DFT Hessian and TD-DFT gradient, (ASA, deprecated), ECA, 1-Electron XAS/XES, NRVS
   Peter Pinski           : DLPNO-MP2, DLPNO-MP2 Gradient
   Christoph Reimann      : Effective Core Potentials
   Marius Retegan         : Local ZFS, SOC
   Christoph Riplinger    : Optimizer, TS searches, QM/MM, DLPNO-CCSD(T), (RO)-DLPNO pert. Triples
   Michael Roemelt        : Original ROCIS implementation
   Masaaki Saitow         : Open-shell DLPNO-CCSD energy and density
   Barbara Sandhoefer     : DKH picture change effects
   Kantharuban Sivalingam : CASSCF convergence/infrastructure, NEVPT2 and variants, FIC-MRCI
   Bernardo de Souza      : ESD, SOC TD-DFT
   Georgi Stoychev        : AutoAux, RI-MP2 NMR, DLPNO-MP2 response, X2C
   Van Anh Tran           : RI-MP2 g-tensors
   Willem Van den Heuvel  : Paramagnetic NMR
   Zikuan Wang            : NOTCH, Electric field optimization 
   Frank Wennmohs         : Technical directorship and infrastructure
   Hang Xu                : AUTO-CI-Response properties 


 We gratefully acknowledge several colleagues who have allowed us to
 interface, adapt or use parts of their codes:
   Stefan Grimme, W. Hujo, H. Kruse, P. Pracht,  : VdW corrections, initial TS optimization,
                  C. Bannwarth, S. Ehlert,         DFT functionals, gCP, sTDA/sTD-DF
                  L. Wittmann, M. Mueller
   Ed Valeev, F. Pavosevic, A. Kumar             : LibInt (2-el integral package), F12 methods
   Garnet Chan, S. Sharma, J. Yang, R. Olivares  : DMRG
   Ulf Ekstrom                                   : XCFun DFT Library
   Mihaly Kallay                                 : mrcc  (arbitrary order and MRCC methods)
   Frank Weinhold                                : gennbo (NPA and NBO analysis)
   Simon Mueller                                 : openCOSMO-RS
   Christopher J. Cramer and Donald G. Truhlar   : smd solvation model
   Lars Goerigk                                  : TD-DFT with DH, B97 family of functionals
   V. Asgeirsson, H. Jonsson                     : NEB implementation
   FAccTs GmbH                                   : IRC, NEB, NEB-TS, DLPNO-Multilevel, CI-OPT
                                                   MM, QMMM, 2- and 3-layer-ONIOM, Crystal-QMMM,
                                                   LR-CPCM, SF, NACMEs, symmetry and pop. for TD-DFT,
                                                   nearIR, NL-DFT gradient (VV10), updates on ESD,
                                                   ML-optimized integration grids, MBIS, APM,
                                                   GOAT, DOCKER, SOLVATOR, interface openCOSMO-RS
   S Lehtola, MJT Oliveira, MAL Marques          : LibXC Library
   Liviu Ungur et al                             : ANISO software


 Your calculation uses the libint2 library for the computation of 2-el integrals
 For citations please refer to: http://libint.valeyev.net

 Your ORCA version has been built with support for libXC version: 6.2.2
 For citations please refer to: https://libxc.gitlab.io

 This ORCA versions uses:
   CBLAS   interface :  Fast vector & matrix operations
   LAPACKE interface :  Fast linear algebra routines
   SCALAPACK package :  Parallel linear algebra routines
   Shared memory     :  Shared parallel matrices
   BLAS/LAPACK       :  OpenBLAS 0.3.27  USE64BITINT DYNAMIC_ARCH NO_AFFINITY SkylakeX SINGLE_THREADED
        Core in use  :  SkylakeX
   Copyright (c) 2011-2014, The OpenBLAS Project


Warning: RI is on but no J-basis has been assigned. Assigning Def2/J (nothing to worry about!)
================================================================================

----- Orbital basis set information -----
Your calculation utilizes the basis: 6-31G*
   H-He, Li-Ne : W. J. Hehre, R. Ditchfield and J.A. Pople, J. Chem. Phys. 56, 2257 (1972).
                 Note: He and Ne are unpublished basis sets taken from the Gaussian program.
                 Note: Li and B from J. D. Dill and J. A. Pople, J. Chem. Phys. 62, 2921 (1975).
   Na - Ar     : M. M. Francl, W. J. Pietro, W. J. Hehre, J. S. Binkley, M. S. Gordon, 
                 D. J. DeFrees and J. A. Pople, J. Chem. Phys. 77, 3654 (1982).
   K - Zn      : V. A. Rassolov, J. A. Pople, M. A. Ratner, and T. L. Windus, J. Chem. Phys. 109, 1223 (1998).

----- AuxJ basis set information -----
Your calculation utilizes the auxiliary basis: def2/J
   F. Weigend, Phys. Chem. Chem. Phys. 8, 1057 (2006).

================================================================================
                                        WARNINGS
                       Please study these warnings very carefully!
================================================================================


================================================================================
                                       INPUT FILE
================================================================================
NAME = /home/nmrbox/aojoawo/Documents/ERDOS/inputs/CHEMBL3945471.inp
|  1> ! B3LYP 6-31G* SP
|  2> 
|  3> * xyz 0 1
|  4> C -4.0701 1.9804 -1.8012
|  5> N -4.1354 0.9277 -0.7713
|  6> C -3.3763 1.0407 0.3718
|  7> O -2.6276 2.0404 0.5430
|  8> C -3.4453 0.0348 1.3430
|  9> C -2.7924 -0.0546 2.6094
| 10> C -1.8103 0.9460 3.1499
| 11> C -0.4499 0.6914 2.5762
| 12> O 0.0093 1.4705 1.6985
| 13> N 0.3095 -0.4442 3.0187
| 14> C 1.5330 -0.8715 2.4073
| 15> N 2.0611 -0.3132 1.2972
| 16> C 3.2130 -0.9313 0.9118
| 17> C 3.9698 -0.4952 -0.2902
| 18> C 5.3464 -0.7623 -0.4049
| 19> C 6.0612 -0.3523 -1.5326
| 20> C 5.4198 0.3446 -2.5710
| 21> C 6.1753 0.7749 -3.8058
| 22> F 5.7392 0.0363 -4.8904
| 23> F 7.5398 0.5871 -3.6615
| 24> F 5.9450 2.1169 -4.0511
| 25> C 4.0420 0.6056 -2.4657
| 26> F 3.3878 1.2510 -3.4661
| 27> C 3.3248 0.1983 -1.3348
| 28> F 1.9937 0.4571 -1.2817
| 29> C 3.5976 -1.9990 1.7300
| 30> S 2.4575 -2.1604 2.9565
| 31> N -3.0708 -1.1827 3.3232
| 32> S -4.1358 -2.0692 2.3994
| 33> C -4.2512 -1.0505 1.0874
| 34> N -4.9624 -1.2047 -0.0608
| 35> C -5.7984 -2.3986 -0.2545
| 36> C -4.9072 -0.1959 -0.9932
| 37> O -5.5691 -0.2980 -2.0651
| 38> H -5.0497 2.0994 -2.3142
| 39> H -3.8319 2.9709 -1.3582
| 40> H -3.2935 1.7200 -2.5517
| 41> H -1.7560 0.8502 4.2560
| 42> H -2.1446 1.9839 2.9433
| 43> H -0.0595 -1.0078 3.8173
| 44> H 5.8821 -1.2747 0.3839
| 45> H 7.1181 -0.5813 -1.5854
| 46> H 4.4587 -2.6397 1.5953
| 47> H -6.0972 -2.5308 -1.3154
| 48> H -6.7132 -2.3176 0.3706
| 49> H -5.2370 -3.3124 0.0372
| 50> *
| 51> 
| 52>                          ****END OF INPUT****
================================================================================

                       ****************************
                       * Single Point Calculation *
                       ****************************

---------------------------------
CARTESIAN COORDINATES (ANGSTROEM)
---------------------------------
  C     -4.070100    1.980400   -1.801200
  N     -4.135400    0.927700   -0.771300
  C     -3.376300    1.040700    0.371800
  O     -2.627600    2.040400    0.543000
  C     -3.445300    0.034800    1.343000
  C     -2.792400   -0.054600    2.609400
  C     -1.810300    0.946000    3.149900
  C     -0.449900    0.691400    2.576200
  O      0.009300    1.470500    1.698500
  N      0.309500   -0.444200    3.018700
  C      1.533000   -0.871500    2.407300
  N      2.061100   -0.313200    1.297200
  C      3.213000   -0.931300    0.911800
  C      3.969800   -0.495200   -0.290200
  C      5.346400   -0.762300   -0.404900
  C      6.061200   -0.352300   -1.532600
  C      5.419800    0.344600   -2.571000
  C      6.175300    0.774900   -3.805800
  F      5.739200    0.036300   -4.890400
  F      7.539800    0.587100   -3.661500
  F      5.945000    2.116900   -4.051100
  C      4.042000    0.605600   -2.465700
  F      3.387800    1.251000   -3.466100
  C      3.324800    0.198300   -1.334800
  F      1.993700    0.457100   -1.281700
  C      3.597600   -1.999000    1.730000
  S      2.457500   -2.160400    2.956500
  N     -3.070800   -1.182700    3.323200
  S     -4.135800   -2.069200    2.399400
  C     -4.251200   -1.050500    1.087400
  N     -4.962400   -1.204700   -0.060800
  C     -5.798400   -2.398600   -0.254500
  C     -4.907200   -0.195900   -0.993200
  O     -5.569100   -0.298000   -2.065100
  H     -5.049700    2.099400   -2.314200
  H     -3.831900    2.970900   -1.358200
  H     -3.293500    1.720000   -2.551700
  H     -1.756000    0.850200    4.256000
  H     -2.144600    1.983900    2.943300
  H     -0.059500   -1.007800    3.817300
  H      5.882100   -1.274700    0.383900
  H      7.118100   -0.581300   -1.585400
  H      4.458700   -2.639700    1.595300
  H     -6.097200   -2.530800   -1.315400
  H     -6.713200   -2.317600    0.370600
  H     -5.237000   -3.312400    0.037200

----------------------------
CARTESIAN COORDINATES (A.U.)
----------------------------
  NO LB      ZA    FRAG     MASS         X           Y           Z
   0 C     6.0000    0    12.011   -7.691374    3.742414   -3.403775
   1 N     7.0000    0    14.007   -7.814773    1.753099   -1.457546
   2 C     6.0000    0    12.011   -6.380282    1.966638    0.702600
   3 O     8.0000    0    15.999   -4.965444    3.855797    1.026121
   4 C     6.0000    0    12.011   -6.510673    0.065762    2.537902
   5 C     6.0000    0    12.011   -5.276871   -0.103179    4.931051
   6 C     6.0000    0    12.011   -3.420971    1.787681    5.952448
   7 C     6.0000    0    12.011   -0.850188    1.306557    4.868312
   8 O     8.0000    0    15.999    0.017574    2.778842    3.209700
   9 N     7.0000    0    14.007    0.584870   -0.839416    5.704516
  10 C     6.0000    0    12.011    2.896950   -1.646896    4.549138
  11 N     7.0000    0    14.007    3.894915   -0.591862    2.451353
  12 C     6.0000    0    12.011    6.071690   -1.759902    1.723052
  13 C     6.0000    0    12.011    7.501835   -0.935792   -0.548399
  14 C     6.0000    0    12.011   10.103232   -1.440538   -0.765150
  15 C     6.0000    0    12.011   11.454008   -0.665751   -2.896194
  16 C     6.0000    0    12.011   10.241938    0.651200   -4.858486
  17 C     6.0000    0    12.011   11.669626    1.464349   -7.191920
  18 F     9.0000    0    18.998   10.845516    0.068597   -9.241517
  19 F     9.0000    0    18.998   14.248157    1.109458   -6.919232
  20 F     9.0000    0    18.998   11.234422    4.000361   -7.655470
  21 C     6.0000    0    12.011    7.638273    1.144418   -4.659498
  22 F     9.0000    0    18.998    6.402014    2.364047   -6.549980
  23 C     6.0000    0    12.011    6.282961    0.374733   -2.522406
  24 F     9.0000    0    18.998    3.767547    0.863794   -2.422062
  25 C     6.0000    0    12.011    6.798479   -3.777563    3.269226
  26 S    16.0000    0    32.060    4.644002   -4.082564    5.586975
  27 N     7.0000    0    14.007   -5.802971   -2.234979    6.279938
  28 S    16.0000    0    32.060   -7.815529   -3.910221    4.534209
  29 C     6.0000    0    12.011   -8.033604   -1.985157    2.054888
  30 N     7.0000    0    14.007   -9.377577   -2.276553   -0.114895
  31 C     6.0000    0    12.011  -10.957388   -4.532697   -0.480935
  32 C     6.0000    0    12.011   -9.273264   -0.370197   -1.876876
  33 O     8.0000    0    15.999  -10.524074   -0.563138   -3.902473
  34 H     1.0000    0     1.008   -9.542550    3.967291   -4.373204
  35 H     1.0000    0     1.008   -7.241242    5.614187   -2.566626
  36 H     1.0000    0     1.008   -6.223813    3.250329   -4.822014
  37 H     1.0000    0     1.008   -3.318359    1.606645    8.042674
  38 H     1.0000    0     1.008   -4.052707    3.749028    5.562031
  39 H     1.0000    0     1.008   -0.112439   -1.904466    7.213652
  40 H     1.0000    0     1.008   11.115558   -2.408834    0.725466
  41 H     1.0000    0     1.008   13.451260   -1.098498   -2.995972
  42 H     1.0000    0     1.008    8.425722   -4.988310    3.014680
  43 H     1.0000    0     1.008  -11.522038   -4.782519   -2.485746
  44 H     1.0000    0     1.008  -12.686109   -4.379629    0.700333
  45 H     1.0000    0     1.008   -9.896496   -6.259529    0.070298

--------------------------------
INTERNAL COORDINATES (ANGSTROEM)
--------------------------------
 C      0   0   0     0.000000000000     0.00000000     0.00000000
 N      1   0   0     1.474155822836     0.00000000     0.00000000
 C      2   1   0     1.376836744135   119.80196080     0.00000000
 O      3   2   1     1.260659041930   120.34908179     0.10925343
 C      3   2   1     1.399937587895   119.32920034   180.04024454
 C      5   3   2     1.427599289016   129.63280171   181.91610797
 C      6   5   3     1.502618055262   125.19093548   357.40491510
 C      7   6   5     1.498212605073   110.03362458   278.32717363
 O      8   7   6     1.260245507828   119.50420671   106.38057338
 N      8   7   6     1.435995114894   119.77381208   287.13326551
 C     10   8   7     1.432950627202   123.77079201   171.34427964
 N     11  10   8     1.350152032180   124.15777738   355.37288729
 C     12  11  10     1.362884580586   112.05883520   181.43294863
 C     13  12  11     1.485844355913   121.74514337   179.61829224
 C     14  13  12     1.406956310622   120.56936298   155.92721658
 C     15  14  13     1.396691207819   120.71934381   180.08264719
 C     16  15  14     1.405467228362   120.56642695     0.47736225
 C     17  16  15     1.510188524655   121.13664347   180.97315179
 F     18  17  16     1.382776312351   109.35155977   110.83529346
 F     18  17  16     1.384901288901   111.65803378   350.54242095
 F     18  17  16     1.383536837240   109.75943183   230.43314863
 C     17  16  15     1.406251019555   118.93609300   359.07560271
 F     22  17  16     1.358425176445   120.32333282   181.45337215
 C     22  17  16     1.399715663983   120.56497621     1.08059775
 F     24  22  17     1.357064574735   118.60100014   180.75302965
 C     13  12  11     1.399053855289   114.39819849     0.21284709
 S     11  10   8     1.678566084490   124.03057295   177.46363024
 N      6   5   3     1.363681271412   115.00947998   180.30823234
 S     28   6   5     1.665386949030   106.29311650   359.50374327
 C      5   3   2     1.375747891149   117.82788635     1.78827470
 N     30   5   3     1.359391893458   123.56495972     1.06114944
 C     31  30   5     1.470310477416   120.05644787   179.87458200
 C     31  30   5     1.374806982816   117.94343188   357.58758185
 O     33  31  30     1.263924693168   119.66087898   180.87688375
 H      1   2   3     1.112180812638   111.07817627   212.74210546
 H      1   2   3     1.110890854225   111.56830770   330.90830419
 H      1   2   3     1.110930227332   109.60613130    91.95788038
 H      7   6   5     1.111567964634   109.41896548   158.85520238
 H      7   6   5     1.109809199818   111.03379142    41.83671245
 H     10   8   7     1.044781278546   118.38292526   352.88733550
 H     15  14  13     1.082466484470   120.97529514   359.02580656
 H     16  15  14     1.082712542645   118.48094580   180.30483822
 H     26  13  12     1.081727225321   126.72834673   178.37688707
 H     32  31  30     1.110075263214   112.06477944   195.38111556
 H     32  31  30     1.110932063629   109.56475692    74.31784649
 H     32  31  30     1.111435688648   110.23296055   314.17132508

---------------------------
INTERNAL COORDINATES (A.U.)
---------------------------
 C      0   0   0     0.000000000000     0.00000000     0.00000000
 N      1   0   0     2.785750783885     0.00000000     0.00000000
 C      2   1   0     2.601844377535   119.80196080     0.00000000
 O      3   2   1     2.382300337499   120.34908179     0.10925343
 C      3   2   1     2.645498645703   119.32920034   180.04024454
 C      5   3   2     2.697771685222   129.63280171   181.91610797
 C      6   5   3     2.839536608331   125.19093548   357.40491510
 C      7   6   5     2.831211513977   110.03362458   278.32717363
 O      8   7   6     2.381518871299   119.50420671   106.38057338
 N      8   7   6     2.713637496799   119.77381208   287.13326551
 C     10   8   7     2.707884248843   123.77079201   171.34427964
 N     11  10   8     2.551417579978   124.15777738   355.37288729
 C     12  11  10     2.575478609452   112.05883520   181.43294863
 C     13  12  11     2.807838910309   121.74514337   179.61829224
 C     14  13  12     2.658762109468   120.56936298   155.92721658
 C     15  14  13     2.639363876434   120.71934381   180.08264719
 C     16  15  14     2.655948151806   120.56642695     0.47736225
 C     17  16  15     2.853842722189   121.13664347   180.97315179
 F     18  17  16     2.613068534818   109.35155977   110.83529346
 F     18  17  16     2.617084158538   111.65803378   350.54242095
 F     18  17  16     2.614505718575   109.75943183   230.43314863
 C     17  16  15     2.657429302507   118.93609300   359.07560271
 F     22  17  16     2.567051556905   120.32333282   181.45337215
 C     22  17  16     2.645079270288   120.56497621     1.08059775
 F     24  22  17     2.564480392295   118.60100014   180.75302965
 C     13  12  11     2.643828633104   114.39819849     0.21284709
 S     11  10   8     3.172030197375   124.03057295   177.46363024
 N      6   5   3     2.576984136926   115.00947998   180.30823234
 S     28   6   5     3.147125240674   106.29311650   359.50374327
 C      5   3   2     2.599786743591   117.82788635     1.78827470
 N     30   5   3     2.568878387309   123.56495972     1.06114944
 C     31  30   5     2.778484134152   120.05644787   179.87458200
 C     31  30   5     2.598008684525   117.94343188   357.58758185
 O     33  31  30     2.388471523988   119.66087898   180.87688375
 H      1   2   3     2.101717147288   111.07817627   212.74210546
 H      1   2   3     2.099279479162   111.56830770   330.90830419
 H      1   2   3     2.099353883552   109.60613130    91.95788038
 H      7   6   5     2.100559032398   109.41896548   158.85520238
 H      7   6   5     2.097235448562   111.03379142    41.83671245
 H     10   8   7     1.974350486300   118.38292526   352.88733550
 H     15  14  13     2.045565204796   120.97529514   359.02580656
 H     16  15  14     2.046030187360   118.48094580   180.30483822
 H     26  13  12     2.044168207463   126.72834673   178.37688707
 H     32  31  30     2.097738235515   112.06477944   195.38111556
 H     32  31  30     2.099357353652   109.56475692    74.31784649
 H     32  31  30     2.100309067011   110.23296055   314.17132508

---------------------
BASIS SET INFORMATION
---------------------
There are 6 groups of distinct atoms

 Group   1 Type C   : 10s4p1d contracted to 3s2p1d pattern {631/31/1}
 Group   2 Type N   : 10s4p1d contracted to 3s2p1d pattern {631/31/1}
 Group   3 Type O   : 10s4p1d contracted to 3s2p1d pattern {631/31/1}
 Group   4 Type F   : 10s4p1d contracted to 3s2p1d pattern {631/31/1}
 Group   5 Type S   : 16s10p1d contracted to 4s3p1d pattern {6631/631/1}
 Group   6 Type H   : 4s contracted to 2s pattern {31}

Atom   0C    basis set group =>   1
Atom   1N    basis set group =>   2
Atom   2C    basis set group =>   1
Atom   3O    basis set group =>   3
Atom   4C    basis set group =>   1
Atom   5C    basis set group =>   1
Atom   6C    basis set group =>   1
Atom   7C    basis set group =>   1
Atom   8O    basis set group =>   3
Atom   9N    basis set group =>   2
Atom  10C    basis set group =>   1
Atom  11N    basis set group =>   2
Atom  12C    basis set group =>   1
Atom  13C    basis set group =>   1
Atom  14C    basis set group =>   1
Atom  15C    basis set group =>   1
Atom  16C    basis set group =>   1
Atom  17C    basis set group =>   1
Atom  18F    basis set group =>   4
Atom  19F    basis set group =>   4
Atom  20F    basis set group =>   4
Atom  21C    basis set group =>   1
Atom  22F    basis set group =>   4
Atom  23C    basis set group =>   1
Atom  24F    basis set group =>   4
Atom  25C    basis set group =>   1
Atom  26S    basis set group =>   5
Atom  27N    basis set group =>   2
Atom  28S    basis set group =>   5
Atom  29C    basis set group =>   1
Atom  30N    basis set group =>   2
Atom  31C    basis set group =>   1
Atom  32C    basis set group =>   1
Atom  33O    basis set group =>   3
Atom  34H    basis set group =>   6
Atom  35H    basis set group =>   6
Atom  36H    basis set group =>   6
Atom  37H    basis set group =>   6
Atom  38H    basis set group =>   6
Atom  39H    basis set group =>   6
Atom  40H    basis set group =>   6
Atom  41H    basis set group =>   6
Atom  42H    basis set group =>   6
Atom  43H    basis set group =>   6
Atom  44H    basis set group =>   6
Atom  45H    basis set group =>   6
---------------------------------
AUXILIARY/J BASIS SET INFORMATION
---------------------------------
There are 6 groups of distinct atoms

 Group   1 Type C   : 12s5p4d2f1g contracted to 6s4p3d1f1g pattern {711111/2111/211/2/1}
 Group   2 Type N   : 12s5p4d2f1g contracted to 6s4p3d1f1g pattern {711111/2111/211/2/1}
 Group   3 Type O   : 12s5p4d2f1g contracted to 6s4p3d1f1g pattern {711111/2111/211/2/1}
 Group   4 Type F   : 12s5p4d2f1g contracted to 6s4p3d1f1g pattern {711111/2111/211/2/1}
 Group   5 Type S   : 14s5p5d2f1g contracted to 8s4p3d1f1g pattern {71111111/2111/311/2/1}
 Group   6 Type H   : 5s2p1d contracted to 3s1p1d pattern {311/2/1}

Atom   0C    basis set group =>   1
Atom   1N    basis set group =>   2
Atom   2C    basis set group =>   1
Atom   3O    basis set group =>   3
Atom   4C    basis set group =>   1
Atom   5C    basis set group =>   1
Atom   6C    basis set group =>   1
Atom   7C    basis set group =>   1
Atom   8O    basis set group =>   3
Atom   9N    basis set group =>   2
Atom  10C    basis set group =>   1
Atom  11N    basis set group =>   2
Atom  12C    basis set group =>   1
Atom  13C    basis set group =>   1
Atom  14C    basis set group =>   1
Atom  15C    basis set group =>   1
Atom  16C    basis set group =>   1
Atom  17C    basis set group =>   1
Atom  18F    basis set group =>   4
Atom  19F    basis set group =>   4
Atom  20F    basis set group =>   4
Atom  21C    basis set group =>   1
Atom  22F    basis set group =>   4
Atom  23C    basis set group =>   1
Atom  24F    basis set group =>   4
Atom  25C    basis set group =>   1
Atom  26S    basis set group =>   5
Atom  27N    basis set group =>   2
Atom  28S    basis set group =>   5
Atom  29C    basis set group =>   1
Atom  30N    basis set group =>   2
Atom  31C    basis set group =>   1
Atom  32C    basis set group =>   1
Atom  33O    basis set group =>   3
Atom  34H    basis set group =>   6
Atom  35H    basis set group =>   6
Atom  36H    basis set group =>   6
Atom  37H    basis set group =>   6
Atom  38H    basis set group =>   6
Atom  39H    basis set group =>   6
Atom  40H    basis set group =>   6
Atom  41H    basis set group =>   6
Atom  42H    basis set group =>   6
Atom  43H    basis set group =>   6
Atom  44H    basis set group =>   6
Atom  45H    basis set group =>   6
------------------------------------------------------------------------------
                             ORCA STARTUP CALCULATIONS
                           -- RI-GTO INTEGRALS CHOSEN --
------------------------------------------------------------------------------
------------------------------------------------------------------------------
                   ___                                                        
                  /   \      - P O W E R E D   B Y -                         
                 /     \                                                     
                 |  |  |   _    _      __       _____    __    __             
                 |  |  |  | |  | |    /  \     |  _  \  |  |  /  |          
                  \  \/   | |  | |   /    \    | | | |  |  | /  /          
                 / \  \   | |__| |  /  /\  \   | |_| |  |  |/  /          
                |  |  |   |  __  | /  /__\  \  |    /   |      \           
                |  |  |   | |  | | |   __   |  |    \   |  |\   \          
                \     /   | |  | | |  |  |  |  | |\  \  |  | \   \       
                 \___/    |_|  |_| |__|  |__|  |_| \__\ |__|  \__/        
                                                                              
                      - O R C A' S   B I G   F R I E N D -                    
                                      &                                       
                       - I N T E G R A L  F E E D E R -                       
                                                                              
 v1 FN, 2020, v2 2021, v3 2022-2024                                           
------------------------------------------------------------------------------


----------------------
SHARK INTEGRAL PACKAGE
----------------------

Number of atoms                             ...     46
Number of basis functions                   ...    508
Number of shells                            ...    232
Maximum angular momentum                    ...      2
Integral batch strategy                     ... SHARK/LIBINT Hybrid
RI-J (if used) integral strategy            ... SPLIT-RIJ (Revised 2003 algorithm where possible)
Printlevel                                  ...      1
Contraction scheme used                     ... SEGMENTED contraction
Prescreening option                         ... SCHWARTZ
   Thresh                                   ... 1.000e-10
   Tcut                                     ... 1.000e-11
   Tpresel                                  ... 1.000e-11 
Coulomb Range Separation                    ... NOT USED
Exchange Range Separation                   ... NOT USED
Multipole approximations                    ... NOT USED
Finite Nucleus Model                        ... NOT USED
CABS basis                                  ... NOT available
Auxiliary Coulomb fitting basis             ... AVAILABLE
   # of basis functions in Aux-J            ...   1802
   # of shells in Aux-J                     ...    574
   Maximum angular momentum in Aux-J        ...      4
Auxiliary J/K fitting basis                 ... NOT available
Auxiliary Correlation fitting basis         ... NOT available
Auxiliary 'external' fitting basis          ... NOT available

Checking pre-screening integrals            ... done (  0.0 sec) Dimension = 232
Check shell pair data                       ... done (  0.0 sec)
Shell pair information
Shell pair cut-off parameter TPreSel        ...   1.0e-11
Total number of shell pairs                 ...     27028
Shell pairs after pre-screening             ...     13221
Total number of primitive shell pairs       ...    170463
Primitive shell pairs kept                  ...     42885
          la=0 lb=0:   3693 shell pairs
          la=1 lb=0:   4730 shell pairs
          la=1 lb=1:   1528 shell pairs
          la=2 lb=0:   1809 shell pairs
          la=2 lb=1:   1216 shell pairs
          la=2 lb=2:    245 shell pairs

Calculating one electron integrals          ... done (  0.1 sec)
Calculating RI/J V-Matrix + Cholesky decomp.... done (  0.4 sec)
Calculating Nuclear repulsion               ... done (  0.0 sec) ENN=   3835.120891783828 Eh

Diagonalization of the overlap matrix:
Smallest eigenvalue                        ... 4.751e-04
Time for diagonalization                   ...    0.032 sec
Threshold for overlap eigenvalues          ... 1.000e-07
Number of eigenvalues below threshold      ... 0
Time for construction of square roots      ...    0.028 sec
Total time needed                          ...    0.069 sec

-------------------
DFT GRID GENERATION
-------------------

General Integration Accuracy     IntAcc      ... 4.388
Radial Grid Type                 RadialGrid  ... OptM3 with GC (2021)
Angular Grid (max. ang.)         AngularGrid ... 4 (Lebedev-302)
Angular grid pruning method      GridPruning ... 4 (adaptive)
Weight generation scheme         WeightScheme... mBecke (2022)
Basis function cutoff            BFCut       ... 1.0000e-10
Integration weight cutoff        WCut        ... 1.0000e-14
Partially contracted basis set               ... off
Rotationally invariant grid construction     ... off
Angular grids for H and He will be reduced by one unit

Total number of grid points                  ...   245155
Total number of batches                      ...     3853
Average number of points per batch           ...       63
Average number of grid points per atom       ...     5329

--------------------
COSX GRID GENERATION
--------------------

GRIDX 1
-------
General Integration Accuracy     IntAcc      ... 3.816
Radial Grid Type                 RadialGrid  ... OptM3 with GC (2021)
Angular Grid (max. ang.)         AngularGrid ... 1 (Lebedev-50)
Angular grid pruning method      GridPruning ... 4 (adaptive)
Weight generation scheme         WeightScheme... mBecke (2022)
Basis function cutoff            BFCut       ... 1.0000e-10
Integration weight cutoff        WCut        ... 1.0000e-14
Partially contracted basis set               ... on
Rotationally invariant grid construction     ... off
Angular grids for H and He will be reduced by one unit

Total number of grid points                  ...    33020
Total number of batches                      ...      283
Average number of points per batch           ...      116
Average number of grid points per atom       ...      718
UseSFitting                                  ... on

GRIDX 2
-------
General Integration Accuracy     IntAcc      ... 4.020
Radial Grid Type                 RadialGrid  ... OptM3 with GC (2021)
Angular Grid (max. ang.)         AngularGrid ... 2 (Lebedev-110)
Angular grid pruning method      GridPruning ... 4 (adaptive)
Weight generation scheme         WeightScheme... mBecke (2022)
Basis function cutoff            BFCut       ... 1.0000e-10
Integration weight cutoff        WCut        ... 1.0000e-14
Partially contracted basis set               ... on
Rotationally invariant grid construction     ... off
Angular grids for H and He will be reduced by one unit

Total number of grid points                  ...    69417
Total number of batches                      ...      562
Average number of points per batch           ...      123
Average number of grid points per atom       ...     1509
UseSFitting                                  ... on

GRIDX 3
-------
General Integration Accuracy     IntAcc      ... 4.338
Radial Grid Type                 RadialGrid  ... OptM3 with GC (2021)
Angular Grid (max. ang.)         AngularGrid ... 3 (Lebedev-194)
Angular grid pruning method      GridPruning ... 4 (adaptive)
Weight generation scheme         WeightScheme... mBecke (2022)
Basis function cutoff            BFCut       ... 1.0000e-10
Integration weight cutoff        WCut        ... 1.0000e-14
Partially contracted basis set               ... on
Rotationally invariant grid construction     ... off
Angular grids for H and He will be reduced by one unit

Total number of grid points                  ...   153614
Total number of batches                      ...     1225
Average number of points per batch           ...      125
Average number of grid points per atom       ...     3339
UseSFitting                                  ... on
Initializing property integral containers    ... done (  0.0 sec)

SHARK setup successfully completed in   8.4 seconds

Maximum memory used throughout the entire STARTUP-calculation: 103.9 MB
-------------------------------------------------------------------------------
                                 ORCA GUESS
                   Start orbitals & Density for SCF / CASSCF
-------------------------------------------------------------------------------

------------
SCF SETTINGS
------------
Hamiltonian:
 Density Functional     Method          .... DFT(GTOs)
 Exchange Functional    Exchange        .... B88
   X-Alpha parameter    XAlpha          ....  0.666667
   Becke's b parameter  XBeta           ....  0.004200
 Correlation Functional Correlation     .... LYP
 LDA part of GGA corr.  LDAOpt          .... VWN-5
 Gradients option       PostSCFGGA      .... off
 Hybrid DFT is turned on
   Fraction HF Exchange ScalHFX         ....  0.200000
   Scaling of DF-GGA-X  ScalDFX         ....  0.720000
   Scaling of DF-GGA-C  ScalDFC         ....  0.810000
   Scaling of DF-LDA-C  ScalLDAC        ....  1.000000
   Perturbative correction              ....  0.000000
   NL short-range parameter             ....  4.800000
 RI-approximation to the Coulomb term is turned on
   Number of AuxJ basis functions       .... 1802
   RIJ-COSX (HFX calculated with COS-X)).... on


General Settings:
 Integral files         IntName         .... /home/nmrbox/aojoawo/Documents/ERDOS/inputs/CHEMBL3945471
 Hartree-Fock type      HFTyp           .... RHF
 Total Charge           Charge          ....    0
 Multiplicity           Mult            ....    1
 Number of Electrons    NEL             ....  262
 Basis Dimension        Dim             ....  508
 Nuclear Repulsion      ENuc            ....   3835.1208917838 Eh

Convergence Acceleration:
 AO-DIIS                CNVDIIS         .... on
   Start iteration      DIISMaxIt       ....    12
   Startup error        DIISStart       ....  0.200000
   # of expansion vecs  DIISMaxEq       ....     5
   Bias factor          DIISBfac        ....   1.050
   Max. coefficient     DIISMaxC        ....  10.000
 MO-DIIS                CNVKDIIS        .... off
 Trust-Rad. Augm. Hess. CNVTRAH         .... auto
   Auto Start mean grad. ratio tolernc. ....  1.125000
   Auto Start start iteration           ....    50
   Auto Start num. interpolation iter.  ....    10
   Max. Number of Micro iterations      ....    24
   Max. Number of Macro iterations      .... Maxiter - #DIIS iter
   Number of Davidson start vectors     ....     2
   Converg. threshold    (grad. norm)   ....   5.000e-05
   Grad. Scal. Fac. for Micro threshold ....   0.100
   Minimum threshold for Micro iter.    ....   1.000e-02
   NR start threshold (gradient norm)   ....   1.000e-04
   Initial trust radius                 ....   0.400
   Minimum AH scaling param. (alpha)    ....   1.000
   Maximum AH scaling param. (alpha)    .... 1000.000
   Quad. conv. algorithm                .... NR
   White noise on init. David. guess    .... on
   Maximum white noise                  ....   0.010
   Pseudo random numbers                .... off
   Inactive MOs                         .... canonical
   Orbital update algorithm             .... Taylor
   Preconditioner                       .... Diag
   Full preconditioner red. dimension   ....   250
 SOSCF                  CNVSOSCF        .... on
   Start iteration      SOSCFMaxIt      ....   150
   Startup grad/error   SOSCFStart      ....  0.003300
   Hessian update       SOSCFHessUp     .... L-BFGS
 Level Shifting         CNVShift        .... on
   Level shift para.    LevelShift      ....    0.2500
   Turn off err/grad.   ShiftErr        ....    0.0010
 Zerner damping         CNVZerner       .... off
 Static damping         CNVDamp         .... on
   Fraction old density DampFac         ....    0.7000
   Max. Damping (<1)    DampMax         ....    0.9800
   Min. Damping (>=0)   DampMin         ....    0.0000
   Turn off err/grad.   DampErr         ....    0.1000

SCF Procedure:
 Maximum # iterations   MaxIter         ....   125
 SCF integral mode      SCFMode         .... Direct
   Integral package                     .... SHARK and LIBINT hybrid scheme
 Reset frequency        DirectResetFreq ....    20
 Integral Threshold     Thresh          ....  1.000e-10 Eh
 Primitive CutOff       TCut            ....  1.000e-11 Eh

Convergence Tolerance:
 Convergence Check Mode ConvCheckMode   .... Total+1el-Energy
 Convergence forced     ConvForced      .... 0
 Energy Change          TolE            ....  1.000e-06 Eh
 1-El. energy change                    ....  1.000e-03 Eh
 Orbital Gradient       TolG            ....  5.000e-05
 Orbital Rotation angle TolX            ....  5.000e-05
 DIIS Error             TolErr          ....  1.000e-06

------------------------------
INITIAL GUESS: MODEL POTENTIAL
------------------------------
Loading Hartree-Fock densities                     ... done
Calculating cut-offs                               ... done
Initializing the effective Hamiltonian             ... done
Setting up the integral package (SHARK)            ... done
Starting the Coulomb interaction                   ... done (   1.7 sec)
Making the grid                                    ... done (   1.1 sec)
Mapping shells                                     ... done
Starting the XC term evaluation                    ... done (   0.8 sec)
  promolecular density results
     # of electrons  =    261.975087502
     EX              =   -259.077986821
     EC              =     -9.507281417
     EX+EC           =   -268.585268238
Transforming the Hamiltonian                       ... done (   0.0 sec)
Diagonalizing the Hamiltonian                      ... done (   0.0 sec)
Back transforming the eigenvectors                 ... done (   0.0 sec)
Now organizing SCF variables                       ... done
                      ------------------
                      INITIAL GUESS DONE (   3.8 sec)
                      ------------------
             **** ENERGY FILE WAS UPDATED (/home/nmrbox/aojoawo/Documents/ERDOS/inputs/CHEMBL3945471.en.tmp) ****
Finished Guess after   4.0 sec
Maximum memory used throughout the entire GUESS-calculation: 57.2 MB

-------------------------------------------------------------------------------------------
                                      ORCA LEAN-SCF
                              memory conserving SCF solver
-------------------------------------------------------------------------------------------

----------------------------------------D-I-I-S--------------------------------------------
Iteration    Energy (Eh)           Delta-E    RMSDP     MaxDP     DIISErr   Damp  Time(sec)
-------------------------------------------------------------------------------------------
               ***  Starting incremental Fock matrix formation  ***
    1    -2524.3054088421631604     0.00e+00  2.73e-03  1.29e-01  2.85e-01  0.700  37.8
    2    -2524.7640973900506651    -4.59e-01  1.56e-03  5.91e-02  9.55e-02  0.700  17.6
                               ***Turning on AO-DIIS***
    3    -2524.8995026484726623    -1.35e-01  5.46e-04  2.30e-02  3.93e-02  0.700  16.8
    4    -2524.9945440255296489    -9.50e-02  1.07e-03  6.39e-02  1.80e-02  0.000  15.5
    5    -2525.2180908271830049    -2.24e-01  2.71e-04  1.17e-02  9.29e-03  0.000  16.4
                              *** Initializing SOSCF ***
---------------------------------------S-O-S-C-F--------------------------------------
Iteration    Energy (Eh)           Delta-E    RMSDP     MaxDP     MaxGrad    Time(sec)
--------------------------------------------------------------------------------------
    6    -2525.2202446638575566    -2.15e-03  1.06e-04  4.53e-03  3.23e-03    14.1
               *** Restarting incremental Fock matrix formation ***
    7    -2525.2204409327478061    -1.96e-04  9.31e-05  4.64e-03  8.38e-04    37.7
    8    -2525.2203567654905783     8.42e-05  5.76e-05  3.04e-03  1.83e-03    23.0
    9    -2525.2205031596113258    -1.46e-04  1.54e-05  7.88e-04  1.11e-04    21.0
   10    -2525.2204999035366200     3.26e-06  9.94e-06  6.43e-04  2.67e-04    17.0
   11    -2525.2205043826397741    -4.48e-06  3.96e-06  1.96e-04  3.42e-05    15.1
   12    -2525.2205042122968734     1.70e-07  2.30e-06  1.26e-04  5.67e-05    13.4
                 **** Energy Check signals convergence ****

               *****************************************************
               *                     SUCCESS                       *
               *           SCF CONVERGED AFTER  12 CYCLES          *
               *****************************************************

Recomputing exchange energy using gridx3       ... done (   64.659 sec)
Old exchange energy                            :    -52.169425456 Eh
New exchange energy                            :    -52.169450326 Eh
Exchange energy change after final integration :     -0.000024870 Eh
Total energy after final integration           :  -2525.220529083 Eh
             **** ENERGY FILE WAS UPDATED (/home/nmrbox/aojoawo/Documents/ERDOS/inputs/CHEMBL3945471.en.tmp) ****

----------------
TOTAL SCF ENERGY
----------------

Total Energy       :      -2525.22052908260775 Eh          -68714.74399 eV

Components:
Nuclear Repulsion  :       3835.12089178382757 Eh          104358.94497 eV
Electronic Energy  :      -6360.34139599612445 Eh         -173073.68828 eV
One Electron Energy:     -11107.53425591415544 Eh         -302251.37327 eV
Two Electron Energy:       4747.19285991803099 Eh          129177.68498 eV

Virial components:
Potential Energy   :      -5038.62600027840926 Eh         -137107.98390 eV
Kinetic Energy     :       2513.40547119580197 Eh           68393.23992 eV
Virial Ratio       :          2.00470081649070

DFT components:
N(Alpha)           :      130.999950325320 electrons
N(Beta)            :      130.999950325320 electrons
N(Total)           :      261.999900650641 electrons
E(X)               :     -207.498463986646 Eh       
E(C)               :      -11.140743212843 Eh       
E(XC)              :     -218.639207199489 Eh       

---------------
SCF CONVERGENCE
---------------

  Last Energy change         ...   -1.7034e-07  Tolerance :   1.0000e-06
  Last MAX-Density change    ...    1.2588e-04  Tolerance :   1.0000e-05
  Last RMS-Density change    ...    2.3047e-06  Tolerance :   1.0000e-06
  Last DIIS Error            ...    3.2272e-03  Tolerance :   1.0000e-06
  Last Orbital Gradient      ...    5.6702e-05  Tolerance :   5.0000e-05
  Last Orbital Rotation      ...    8.3640e-05  Tolerance :   5.0000e-05


----------------
ORBITAL ENERGIES
----------------

  NO   OCC          E(Eh)            E(eV) 
   0   2.0000     -88.938721     -2420.1456 
   1   2.0000     -88.912294     -2419.4265 
   2   2.0000     -24.721350      -672.7021 
   3   2.0000     -24.713009      -672.4752 
   4   2.0000     -24.711857      -672.4438 
   5   2.0000     -24.711171      -672.4251 
   6   2.0000     -24.699607      -672.1105 
   7   2.0000     -19.126021      -520.4455 
   8   2.0000     -19.115386      -520.1561 
   9   2.0000     -19.115122      -520.1489 
  10   2.0000     -14.428679      -392.6243 
  11   2.0000     -14.404149      -391.9568 
  12   2.0000     -14.394096      -391.6833 
  13   2.0000     -14.373197      -391.1146 
  14   2.0000     -14.327111      -389.8605 
  15   2.0000     -10.436844      -284.0010 
  16   2.0000     -10.342309      -281.4285 
  17   2.0000     -10.302099      -280.3344 
  18   2.0000     -10.299247      -280.2568 
  19   2.0000     -10.293087      -280.0891 
  20   2.0000     -10.290516      -280.0192 
  21   2.0000     -10.288213      -279.9565 
  22   2.0000     -10.284744      -279.8621 
  23   2.0000     -10.264631      -279.3148 
  24   2.0000     -10.252302      -278.9793 
  25   2.0000     -10.235021      -278.5091 
  26   2.0000     -10.222898      -278.1792 
  27   2.0000     -10.222850      -278.1779 
  28   2.0000     -10.221583      -278.1434 
  29   2.0000     -10.216969      -278.0179 
  30   2.0000     -10.215223      -277.9703 
  31   2.0000     -10.210451      -277.8405 
  32   2.0000     -10.209104      -277.8039 
  33   2.0000     -10.205779      -277.7134 
  34   2.0000      -8.012856      -218.0409 
  35   2.0000      -7.989990      -217.4187 
  36   2.0000      -5.977161      -162.6468 
  37   2.0000      -5.971858      -162.5025 
  38   2.0000      -5.968904      -162.4221 
  39   2.0000      -5.953041      -161.9905 
  40   2.0000      -5.948974      -161.8798 
  41   2.0000      -5.946810      -161.8209 
  42   2.0000      -1.276859       -34.7451 
  43   2.0000      -1.225719       -33.3535 
  44   2.0000      -1.208194       -32.8766 
  45   2.0000      -1.203101       -32.7380 
  46   2.0000      -1.198688       -32.6180 
  47   2.0000      -1.082373       -29.4529 
  48   2.0000      -1.027829       -27.9687 
  49   2.0000      -1.019286       -27.7362 
  50   2.0000      -1.005350       -27.3570 
  51   2.0000      -0.977262       -26.5927 
  52   2.0000      -0.973304       -26.4849 
  53   2.0000      -0.946326       -25.7509 
  54   2.0000      -0.916674       -24.9440 
  55   2.0000      -0.881738       -23.9933 
  56   2.0000      -0.828631       -22.5482 
  57   2.0000      -0.819911       -22.3109 
  58   2.0000      -0.817119       -22.2349 
  59   2.0000      -0.802713       -21.8429 
  60   2.0000      -0.767346       -20.8805 
  61   2.0000      -0.763466       -20.7750 
  62   2.0000      -0.750852       -20.4317 
  63   2.0000      -0.738123       -20.0853 
  64   2.0000      -0.716280       -19.4910 
  65   2.0000      -0.695097       -18.9145 
  66   2.0000      -0.668079       -18.1793 
  67   2.0000      -0.652839       -17.7647 
  68   2.0000      -0.642234       -17.4761 
  69   2.0000      -0.637249       -17.3404 
  70   2.0000      -0.618920       -16.8417 
  71   2.0000      -0.602983       -16.4080 
  72   2.0000      -0.601580       -16.3698 
  73   2.0000      -0.581215       -15.8157 
  74   2.0000      -0.572294       -15.5729 
  75   2.0000      -0.569313       -15.4918 
  76   2.0000      -0.566239       -15.4081 
  77   2.0000      -0.555825       -15.1248 
  78   2.0000      -0.541861       -14.7448 
  79   2.0000      -0.532908       -14.5012 
  80   2.0000      -0.521652       -14.1949 
  81   2.0000      -0.519009       -14.1230 
  82   2.0000      -0.512492       -13.9456 
  83   2.0000      -0.509031       -13.8514 
  84   2.0000      -0.497834       -13.5467 
  85   2.0000      -0.492650       -13.4057 
  86   2.0000      -0.479272       -13.0417 
  87   2.0000      -0.478470       -13.0198 
  88   2.0000      -0.473501       -12.8846 
  89   2.0000      -0.470919       -12.8144 
  90   2.0000      -0.459743       -12.5102 
  91   2.0000      -0.448543       -12.2055 
  92   2.0000      -0.446845       -12.1593 
  93   2.0000      -0.443845       -12.0776 
  94   2.0000      -0.442067       -12.0292 
  95   2.0000      -0.441231       -12.0065 
  96   2.0000      -0.437658       -11.9093 
  97   2.0000      -0.432594       -11.7715 
  98   2.0000      -0.430502       -11.7146 
  99   2.0000      -0.423126       -11.5138 
 100   2.0000      -0.417749       -11.3675 
 101   2.0000      -0.415098       -11.2954 
 102   2.0000      -0.412867       -11.2347 
 103   2.0000      -0.410836       -11.1794 
 104   2.0000      -0.408348       -11.1117 
 105   2.0000      -0.404438       -11.0053 
 106   2.0000      -0.396963       -10.8019 
 107   2.0000      -0.394124       -10.7247 
 108   2.0000      -0.391567       -10.6551 
 109   2.0000      -0.390325       -10.6213 
 110   2.0000      -0.386216       -10.5095 
 111   2.0000      -0.381605       -10.3840 
 112   2.0000      -0.378976       -10.3125 
 113   2.0000      -0.374120       -10.1803 
 114   2.0000      -0.367239        -9.9931 
 115   2.0000      -0.360853        -9.8193 
 116   2.0000      -0.351972        -9.5776 
 117   2.0000      -0.342326        -9.3152 
 118   2.0000      -0.329301        -8.9607 
 119   2.0000      -0.310496        -8.4490 
 120   2.0000      -0.297978        -8.1084 
 121   2.0000      -0.284807        -7.7500 
 122   2.0000      -0.283802        -7.7226 
 123   2.0000      -0.276025        -7.5110 
 124   2.0000      -0.271147        -7.3783 
 125   2.0000      -0.263232        -7.1629 
 126   2.0000      -0.254010        -6.9120 
 127   2.0000      -0.252181        -6.8622 
 128   2.0000      -0.251984        -6.8568 
 129   2.0000      -0.230135        -6.2623 
 130   2.0000      -0.219243        -5.9659 
 131   0.0000      -0.053837        -1.4650 
 132   0.0000      -0.050463        -1.3732 
 133   0.0000      -0.038899        -1.0585 
 134   0.0000      -0.024453        -0.6654 
 135   0.0000      -0.011709        -0.3186 
 136   0.0000      -0.004927        -0.1341 
 137   0.0000       0.010782         0.2934 
 138   0.0000       0.015253         0.4151 
 139   0.0000       0.029518         0.8032 
 140   0.0000       0.058926         1.6035 
 141   0.0000       0.060529         1.6471 
*Only the first 10 virtual orbitals were printed.

                    ********************************
                    * MULLIKEN POPULATION ANALYSIS *
                    ********************************

-----------------------
MULLIKEN ATOMIC CHARGES
-----------------------
   0 C :   -0.316468
   1 N :   -0.479231
   2 C :    0.514079
   3 O :   -0.465568
   4 C :    0.059670
   5 C :    0.172495
   6 C :   -0.403673
   7 C :    0.557893
   8 O :   -0.390982
   9 N :   -0.660785
  10 C :    0.252688
  11 N :   -0.356099
  12 C :    0.222286
  13 C :    0.043214
  14 C :   -0.172360
  15 C :   -0.164216
  16 C :   -0.108450
  17 C :    0.920926
  18 F :   -0.296113
  19 F :   -0.305506
  20 F :   -0.297105
  21 C :    0.318982
  22 F :   -0.291823
  23 C :    0.310664
  24 F :   -0.278577
  25 C :   -0.387797
  26 S :    0.255378
  27 N :   -0.503099
  28 S :    0.394338
  29 C :    0.045099
  30 N :   -0.448144
  31 C :   -0.347478
  32 C :    0.687000
  33 O :   -0.495441
  34 H :    0.191988
  35 H :    0.202237
  36 H :    0.187119
  37 H :    0.169562
  38 H :    0.225960
  39 H :    0.351038
  40 H :    0.144037
  41 H :    0.160682
  42 H :    0.183285
  43 H :    0.226502
  44 H :    0.188291
  45 H :    0.183500
Sum of atomic charges:   -0.0000000

--------------------------------
MULLIKEN REDUCED ORBITAL CHARGES
--------------------------------
  0 C s       :     3.271813  s :     3.271813
      pz      :     0.934857  p :     2.999643
      px      :     1.114848
      py      :     0.949938
      dz2     :     0.004668  d :     0.045011
      dxz     :     0.011753
      dyz     :     0.013731
      dx2y2   :     0.011235
      dxy     :     0.003624

  1 N s       :     3.606115  s :     3.606115
      pz      :     1.234290  p :     3.835678
      px      :     1.388556
      py      :     1.212832
      dz2     :     0.009170  d :     0.037438
      dxz     :     0.007239
      dyz     :     0.007323
      dx2y2   :     0.006569
      dxy     :     0.007137

  2 C s       :     2.954634  s :     2.954634
      pz      :     0.822400  p :     2.423369
      px      :     0.766395
      py      :     0.834574
      dz2     :     0.018448  d :     0.107918
      dxz     :     0.021991
      dyz     :     0.026121
      dx2y2   :     0.025193
      dxy     :     0.016165

  3 O s       :     3.896286  s :     3.896286
      pz      :     1.712317  p :     4.543035
      px      :     1.408409
      py      :     1.422309
      dz2     :     0.002849  d :     0.026247
      dxz     :     0.002417
      dyz     :     0.004583
      dx2y2   :     0.008524
      dxy     :     0.007874

  4 C s       :     3.120736  s :     3.120736
      pz      :     0.932850  p :     2.780466
      px      :     0.993481
      py      :     0.854136
      dz2     :     0.009029  d :     0.039127
      dxz     :     0.005930
      dyz     :     0.010089
      dx2y2   :     0.006810
      dxy     :     0.007269

  5 C s       :     3.128273  s :     3.128273
      pz      :     0.907144  p :     2.639946
      px      :     0.922544
      py      :     0.810258
      dz2     :     0.013944  d :     0.059286
      dxz     :     0.009825
      dyz     :     0.013759
      dx2y2   :     0.010590
      dxy     :     0.011168

  6 C s       :     3.288532  s :     3.288532
      pz      :     1.032732  p :     3.076937
      px      :     0.960860
      py      :     1.083344
      dz2     :     0.011558  d :     0.038204
      dxz     :     0.005249
      dyz     :     0.003707
      dx2y2   :     0.009460
      dxy     :     0.008230

  7 C s       :     3.004464  s :     3.004464
      pz      :     0.784389  p :     2.338508
      px      :     0.816489
      py      :     0.737631
      dz2     :     0.016885  d :     0.099135
      dxz     :     0.020398
      dyz     :     0.017116
      dx2y2   :     0.024993
      dxy     :     0.019742

  8 O s       :     3.898949  s :     3.898949
      pz      :     1.334627  p :     4.465218
      px      :     1.664020
      py      :     1.466571
      dz2     :     0.008105  d :     0.026814
      dxz     :     0.004238
      dyz     :     0.006526
      dx2y2   :     0.003590
      dxy     :     0.004354

  9 N s       :     3.621629  s :     3.621629
      pz      :     1.396821  p :     4.010865
      px      :     1.270154
      py      :     1.343891
      dz2     :     0.003878  d :     0.028291
      dxz     :     0.005091
      dyz     :     0.006973
      dx2y2   :     0.005750
      dxy     :     0.006599

 10 C s       :     3.046741  s :     3.046741
      pz      :     0.892253  p :     2.626553
      px      :     0.823314
      py      :     0.910986
      dz2     :     0.014961  d :     0.074018
      dxz     :     0.018006
      dyz     :     0.013219
      dx2y2   :     0.016064
      dxy     :     0.011768

 11 N s       :     3.744522  s :     3.744522
      pz      :     1.111022  p :     3.571431
      px      :     1.125385
      py      :     1.335024
      dz2     :     0.009953  d :     0.040145
      dxz     :     0.004984
      dyz     :     0.008515
      dx2y2   :     0.006894
      dxy     :     0.009799

 12 C s       :     3.057074  s :     3.057074
      pz      :     0.924600  p :     2.661149
      px      :     0.847547
      py      :     0.889001
      dz2     :     0.010645  d :     0.059491
      dxz     :     0.013822
      dyz     :     0.009758
      dx2y2   :     0.013376
      dxy     :     0.011889

 13 C s       :     3.152588  s :     3.152588
      pz      :     0.900705  p :     2.764733
      px      :     0.899412
      py      :     0.964616
      dz2     :     0.008756  d :     0.039464
      dxz     :     0.011440
      dyz     :     0.005566
      dx2y2   :     0.006392
      dxy     :     0.007309

 14 C s       :     3.191550  s :     3.191550
      pz      :     0.976849  p :     2.945162
      px      :     0.962032
      py      :     1.006280
      dz2     :     0.007029  d :     0.035648
      dxz     :     0.010599
      dyz     :     0.005638
      dx2y2   :     0.005664
      dxy     :     0.006718

 15 C s       :     3.204968  s :     3.204968
      pz      :     0.948603  p :     2.923133
      px      :     1.001505
      py      :     0.973024
      dz2     :     0.009629  d :     0.036115
      dxz     :     0.008300
      dyz     :     0.006150
      dx2y2   :     0.007654
      dxy     :     0.004382

 16 C s       :     3.170154  s :     3.170154
      pz      :     0.952099  p :     2.901328
      px      :     0.912492
      py      :     1.036738
      dz2     :     0.008511  d :     0.036968
      dxz     :     0.009554
      dyz     :     0.005006
      dx2y2   :     0.007182
      dxy     :     0.006714

 17 C s       :     2.796033  s :     2.796033
      pz      :     0.813865  p :     2.144366
      px      :     0.679722
      py      :     0.650779
      dz2     :     0.026933  d :     0.138676
      dxz     :     0.024125
      dyz     :     0.027505
      dx2y2   :     0.035916
      dxy     :     0.024196

 18 F s       :     3.978013  s :     3.978013
      pz      :     1.652111  p :     5.301646
      px      :     1.866065
      py      :     1.783470
      dz2     :     0.004359  d :     0.016454
      dxz     :     0.003448
      dyz     :     0.005244
      dx2y2   :     0.001652
      dxy     :     0.001752

 19 F s       :     3.981587  s :     3.981587
      pz      :     1.905347  p :     5.307636
      px      :     1.502658
      py      :     1.899632
      dz2     :     0.002246  d :     0.016282
      dxz     :     0.003891
      dyz     :     0.000289
      dx2y2   :     0.006186
      dxy     :     0.003670

 20 F s       :     3.979624  s :     3.979624
      pz      :     1.898896  p :     5.300883
      px      :     1.896679
      py      :     1.505308
      dz2     :     0.002361  d :     0.016598
      dxz     :     0.000385
      dyz     :     0.004004
      dx2y2   :     0.005995
      dxy     :     0.003853

 21 C s       :     3.117187  s :     3.117187
      pz      :     0.739773  p :     2.492516
      px      :     0.839401
      py      :     0.913343
      dz2     :     0.016661  d :     0.071315
      dxz     :     0.019887
      dyz     :     0.012009
      dx2y2   :     0.010648
      dxy     :     0.012110

 22 F s       :     3.979166  s :     3.979166
      pz      :     1.675984  p :     5.295020
      px      :     1.816611
      py      :     1.802425
      dz2     :     0.004090  d :     0.017637
      dxz     :     0.004501
      dyz     :     0.004360
      dx2y2   :     0.002160
      dxy     :     0.002526

 23 C s       :     3.120129  s :     3.120129
      pz      :     0.936161  p :     2.498004
      px      :     0.571385
      py      :     0.990458
      dz2     :     0.013088  d :     0.071202
      dxz     :     0.020317
      dyz     :     0.006305
      dx2y2   :     0.015146
      dxy     :     0.016345

 24 F s       :     3.981943  s :     3.981943
      pz      :     1.910014  p :     5.278733
      px      :     1.488367
      py      :     1.880352
      dz2     :     0.002376  d :     0.017901
      dxz     :     0.004160
      dyz     :     0.000293
      dx2y2   :     0.006166
      dxy     :     0.004905

 25 C s       :     3.268783  s :     3.268783
      pz      :     0.978657  p :     3.085055
      px      :     1.010054
      py      :     1.096344
      dz2     :     0.007887  d :     0.033959
      dxz     :     0.007383
      dyz     :     0.004794
      dx2y2   :     0.005071
      dxy     :     0.008824

 26 S s       :     5.795531  s :     5.795531
      pz      :     3.372175  p :     9.842496
      px      :     3.131544
      py      :     3.338777
      dz2     :     0.018052  d :     0.106595
      dxz     :     0.028418
      dyz     :     0.015317
      dx2y2   :     0.021223
      dxy     :     0.023585

 27 N s       :     3.778874  s :     3.778874
      pz      :     1.383502  p :     3.685498
      px      :     1.190169
      py      :     1.111827
      dz2     :     0.006924  d :     0.038728
      dxz     :     0.008645
      dyz     :     0.011524
      dx2y2   :     0.006266
      dxy     :     0.005370

 28 S s       :     5.805614  s :     5.805614
      pz      :     3.015893  p :     9.670826
      px      :     3.361096
      py      :     3.293836
      dz2     :     0.029995  d :     0.129223
      dxz     :     0.023281
      dyz     :     0.039178
      dx2y2   :     0.015938
      dxy     :     0.020830

 29 C s       :     3.103620  s :     3.103620
      pz      :     0.788528  p :     2.788344
      px      :     0.988209
      py      :     1.011607
      dz2     :     0.015788  d :     0.062937
      dxz     :     0.012887
      dyz     :     0.015232
      dx2y2   :     0.010762
      dxy     :     0.008268

 30 N s       :     3.587624  s :     3.587624
      pz      :     1.177021  p :     3.820091
      px      :     1.416308
      py      :     1.226762
      dz2     :     0.008711  d :     0.040429
      dxz     :     0.007747
      dyz     :     0.010160
      dx2y2   :     0.007474
      dxy     :     0.006336

 31 C s       :     3.286390  s :     3.286390
      pz      :     1.162938  p :     3.015294
      px      :     0.989473
      py      :     0.862884
      dz2     :     0.009544  d :     0.045793
      dxz     :     0.008270
      dyz     :     0.004160
      dx2y2   :     0.010031
      dxy     :     0.013789

 32 C s       :     2.846477  s :     2.846477
      pz      :     0.752083  p :     2.344061
      px      :     0.812323
      py      :     0.779655
      dz2     :     0.028919  d :     0.122462
      dxz     :     0.019350
      dyz     :     0.035538
      dx2y2   :     0.018227
      dxy     :     0.020428

 33 O s       :     3.888940  s :     3.888940
      pz      :     1.386933  p :     4.580818
      px      :     1.477051
      py      :     1.716833
      dz2     :     0.008540  d :     0.025683
      dxz     :     0.008073
      dyz     :     0.004817
      dx2y2   :     0.002536
      dxy     :     0.001715

 34 H s       :     0.808012  s :     0.808012

 35 H s       :     0.797763  s :     0.797763

 36 H s       :     0.812881  s :     0.812881

 37 H s       :     0.830438  s :     0.830438

 38 H s       :     0.774040  s :     0.774040

 39 H s       :     0.648962  s :     0.648962

 40 H s       :     0.855963  s :     0.855963

 41 H s       :     0.839318  s :     0.839318

 42 H s       :     0.816715  s :     0.816715

 43 H s       :     0.773498  s :     0.773498

 44 H s       :     0.811709  s :     0.811709

 45 H s       :     0.816500  s :     0.816500



                     *******************************
                     * LOEWDIN POPULATION ANALYSIS *
                     *******************************

----------------------
LOEWDIN ATOMIC CHARGES
----------------------
   0 C :   -0.259201
   1 N :   -0.027263
   2 C :    0.114090
   3 O :   -0.266225
   4 C :   -0.124022
   5 C :    0.041554
   6 C :   -0.242025
   7 C :    0.152226
   8 O :   -0.214091
   9 N :   -0.209937
  10 C :   -0.079008
  11 N :   -0.143409
  12 C :   -0.003718
  13 C :   -0.025058
  14 C :   -0.126585
  15 C :   -0.118740
  16 C :   -0.094344
  17 C :    0.316034
  18 F :   -0.111025
  19 F :   -0.110979
  20 F :   -0.109492
  21 C :    0.112608
  22 F :   -0.083992
  23 C :    0.112439
  24 F :   -0.069554
  25 C :   -0.344034
  26 S :    0.391574
  27 N :   -0.342150
  28 S :    0.471140
  29 C :   -0.118293
  30 N :   -0.022755
  31 C :   -0.265238
  32 C :    0.146762
  33 O :   -0.304285
  34 H :    0.150834
  35 H :    0.156771
  36 H :    0.145420
  37 H :    0.146481
  38 H :    0.180144
  39 H :    0.269461
  40 H :    0.140785
  41 H :    0.148946
  42 H :    0.161341
  43 H :    0.170584
  44 H :    0.142929
  45 H :    0.143300

-------------------------------
LOEWDIN REDUCED ORBITAL CHARGES
-------------------------------
  0 C s       :     2.972073  s :     2.972073
      pz      :     1.016602  p :     3.198056
      px      :     1.157166
      py      :     1.024288
      dz2     :     0.009730  d :     0.089073
      dxz     :     0.022638
      dyz     :     0.028206
      dx2y2   :     0.021533
      dxy     :     0.006965

  1 N s       :     3.084501  s :     3.084501
      pz      :     1.244181  p :     3.845026
      px      :     1.368551
      py      :     1.232294
      dz2     :     0.023431  d :     0.097735
      dxz     :     0.018701
      dyz     :     0.021146
      dx2y2   :     0.015658
      dxy     :     0.018800

  2 C s       :     2.821076  s :     2.821076
      pz      :     0.939682  p :     2.807638
      px      :     0.892290
      py      :     0.975666
      dz2     :     0.044841  d :     0.257196
      dxz     :     0.054142
      dyz     :     0.062014
      dx2y2   :     0.055406
      dxy     :     0.040794

  3 O s       :     3.585514  s :     3.585514
      pz      :     1.711784  p :     4.629136
      px      :     1.442606
      py      :     1.474746
      dz2     :     0.006892  d :     0.051574
      dxz     :     0.004458
      dyz     :     0.008028
      dx2y2   :     0.013167
      dxy     :     0.019029

  4 C s       :     2.855585  s :     2.855585
      pz      :     1.050947  p :     3.159320
      px      :     1.065338
      py      :     1.043035
      dz2     :     0.026381  d :     0.109117
      dxz     :     0.015900
      dyz     :     0.028433
      dx2y2   :     0.017320
      dxy     :     0.021083

  5 C s       :     2.878015  s :     2.878015
      pz      :     0.999714  p :     2.941676
      px      :     0.958277
      py      :     0.983685
      dz2     :     0.032849  d :     0.138755
      dxz     :     0.022513
      dyz     :     0.034432
      dx2y2   :     0.023727
      dxy     :     0.025234

  6 C s       :     2.933958  s :     2.933958
      pz      :     1.089054  p :     3.225885
      px      :     1.028722
      py      :     1.108110
      dz2     :     0.023447  d :     0.082183
      dxz     :     0.012478
      dyz     :     0.006757
      dx2y2   :     0.020988
      dxy     :     0.018514

  7 C s       :     2.864901  s :     2.864901
      pz      :     0.906716  p :     2.753977
      px      :     0.951653
      py      :     0.895608
      dz2     :     0.034540  d :     0.228895
      dxz     :     0.047783
      dyz     :     0.043230
      dx2y2   :     0.058257
      dxy     :     0.045086

  8 O s       :     3.596940  s :     3.596940
      pz      :     1.387220  p :     4.565200
      px      :     1.676309
      py      :     1.501671
      dz2     :     0.011882  d :     0.051951
      dxz     :     0.009198
      dyz     :     0.016143
      dx2y2   :     0.006323
      dxy     :     0.008405

  9 N s       :     3.150777  s :     3.150777
      pz      :     1.373151  p :     3.989706
      px      :     1.278017
      py      :     1.338538
      dz2     :     0.009904  d :     0.069453
      dxz     :     0.011982
      dyz     :     0.014660
      dx2y2   :     0.014790
      dxy     :     0.018117

 10 C s       :     2.897189  s :     2.897189
      pz      :     1.016724  p :     3.011331
      px      :     0.973569
      py      :     1.021038
      dz2     :     0.032869  d :     0.170488
      dxz     :     0.042008
      dyz     :     0.031779
      dx2y2   :     0.036314
      dxy     :     0.027518

 11 N s       :     3.257558  s :     3.257558
      pz      :     1.212933  p :     3.799896
      px      :     1.192817
      py      :     1.394145
      dz2     :     0.021968  d :     0.085956
      dxz     :     0.012696
      dyz     :     0.018366
      dx2y2   :     0.012686
      dxy     :     0.020240

 12 C s       :     2.859714  s :     2.859714
      pz      :     1.004473  p :     3.000285
      px      :     0.983515
      py      :     1.012297
      dz2     :     0.024586  d :     0.143719
      dxz     :     0.033284
      dyz     :     0.024539
      dx2y2   :     0.031414
      dxy     :     0.029897

 13 C s       :     2.873373  s :     2.873373
      pz      :     1.013378  p :     3.053136
      px      :     1.049553
      py      :     0.990205
      dz2     :     0.021873  d :     0.098549
      dxz     :     0.029982
      dyz     :     0.013014
      dx2y2   :     0.016221
      dxy     :     0.017460

 14 C s       :     2.912027  s :     2.912027
      pz      :     1.061166  p :     3.130442
      px      :     1.048737
      py      :     1.020539
      dz2     :     0.016916  d :     0.084116
      dxz     :     0.027154
      dyz     :     0.010903
      dx2y2   :     0.014132
      dxy     :     0.015011

 15 C s       :     2.914159  s :     2.914159
      pz      :     1.038781  p :     3.119183
      px      :     1.081737
      py      :     0.998664
      dz2     :     0.023950  d :     0.085399
      dxz     :     0.021740
      dyz     :     0.015486
      dx2y2   :     0.014967
      dxy     :     0.009256

 16 C s       :     2.888988  s :     2.888988
      pz      :     1.028839  p :     3.111272
      px      :     1.038862
      py      :     1.043571
      dz2     :     0.021331  d :     0.094085
      dxz     :     0.026816
      dyz     :     0.011511
      dx2y2   :     0.018089
      dxy     :     0.016337

 17 C s       :     2.848518  s :     2.848518
      pz      :     0.905220  p :     2.505704
      px      :     0.809922
      py      :     0.790563
      dz2     :     0.063557  d :     0.329743
      dxz     :     0.058120
      dyz     :     0.064759
      dx2y2   :     0.090050
      dxy     :     0.053256

 18 F s       :     3.761504  s :     3.761504
      pz      :     1.667522  p :     5.318234
      px      :     1.862574
      py      :     1.788138
      dz2     :     0.008555  d :     0.031287
      dxz     :     0.006107
      dyz     :     0.010598
      dx2y2   :     0.002825
      dxy     :     0.003202

 19 F s       :     3.758309  s :     3.758309
      pz      :     1.902149  p :     5.321786
      px      :     1.523725
      py      :     1.895912
      dz2     :     0.004790  d :     0.030884
      dxz     :     0.006649
      dyz     :     0.000501
      dx2y2   :     0.012959
      dxy     :     0.005985

 20 F s       :     3.761145  s :     3.761145
      pz      :     1.895693  p :     5.316993
      px      :     1.891147
      py      :     1.530152
      dz2     :     0.004524  d :     0.031355
      dxz     :     0.000594
      dyz     :     0.007407
      dx2y2   :     0.012473
      dxy     :     0.006358

 21 C s       :     2.865856  s :     2.865856
      pz      :     0.897221  p :     2.846052
      px      :     0.997555
      py      :     0.951275
      dz2     :     0.042008  d :     0.175484
      dxz     :     0.049408
      dyz     :     0.029599
      dx2y2   :     0.025891
      dxy     :     0.028580

 22 F s       :     3.737230  s :     3.737230
      pz      :     1.685952  p :     5.311419
      px      :     1.822446
      py      :     1.803021
      dz2     :     0.008220  d :     0.035343
      dxz     :     0.009036
      dyz     :     0.008857
      dx2y2   :     0.004251
      dxy     :     0.004979

 23 C s       :     2.864691  s :     2.864691
      pz      :     1.047097  p :     2.848413
      px      :     0.791231
      py      :     1.010085
      dz2     :     0.031233  d :     0.174457
      dxz     :     0.053464
      dyz     :     0.014417
      dx2y2   :     0.038003
      dxy     :     0.037339

 24 F s       :     3.737964  s :     3.737964
      pz      :     1.907941  p :     5.295721
      px      :     1.510212
      py      :     1.877568
      dz2     :     0.004762  d :     0.035868
      dxz     :     0.008070
      dyz     :     0.000503
      dx2y2   :     0.012592
      dxy     :     0.009942

 25 C s       :     2.982930  s :     2.982930
      pz      :     1.063726  p :     3.280971
      px      :     1.096554
      py      :     1.120691
      dz2     :     0.018133  d :     0.080133
      dxz     :     0.019620
      dyz     :     0.012876
      dx2y2   :     0.011413
      dxy     :     0.018090

 26 S s       :     5.520878  s :     5.520878
      pz      :     3.425245  p :     9.961434
      px      :     3.158412
      py      :     3.377776
      dz2     :     0.020029  d :     0.126114
      dxz     :     0.034008
      dyz     :     0.017752
      dx2y2   :     0.025248
      dxy     :     0.029078

 27 N s       :     3.387305  s :     3.387305
      pz      :     1.439806  p :     3.874462
      px      :     1.241868
      py      :     1.192789
      dz2     :     0.010027  d :     0.080383
      dxz     :     0.015510
      dyz     :     0.025290
      dx2y2   :     0.015371
      dxy     :     0.014185

 28 S s       :     5.546620  s :     5.546620
      pz      :     3.057934  p :     9.826219
      px      :     3.385002
      py      :     3.383282
      dz2     :     0.037003  d :     0.156021
      dxz     :     0.030835
      dyz     :     0.047354
      dx2y2   :     0.017496
      dxy     :     0.023333

 29 C s       :     2.883134  s :     2.883134
      pz      :     0.998931  p :     3.082285
      px      :     1.009238
      py      :     1.074116
      dz2     :     0.038686  d :     0.152874
      dxz     :     0.030731
      dyz     :     0.039248
      dx2y2   :     0.024343
      dxy     :     0.019867

 30 N s       :     3.060465  s :     3.060465
      pz      :     1.220495  p :     3.856687
      px      :     1.391196
      py      :     1.244997
      dz2     :     0.024791  d :     0.105603
      dxz     :     0.019444
      dyz     :     0.028940
      dx2y2   :     0.016997
      dxy     :     0.015431

 31 C s       :     2.973428  s :     2.973428
      pz      :     1.176902  p :     3.201410
      px      :     1.061345
      py      :     0.963163
      dz2     :     0.017884  d :     0.090400
      dxz     :     0.015103
      dyz     :     0.008178
      dx2y2   :     0.021114
      dxy     :     0.028121

 32 C s       :     2.804170  s :     2.804170
      pz      :     0.945402  p :     2.764842
      px      :     0.902450
      py      :     0.916989
      dz2     :     0.067159  d :     0.284226
      dxz     :     0.045794
      dyz     :     0.083463
      dx2y2   :     0.040281
      dxy     :     0.047529

 33 O s       :     3.587352  s :     3.587352
      pz      :     1.452395  p :     4.666501
      px      :     1.499382
      py      :     1.714724
      dz2     :     0.016615  d :     0.050431
      dxz     :     0.018493
      dyz     :     0.007964
      dx2y2   :     0.004384
      dxy     :     0.002975

 34 H s       :     0.849166  s :     0.849166

 35 H s       :     0.843229  s :     0.843229

 36 H s       :     0.854580  s :     0.854580

 37 H s       :     0.853519  s :     0.853519

 38 H s       :     0.819856  s :     0.819856

 39 H s       :     0.730539  s :     0.730539

 40 H s       :     0.859215  s :     0.859215

 41 H s       :     0.851054  s :     0.851054

 42 H s       :     0.838659  s :     0.838659

 43 H s       :     0.829416  s :     0.829416

 44 H s       :     0.857071  s :     0.857071

 45 H s       :     0.856700  s :     0.856700



                      *****************************
                      * MAYER POPULATION ANALYSIS *
                      *****************************

  NA   - Mulliken gross atomic population
  ZA   - Total nuclear charge
  QA   - Mulliken gross atomic charge
  VA   - Mayer's total valence
  BVA  - Mayer's bonded valence
  FA   - Mayer's free valence

  ATOM       NA         ZA         QA         VA         BVA        FA
  0 C      6.3165     6.0000    -0.3165     3.7607     3.7607     0.0000
  1 N      7.4792     7.0000    -0.4792     3.0538     3.0538    -0.0000
  2 C      5.4859     6.0000     0.5141     3.9112     3.9112     0.0000
  3 O      8.4656     8.0000    -0.4656     2.0645     2.0645     0.0000
  4 C      5.9403     6.0000     0.0597     3.8706     3.8706     0.0000
  5 C      5.8275     6.0000     0.1725     3.9149     3.9149    -0.0000
  6 C      6.4037     6.0000    -0.4037     3.7656     3.7656    -0.0000
  7 C      5.4421     6.0000     0.5579     3.9025     3.9025    -0.0000
  8 O      8.3910     8.0000    -0.3910     2.1127     2.1127    -0.0000
  9 N      7.6608     7.0000    -0.6608     2.8976     2.8976     0.0000
 10 C      5.7473     6.0000     0.2527     3.8183     3.8183    -0.0000
 11 N      7.3561     7.0000    -0.3561     2.9754     2.9754    -0.0000
 12 C      5.7777     6.0000     0.2223     3.9749     3.9749    -0.0000
 13 C      5.9568     6.0000     0.0432     3.8591     3.8591     0.0000
 14 C      6.1724     6.0000    -0.1724     3.9183     3.9183     0.0000
 15 C      6.1642     6.0000    -0.1642     3.9420     3.9420     0.0000
 16 C      6.1084     6.0000    -0.1084     3.8547     3.8547     0.0000
 17 C      5.0791     6.0000     0.9209     3.9222     3.9222    -0.0000
 18 F      9.2961     9.0000    -0.2961     1.0581     1.0581     0.0000
 19 F      9.3055     9.0000    -0.3055     1.0619     1.0619    -0.0000
 20 F      9.2971     9.0000    -0.2971     1.0590     1.0590     0.0000
 21 C      5.6810     6.0000     0.3190     3.7618     3.7618     0.0000
 22 F      9.2918     9.0000    -0.2918     1.0782     1.0782     0.0000
 23 C      5.6893     6.0000     0.3107     3.7230     3.7230    -0.0000
 24 F      9.2786     9.0000    -0.2786     1.0894     1.0894     0.0000
 25 C      6.3878     6.0000    -0.3878     3.7677     3.7677    -0.0000
 26 S     15.7446    16.0000     0.2554     2.4665     2.4665    -0.0000
 27 N      7.5031     7.0000    -0.5031     2.8425     2.8425    -0.0000
 28 S     15.6057    16.0000     0.3943     2.5003     2.5003    -0.0000
 29 C      5.9549     6.0000     0.0451     3.7166     3.7166    -0.0000
 30 N      7.4481     7.0000    -0.4481     3.1007     3.1007    -0.0000
 31 C      6.3475     6.0000    -0.3475     3.7475     3.7475    -0.0000
 32 C      5.3130     6.0000     0.6870     3.9378     3.9378     0.0000
 33 O      8.4954     8.0000    -0.4954     2.0441     2.0441    -0.0000
 34 H      0.8080     1.0000     0.1920     0.9334     0.9334     0.0000
 35 H      0.7978     1.0000     0.2022     0.9339     0.9339    -0.0000
 36 H      0.8129     1.0000     0.1871     0.9258     0.9258     0.0000
 37 H      0.8304     1.0000     0.1696     0.9270     0.9270     0.0000
 38 H      0.7740     1.0000     0.2260     0.9347     0.9347     0.0000
 39 H      0.6490     1.0000     0.3510     0.8548     0.8548    -0.0000
 40 H      0.8560     1.0000     0.1440     0.9402     0.9402     0.0000
 41 H      0.8393     1.0000     0.1607     0.9426     0.9426    -0.0000
 42 H      0.8167     1.0000     0.1833     0.9377     0.9377    -0.0000
 43 H      0.7735     1.0000     0.2265     0.9338     0.9338    -0.0000
 44 H      0.8117     1.0000     0.1883     0.9212     0.9212    -0.0000
 45 H      0.8165     1.0000     0.1835     0.9258     0.9258    -0.0000

  Mayer bond orders larger than 0.100000
B(  0-C ,  1-N ) :   0.9128 B(  0-C , 34-H ) :   0.9273 B(  0-C , 35-H ) :   0.9212 
B(  0-C , 36-H ) :   0.9383 B(  1-N ,  2-C ) :   0.9713 B(  1-N , 32-C ) :   1.0498 
B(  2-C ,  3-O ) :   1.7974 B(  2-C ,  4-C ) :   1.0774 B(  4-C ,  5-C ) :   1.2592 
B(  4-C , 29-C ) :   1.3502 B(  5-C ,  6-C ) :   0.9894 B(  5-C , 27-N ) :   1.5068 
B(  6-C ,  7-C ) :   0.9514 B(  6-C , 37-H ) :   0.9116 B(  6-C , 38-H ) :   0.8939 
B(  7-C ,  8-O ) :   1.9207 B(  7-C ,  9-N ) :   0.9705 B(  9-N , 10-C ) :   0.9579 
B(  9-N , 39-H ) :   0.8132 B( 10-C , 11-N ) :   1.5128 B( 10-C , 25-C ) :   0.1071 
B( 10-C , 26-S ) :   1.1332 B( 11-N , 12-C ) :   1.2670 B( 12-C , 13-C ) :   1.0272 
B( 12-C , 25-C ) :   1.5142 B( 13-C , 14-C ) :   1.4000 B( 13-C , 23-C ) :   1.2960 
B( 14-C , 15-C ) :   1.4365 B( 14-C , 40-H ) :   0.9201 B( 15-C , 16-C ) :   1.4059 
B( 15-C , 41-H ) :   0.9174 B( 16-C , 17-C ) :   0.9666 B( 16-C , 21-C ) :   1.3181 
B( 17-C , 18-F ) :   0.9815 B( 17-C , 19-F ) :   0.9460 B( 17-C , 20-F ) :   0.9679 
B( 21-C , 22-F ) :   0.9623 B( 21-C , 23-C ) :   1.2843 B( 23-C , 24-F ) :   0.9639 
B( 25-C , 26-S ) :   1.1231 B( 25-C , 42-H ) :   0.9035 B( 27-N , 28-S ) :   1.0943 
B( 27-N , 29-C ) :   0.1303 B( 28-S , 29-C ) :   1.1556 B( 29-C , 30-N ) :   1.0027 
B( 30-N , 31-C ) :   0.9241 B( 30-N , 32-C ) :   1.0180 B( 31-C , 43-H ) :   0.9147 
B( 31-C , 44-H ) :   0.9313 B( 31-C , 45-H ) :   0.9255 B( 32-C , 33-O ) :   1.7995 


-------
TIMINGS
-------

Total SCF time: 0 days 0 hours 5 min 10 sec 

Total time                  ....     310.418 sec
Sum of individual times     ....     309.897 sec  ( 99.8%)

SCF preparation             ....       0.291 sec  (  0.1%)
Fock matrix formation       ....     307.500 sec  ( 99.1%)
  Startup                   ....       0.098 sec  (  0.0% of F)
  Split-RI-J                ....      43.023 sec  ( 14.0% of F)
  Chain of spheres X        ....     236.462 sec  ( 76.9% of F)
  XC integration            ....      27.016 sec  (  8.8% of F)
    Basis function eval.    ....      10.397 sec  ( 38.5% of XC)
    Density eval.           ....       6.101 sec  ( 22.6% of XC)
    XC-Functional eval.     ....       1.249 sec  (  4.6% of XC)
    XC-Potential eval.      ....       7.669 sec  ( 28.4% of XC)
Diagonalization             ....       0.000 sec  (  0.0%)
Density matrix formation    ....       0.486 sec  (  0.2%)
Total Energy calculation    ....       0.085 sec  (  0.0%)
Population analysis         ....       0.064 sec  (  0.0%)
Orbital Transformation      ....       0.154 sec  (  0.0%)
Orbital Orthonormalization  ....       0.000 sec  (  0.0%)
DIIS solution               ....       0.747 sec  (  0.2%)
SOSCF solution              ....       0.571 sec  (  0.2%)
Finished LeanSCF after 310.5 sec

Maximum memory used throughout the entire LEANSCF-calculation: 79.0 MB

-------------------------   --------------------
FINAL SINGLE POINT ENERGY     -2525.220529082608
-------------------------   --------------------


------------------------------------------------------------------------------
                              ORCA PROPERTY CALCULATIONS
------------------------------------------------------------------------------

GBWName                                 ... /home/nmrbox/aojoawo/Documents/ERDOS/inputs/CHEMBL3945471.gbw
Number of atoms                         ...     46
Number of basis functions               ...    508
Max core memory                         ...   1024 MB

Electric properties:
Dipole moment                           ... YES
Quadrupole moment                       ...  NO
Static polarizability (Dipole/Dipole)   ...  NO
Static polarizability (Dipole/Quad.)    ...  NO
Static polarizability (Quad./Quad.)     ...  NO
Static polarizability (Velocity)        ...  NO

Atomic electric properties:
Dipole moment                           ...  NO
Quadrupole moment                       ...  NO
Static polarizability                   ...  NO

Choice of electric origin               ... Center of mass
Position of electric origin             ...     0.986308    -0.236562    -0.170318

General magnetic properties:
Magnetizability                         ...  NO

EPR properties:
g-Tensor (aka g-matrix)                 ...  NO
Zero-Field splitting spin-orbit         ...  NO
Zero-field splitting spin-spin          ...  NO
Hyperfine couplings                     ...  NO (   0 nuclei)
Quadrupole couplings                    ...  NO (   0 nuclei)
Contact density                         ...  NO (   0 nuclei)

NMR properties:
Chemical shifts                         ...  NO (   0 nuclei)
Spin-rotation constants                 ...  NO (   0 nuclei)
Spin-spin couplings                     ...  NO (   0 nuclei,    0 pairs)

Choice of magnetic origin               ... GIAO
Position of magnetic origin             ...     0.000000     0.000000     0.000000

Properties with geometric perturbations:
SCF Hessian                             ...  NO
IR spectrum                             ...  NO
VCD spectrum                            ...  NO
X-ray spectroscopy properties:
SCF XES/XAS/RIXS spectra                ...  NO


-------------
DIPOLE MOMENT
-------------

Method             : SCF
Type of density    : Electron Density
Multiplicity       :   1
Irrep              :   0
Energy             : -2525.2205290826077544 Eh
Relativity type    : 
Basis              : AO
                                X                 Y                 Z
Electronic contribution:     40.963958537       4.652294155     -18.655253604
Nuclear contribution   :    -42.079400997      -6.922832623      20.573724162
                        -----------------------------------------
Total Dipole Moment    :     -1.115442460      -2.270538468       1.918470558
                        -----------------------------------------
Magnitude (a.u.)       :      3.174915132
Magnitude (Debye)      :      8.069992933



--------------------
Rotational spectrum 
--------------------
 
Rotational constants in cm-1:             0.005630             0.001615             0.001375 
Rotational constants in MHz :           168.781736            48.405018            41.224145 

Dipole components along the rotational axes: 
x,y,z [a.u.] :    -1.907629     2.044131    -1.504184 
x,y,z [Debye]:    -4.848806     5.195768    -3.823331 

 

Dipole moment calculation done in   0.0 sec 

Maximum memory used throughout the entire PROP-calculation: 39.2 MB

--------------------------------
SUGGESTED CITATIONS FOR THIS RUN
--------------------------------

Below you find a list of papers that are relevant to this ORCA run
We neither can nor want to force you to cite these papers, but we appreciate if you do
You receive ORCA, which is the product of decades of hard work by many enthusiastic individuals, for free
The only thing we kindly ask in return is that you cite our papers,
We deeply appreciate it, if you show your appreciation for ORCA by not just citing the generic ORCA reference.

Please note that relegating all ORCA citations to the supporting information does *not* help us.
SI sections are not indexed - citations you put there will not count into any citation statistics
But we need these citations in order to attract the funding resources that allow us to do what we are doing

Therefore, if you are a happy ORCA user, please consider citing a few of the papers listed below in the main body of your paper

In addition to the list printed below, the program has created the file /home/nmrbox/aojoawo/Documents/ERDOS/inputs/CHEMBL3945471.bibtex that contains the list in bibtex format
You can import this file easily into all common literature databanks and citation aid programs


List of essential papers. We consider these as the minimum necessary citations

  1. Neese,F.
     Software update: the ORCA program system, version 5.0
     WIRES Comput. Molec. Sci., 2022 12(1)e1606
     doi.org/10.1002/wcms.1606

List of papers to cite with high priority. The work reported in these papers was absolutely
necessary for this run to complete.
Our perspective: the developers of density functionals and basis sets usually get cited in chemistry papers
Good! But without the algorithms to do something with them, the functionals or basis sets would not do anything.
Hence, in our opinion, the algorithm design and method developments papers are equally worthy of getting cited

  1. Neese,F.
     An improvement of the resolution of the identity approximation for the formation of the Coulomb matrix
     J. Comp. Chem., 2003 24(14)1740-1747
     doi.org/10.1002/jcc.10318
  2. Neese,F.; Wennmohs,F.; Hansen,A.; Becker,U.
     Efficient, approximate and parallel Hartree-Fock and hybrid DFT calculations. A 'chain-of-spheres' algorithm for the Hartree-Fock exchange
     Chem. Phys., 2009 356(1-3)98-109
     doi.org/10.1016/j.chemphys.2008.10.036
  3. Helmich-Paris,B.; de Souza,B.; Neese,F.; Izsák,R.
     An improved chain of spheres for exchange algorithm
     J. Chem. Phys., 2021 155 104109
     doi.org/doi: 10.1063/5.0058766.
  4. Neese,F.
     The SHARK Integral Generation and Digestion System
     J. Comp. Chem., 2022  1-16
     doi.org/10.1002/jcc.26942

List of suggested additional citations. These are papers that are important in the 'surrounding' of 
of this run, or papers that preceded the highly important papers. If you like your results we are grateful for a citation.

  1. Izsak,R.; Neese,F.
     An overlap fitted chain of spheres exchange method
     J. Chem. Phys., 2011 135 144105
     doi.org/10.1063/1.3646921
  2. Izsak,R.; Hansen,A.; Neese,F.
     The resolution of identity and chain of spheres approximations for the LPNO-CCSD singles Fock term
     Molec. Phys., 2012 110 2413-2417
     doi.org/10.1080/00268976.2012.687466
  3. Neese,F.
     The ORCA program system
     WIRES Comput. Molec. Sci., 2012 2(1)73-78
     doi.org/10.1002/wcms.81
  4. Izsak,R.; Neese,F.; Klopper,W.
     Robust fitting techniques in the chain of spheres approximation to the Fock exchange: The role of the complementary space
     J. Chem. Phys., 2013 139 
     doi.org/10.1063/1.4819264
  5. Neese,F.
     Software update: the ORCA program system, version 4.0
     WIRES Comput. Molec. Sci., 2018 8(1)1-6
     doi.org/10.1002/wcms.1327
  6. Neese,F.; Wennmohs,F.; Becker,U.; Riplinger,C.
     The ORCA quantum chemistry program package
     J. Chem. Phys., 2020 152 Art. No. L224108
     doi.org/10.1063/5.0004608

List of optional additional citations

  1. Neese,F.
     Approximate second-order SCF convergence for spin unrestricted wavefunctions
     Chem. Phys. Lett., 2000 325(1-3)93-98
     doi.org/10.1016/s0009-2614(00)00662-x

Timings for individual modules:

Sum of individual times          ...      323.185 sec (=   5.386 min)
Startup calculation              ...        8.462 sec (=   0.141 min)   2.6 %
SCF iterations                   ...      314.567 sec (=   5.243 min)  97.3 %
Property calculations            ...        0.156 sec (=   0.003 min)   0.0 %
                             ****ORCA TERMINATED NORMALLY****
TOTAL RUN TIME: 0 days 0 hours 5 minutes 24 seconds 7 msec
