
                                 *****************
                                 * O   R   C   A *
                                 *****************

                                            #,                                       
                                            ###                                      
                                            ####                                     
                                            #####                                    
                                            ######                                   
                                           ########,                                 
                                     ,,################,,,,,                         
                               ,,#################################,,                 
                          ,,##########################################,,             
                       ,#########################################, ''#####,          
                    ,#############################################,,   '####,        
                  ,##################################################,,,,####,       
                ,###########''''           ''''###############################       
              ,#####''   ,,,,##########,,,,          '''####'''          '####       
            ,##' ,,,,###########################,,,                        '##       
           ' ,,###''''                  '''############,,,                           
         ,,##''                                '''############,,,,        ,,,,,,###''
      ,#''                                            '''#######################'''  
     '                                                          ''''####''''         
             ,#######,   #######,   ,#######,      ##                                
            ,#'     '#,  ##    ##  ,#'     '#,    #''#        ,####,   ,####,        
            ##       ##  ##   ,#'  ##            #'  '#       #'       #'  '#        
            ##       ##  #######   ##           ,######,      #####,   #    #        
            '#,     ,#'  ##    ##  '#,     ,#' ,#      #,     #,   #   #,  ,#        
             '#######'   ##     ##  '#######'  #'      '#     '####' # '####'        



                #########################################################
                #                        -***-                          #
                #          Department of theory and spectroscopy        #
                #                                                       #
                #                      Frank Neese                      #
                #                                                       #
                #     Directorship, Architecture, Infrastructure        #
                #                    SHARK, DRIVERS                     #
                #        Core code/Algorithms in most modules           #
                #                                                       #
                #        Max Planck Institute fuer Kohlenforschung      #
                #                Kaiser Wilhelm Platz 1                 #
                #                 D-45470 Muelheim/Ruhr                 #
                #                      Germany                          #
                #                                                       #
                #                  All rights reserved                  #
                #                        -***-                          #
                #########################################################


                         Program Version 6.0.0  -   RELEASE  -


 With contributions from (in alphabetic order):
   Daniel Aravena         : Magnetic Suceptibility
   Michael Atanasov       : Ab Initio Ligand Field Theory (pilot matlab implementation)
   Alexander A. Auer      : GIAO ZORA, VPT2 properties, NMR spectrum
   Ute Becker             : All parallelization in ORCA, NUMFREQ, NUMCALC
   Giovanni Bistoni       : ED, misc. LED, open-shell LED, HFLD
   Martin Brehm           : Molecular dynamics
   Dmytro Bykov           : pre 5.0 version of the SCF Hessian
   Marcos Casanova-Páez   : Triplet and SCS-CIS(D). UHF-(DLPNO)-IP/EA/STEOM-CCSD. UHF-CVS-IP/STEOM-CCSD
   Vijay G. Chilkuri      : MRCI spin determinant printing, contributions to CSF-ICE
   Pauline Colinet        : FMM embedding
   Dipayan Datta          : RHF DLPNO-CCSD density
   Achintya Kumar Dutta   : EOM-CC, STEOM-CC
   Nicolas Foglia         : Exact transition moments, OPA infrastructure, MCD improvements
   Dmitry Ganyushin       : Spin-Orbit,Spin-Spin,Magnetic field MRCI
   Miquel Garcia          : C-PCM and meta-GGA Hessian, CCSD/C-PCM, Gaussian charge scheme
   Tiago L. C. Gouveia    : GS-ROHF, GS-ROCIS
   Yang Guo               : DLPNO-NEVPT2, F12-NEVPT2, CIM, IAO-localization
   Andreas Hansen         : Spin unrestricted coupled pair/coupled cluster methods
   Ingolf Harden          : AUTO-CI MPn and infrastructure 
   Benjamin Helmich-Paris : MC-RPA, TRAH-(SCF,CASSCF), AVAS, COSX integrals, SCF dyn. polar.
   Lee Huntington         : MR-EOM, pCC
   Robert Izsak           : Overlap fitted RIJCOSX, COSX-SCS-MP3, EOM
   Riya Kayal             : Wick's Theorem for AUTO-CI, AUTO-CI UHF-CCSDT
   Emily Kempfer          : AUTO-CI, RHF CISDT and CCSDT
   Christian Kollmar      : KDIIS, OOCD, Brueckner-CCSD(T), CCSD density, CASPT2, CASPT2-K, improved NEVPT2
   Axel Koslowski         : Symmetry handling
   Simone Kossmann        : Meta GGA functionals, TD-DFT gradient, OOMP2, (MP2 Hessian; deprecated post 5.0)
   Lucas Lang             : DCDCAS
   Marvin Lechner         : AUTO-CI (C++ implementation), FIC-MRCC
   Spencer Leger          : CASSCF response
   Dagmar Lenk            : GEPOL surface, SMD, ORCA-2-JSON
   Dimitrios Liakos       : Extrapolation schemes; Compound Job, initial MDCI parallelization
   Dimitrios Manganas     : Further ROCIS development; embedding schemes. LFT, Crystal Embedding
   Dimitrios Pantazis     : SARC Basis sets
   Anastasios Papadopoulos: AUTO-CI, single reference methods and gradients
   Taras Petrenko         : pre 6.0 DFT Hessian and TD-DFT gradient, (ASA, deprecated), ECA, 1-Electron XAS/XES, NRVS
   Peter Pinski           : DLPNO-MP2, DLPNO-MP2 Gradient
   Christoph Reimann      : Effective Core Potentials
   Marius Retegan         : Local ZFS, SOC
   Christoph Riplinger    : Optimizer, TS searches, QM/MM, DLPNO-CCSD(T), (RO)-DLPNO pert. Triples
   Michael Roemelt        : Original ROCIS implementation
   Masaaki Saitow         : Open-shell DLPNO-CCSD energy and density
   Barbara Sandhoefer     : DKH picture change effects
   Kantharuban Sivalingam : CASSCF convergence/infrastructure, NEVPT2 and variants, FIC-MRCI
   Bernardo de Souza      : ESD, SOC TD-DFT
   Georgi Stoychev        : AutoAux, RI-MP2 NMR, DLPNO-MP2 response, X2C
   Van Anh Tran           : RI-MP2 g-tensors
   Willem Van den Heuvel  : Paramagnetic NMR
   Zikuan Wang            : NOTCH, Electric field optimization 
   Frank Wennmohs         : Technical directorship and infrastructure
   Hang Xu                : AUTO-CI-Response properties 


 We gratefully acknowledge several colleagues who have allowed us to
 interface, adapt or use parts of their codes:
   Stefan Grimme, W. Hujo, H. Kruse, P. Pracht,  : VdW corrections, initial TS optimization,
                  C. Bannwarth, S. Ehlert,         DFT functionals, gCP, sTDA/sTD-DF
                  L. Wittmann, M. Mueller
   Ed Valeev, F. Pavosevic, A. Kumar             : LibInt (2-el integral package), F12 methods
   Garnet Chan, S. Sharma, J. Yang, R. Olivares  : DMRG
   Ulf Ekstrom                                   : XCFun DFT Library
   Mihaly Kallay                                 : mrcc  (arbitrary order and MRCC methods)
   Frank Weinhold                                : gennbo (NPA and NBO analysis)
   Simon Mueller                                 : openCOSMO-RS
   Christopher J. Cramer and Donald G. Truhlar   : smd solvation model
   Lars Goerigk                                  : TD-DFT with DH, B97 family of functionals
   V. Asgeirsson, H. Jonsson                     : NEB implementation
   FAccTs GmbH                                   : IRC, NEB, NEB-TS, DLPNO-Multilevel, CI-OPT
                                                   MM, QMMM, 2- and 3-layer-ONIOM, Crystal-QMMM,
                                                   LR-CPCM, SF, NACMEs, symmetry and pop. for TD-DFT,
                                                   nearIR, NL-DFT gradient (VV10), updates on ESD,
                                                   ML-optimized integration grids, MBIS, APM,
                                                   GOAT, DOCKER, SOLVATOR, interface openCOSMO-RS
   S Lehtola, MJT Oliveira, MAL Marques          : LibXC Library
   Liviu Ungur et al                             : ANISO software


 Your calculation uses the libint2 library for the computation of 2-el integrals
 For citations please refer to: http://libint.valeyev.net

 Your ORCA version has been built with support for libXC version: 6.2.2
 For citations please refer to: https://libxc.gitlab.io

 This ORCA versions uses:
   CBLAS   interface :  Fast vector & matrix operations
   LAPACKE interface :  Fast linear algebra routines
   SCALAPACK package :  Parallel linear algebra routines
   Shared memory     :  Shared parallel matrices
   BLAS/LAPACK       :  OpenBLAS 0.3.27  USE64BITINT DYNAMIC_ARCH NO_AFFINITY SkylakeX SINGLE_THREADED
        Core in use  :  SkylakeX
   Copyright (c) 2011-2014, The OpenBLAS Project


Warning: RI is on but no J-basis has been assigned. Assigning Def2/J (nothing to worry about!)
================================================================================

----- Orbital basis set information -----
Your calculation utilizes the basis: 6-31G*
   H-He, Li-Ne : W. J. Hehre, R. Ditchfield and J.A. Pople, J. Chem. Phys. 56, 2257 (1972).
                 Note: He and Ne are unpublished basis sets taken from the Gaussian program.
                 Note: Li and B from J. D. Dill and J. A. Pople, J. Chem. Phys. 62, 2921 (1975).
   Na - Ar     : M. M. Francl, W. J. Pietro, W. J. Hehre, J. S. Binkley, M. S. Gordon, 
                 D. J. DeFrees and J. A. Pople, J. Chem. Phys. 77, 3654 (1982).
   K - Zn      : V. A. Rassolov, J. A. Pople, M. A. Ratner, and T. L. Windus, J. Chem. Phys. 109, 1223 (1998).

----- AuxJ basis set information -----
Your calculation utilizes the auxiliary basis: def2/J
   F. Weigend, Phys. Chem. Chem. Phys. 8, 1057 (2006).

================================================================================
                                        WARNINGS
                       Please study these warnings very carefully!
================================================================================


================================================================================
                                       INPUT FILE
================================================================================
NAME = /home/nmrbox/aojoawo/Documents/ERDOS/inputs/CHEMBL4251467.inp
|  1> ! B3LYP 6-31G* SP
|  2> 
|  3> * xyz 0 1
|  4> O 7.4309 2.0603 1.3991
|  5> C 6.8086 0.9624 1.3803
|  6> O 7.5259 -0.2294 1.4317
|  7> C 5.3324 0.9382 1.2871
|  8> C 4.6392 -0.2802 1.2353
|  9> C 3.2473 -0.2957 1.1280
| 10> C 2.5440 0.9188 1.0640
| 11> C 1.0712 0.9634 0.9414
| 12> O 0.4687 2.0306 1.2390
| 13> N 0.3221 -0.1690 0.4666
| 14> C -1.1452 -0.1663 0.4236
| 15> C -1.6515 0.6417 -0.7561
| 16> C -2.8352 1.3875 -0.6307
| 17> C -3.3397 2.1073 -1.7164
| 18> C -2.6684 2.1010 -2.9505
| 19> C -3.2472 2.8402 -4.1315
| 20> F -3.8656 4.0085 -3.7158
| 21> F -4.1803 2.0354 -4.7606
| 22> F -2.2561 3.1739 -5.0384
| 23> C -1.5072 1.3204 -3.0905
| 24> C -1.0018 0.6011 -2.0041
| 25> C -1.6667 -1.5919 0.3411
| 26> N -1.3987 -2.2931 -0.7987
| 27> C -1.8078 -3.5721 -0.9886
| 28> C -2.5373 -4.2214 0.0001
| 29> C -2.8284 -3.5511 1.1865
| 30> C -2.3913 -2.2263 1.3907
| 31> C -2.7156 -1.5252 2.6978
| 32> F -1.5474 -1.1001 3.3058
| 33> F -3.3733 -2.3626 3.5832
| 34> F -3.5345 -0.4379 2.4536
| 35> N 3.2349 2.0900 1.1394
| 36> C 4.5900 2.1294 1.2451
| 37> H 8.5379 -0.2238 1.4910
| 38> H 5.1705 -1.2223 1.2749
| 39> H 2.7367 -1.2488 1.1208
| 40> H 0.8327 -0.9539 0.0015
| 41> H -1.5032 0.3286 1.3468
| 42> H -3.3728 1.4079 0.3092
| 43> H -4.2582 2.6659 -1.5924
| 44> H -0.9921 1.2609 -4.0420
| 45> H -0.1080 0.0044 -2.1419
| 46> H -1.5689 -4.0819 -1.9119
| 47> H -2.8730 -5.2394 -0.1497
| 48> H -3.4007 -4.0768 1.9392
| 49> H 5.0830 3.0913 1.2936
| 50> *
| 51> 
| 52>                          ****END OF INPUT****
================================================================================

                       ****************************
                       * Single Point Calculation *
                       ****************************

---------------------------------
CARTESIAN COORDINATES (ANGSTROEM)
---------------------------------
  O      7.430900    2.060300    1.399100
  C      6.808600    0.962400    1.380300
  O      7.525900   -0.229400    1.431700
  C      5.332400    0.938200    1.287100
  C      4.639200   -0.280200    1.235300
  C      3.247300   -0.295700    1.128000
  C      2.544000    0.918800    1.064000
  C      1.071200    0.963400    0.941400
  O      0.468700    2.030600    1.239000
  N      0.322100   -0.169000    0.466600
  C     -1.145200   -0.166300    0.423600
  C     -1.651500    0.641700   -0.756100
  C     -2.835200    1.387500   -0.630700
  C     -3.339700    2.107300   -1.716400
  C     -2.668400    2.101000   -2.950500
  C     -3.247200    2.840200   -4.131500
  F     -3.865600    4.008500   -3.715800
  F     -4.180300    2.035400   -4.760600
  F     -2.256100    3.173900   -5.038400
  C     -1.507200    1.320400   -3.090500
  C     -1.001800    0.601100   -2.004100
  C     -1.666700   -1.591900    0.341100
  N     -1.398700   -2.293100   -0.798700
  C     -1.807800   -3.572100   -0.988600
  C     -2.537300   -4.221400    0.000100
  C     -2.828400   -3.551100    1.186500
  C     -2.391300   -2.226300    1.390700
  C     -2.715600   -1.525200    2.697800
  F     -1.547400   -1.100100    3.305800
  F     -3.373300   -2.362600    3.583200
  F     -3.534500   -0.437900    2.453600
  N      3.234900    2.090000    1.139400
  C      4.590000    2.129400    1.245100
  H      8.537900   -0.223800    1.491000
  H      5.170500   -1.222300    1.274900
  H      2.736700   -1.248800    1.120800
  H      0.832700   -0.953900    0.001500
  H     -1.503200    0.328600    1.346800
  H     -3.372800    1.407900    0.309200
  H     -4.258200    2.665900   -1.592400
  H     -0.992100    1.260900   -4.042000
  H     -0.108000    0.004400   -2.141900
  H     -1.568900   -4.081900   -1.911900
  H     -2.873000   -5.239400   -0.149700
  H     -3.400700   -4.076800    1.939200
  H      5.083000    3.091300    1.293600

----------------------------
CARTESIAN COORDINATES (A.U.)
----------------------------
  NO LB      ZA    FRAG     MASS         X           Y           Z
   0 O     8.0000    0    15.999   14.042366    3.893403    2.643916
   1 C     6.0000    0    12.011   12.866389    1.818672    2.608389
   2 O     8.0000    0    15.999   14.221890   -0.433503    2.705521
   3 C     6.0000    0    12.011   10.076776    1.772941    2.432267
   4 C     6.0000    0    12.011    8.766817   -0.529501    2.334379
   5 C     6.0000    0    12.011    6.136508   -0.558792    2.131611
   6 C     6.0000    0    12.011    4.807463    1.736280    2.010669
   7 C     6.0000    0    12.011    2.024275    1.820562    1.778988
   8 O     8.0000    0    15.999    0.885715    3.837278    2.341371
   9 N     7.0000    0    14.007    0.608681   -0.319364    0.881746
  10 C     6.0000    0    12.011   -2.164114   -0.314261    0.800488
  11 C     6.0000    0    12.011   -3.120883    1.212637   -1.428822
  12 C     6.0000    0    12.011   -5.357752    2.621995   -1.191850
  13 C     6.0000    0    12.011   -6.311118    3.982220   -3.243526
  14 C     6.0000    0    12.011   -5.042545    3.970315   -5.575637
  15 C     6.0000    0    12.011   -6.136319    5.367200   -7.807404
  16 F     9.0000    0    18.998   -7.304925    7.574967   -7.021844
  17 F     9.0000    0    18.998   -7.899622    3.846349   -8.996230
  18 F     9.0000    0    18.998   -4.263411    5.997802   -9.521196
  19 C     6.0000    0    12.011   -2.848195    2.495194   -5.840199
  20 C     6.0000    0    12.011   -1.893128    1.135914   -3.787200
  21 C     6.0000    0    12.011   -3.149607   -3.008255    0.644586
  22 N     7.0000    0    14.007   -2.643160   -4.333331   -1.509324
  23 C     6.0000    0    12.011   -3.416247   -6.750291   -1.868183
  24 C     6.0000    0    12.011   -4.794802   -7.977290    0.000189
  25 C     6.0000    0    12.011   -5.344901   -6.710606    2.242160
  26 C     6.0000    0    12.011   -4.518902   -4.207097    2.628042
  27 C     6.0000    0    12.011   -5.131740   -2.882210    5.098103
  28 F     9.0000    0    18.998   -2.924162   -2.078888    6.247057
  29 F     9.0000    0    18.998   -6.374613   -4.464667    6.771267
  30 F     9.0000    0    18.998   -6.679237   -0.827511    4.636632
  31 N     7.0000    0    14.007    6.113075    3.949528    2.153154
  32 C     6.0000    0    12.011    8.673843    4.023983    2.352898
  33 H     1.0000    0     1.008   16.134293   -0.422921    2.817582
  34 H     1.0000    0     1.008    9.770829   -2.309812    2.409212
  35 H     1.0000    0     1.008    5.171614   -2.359890    2.118005
  36 H     1.0000    0     1.008    1.573575   -1.802610    0.002835
  37 H     1.0000    0     1.008   -2.840636    0.620964    2.545083
  38 H     1.0000    0     1.008   -6.373668    2.660545    0.584303
  39 H     1.0000    0     1.008   -8.046832    5.037821   -3.009200
  40 H     1.0000    0     1.008   -1.874797    2.382756   -7.638273
  41 H     1.0000    0     1.008   -0.204090    0.008315   -4.047604
  42 H     1.0000    0     1.008   -2.964791   -7.713673   -3.612967
  43 H     1.0000    0     1.008   -5.429183   -9.901031   -0.282892
  44 H     1.0000    0     1.008   -6.426392   -7.704036    3.664557
  45 H     1.0000    0     1.008    9.605478    5.841710    2.444550

--------------------------------
INTERNAL COORDINATES (ANGSTROEM)
--------------------------------
 O      0   0   0     0.000000000000     0.00000000     0.00000000
 C      1   0   0     1.262139112776     0.00000000     0.00000000
 O      2   1   0     1.391958508721   119.35109205     0.00000000
 C      2   1   3     1.479337121822   120.47581646   180.78026263
 C      4   2   1     1.402750170201   120.64114743   178.54218295
 C      5   4   2     1.396115736606   120.34205119   180.92409042
 C      6   5   4     1.404897554984   119.53781078     0.37995292
 C      7   6   5     1.478566792539   121.90463974   179.60973650
 O      8   7   6     1.261145451564   118.80537082   161.46262153
 N      8   7   6     1.438372556051   121.49262562   340.15934393
 C     10   8   7     1.467932416700   121.92400249   175.93953607
 C     11  10   8     1.516870389981   110.94042092    77.03829761
 C     12  11  10     1.404666682882   119.64759907   215.12216429
 C     13  12  11     1.396916883712   120.56656758   181.86759149
 C     14  13  12     1.404879421872   120.52076801   359.76150769
 C     15  14  13     1.508703774768   120.14035175   177.76454631
 F     16  15  14     1.385694749936   110.45468447    35.93944814
 F     16  15  14     1.383526458005   109.24893939   276.02968660
 F     16  15  14     1.384233546046   110.87240298   155.90936930
 C     15  14  13     1.406172748989   118.98217439     2.27887469
 C     20  15  14     1.397528751046   120.46151692   357.67124555
 C     11  10   8     1.520231515263   110.04492911   199.06707884
 N     22  11  10     1.364789170531   117.37144261   293.32727763
 C     23  22  11     1.356195347286   122.83628419   179.85131863
 C     24  23  22     1.389708037683   119.95722663     0.24487843
 C     25  24  23     1.393408145519   119.38384679   359.31149997
 C     26  25  24     1.409911022015   120.70113073     0.00000000
 C     27  26  25     1.518295791340   119.49579260   180.42275231
 F     28  27  26     1.383858825892   109.86326818   123.07019761
 F     28  27  26     1.384825335557   111.87834786     3.37291982
 F     28  27  26     1.382914364666   109.72584595   243.66685740
 N      7   6   5     1.361887443954   119.14028923   358.48941014
 C     32   7   6     1.359787064213   122.32924564     1.49970344
 H      3   2   1     1.013751374845   120.78761253     0.47260234
 H      5   4   2     1.082312459505   120.80507737     0.76186142
 H      6   5   4     1.081278784588   118.75665654   181.86127777
 H     10   8   7     1.045513452807   118.91660121   346.19036309
 H     11  10   8     1.106972560636   107.43704430   319.67026027
 H     13  12  11     1.082978268480   120.38447508     1.53569056
 H     14  13  12     1.082151657579   118.91170678   179.48398519
 H     20  15  14     1.083614557857   120.69345925   177.31071004
 H     21  20  15     1.083475043552   118.87609040   179.72484151
 H     24  23  22     1.081412104611   119.83466497   179.95204881
 H     25  24  23     1.082339378384   120.25127217   179.50856874
 H     26  25  24     1.081871096758   117.97849431   179.78212001
 H     33  32   7     1.081967125194   118.90279663   179.53809577

---------------------------
INTERNAL COORDINATES (A.U.)
---------------------------
 O      0   0   0     0.000000000000     0.00000000     0.00000000
 C      1   0   0     2.385097266058     0.00000000     0.00000000
 O      2   1   0     2.630420371264   119.35109205     0.00000000
 C      2   1   3     2.795542019986   120.47581646   180.78026263
 C      4   2   1     2.650813655992   120.64114743   178.54218295
 C      5   4   2     2.638276393444   120.34205119   180.92409042
 C      6   5   4     2.654871625135   119.53781078     0.37995292
 C      7   6   5     2.794086308610   121.90463974   179.60973650
 O      8   7   6     2.383219518496   118.80537082   161.46262153
 N      8   7   6     2.718130209484   121.49262562   340.15934393
 C     10   8   7     2.773990250669   121.92400249   175.93953607
 C     11  10   8     2.866469617718   110.94042092    77.03829761
 C     12  11  10     2.654435340091   119.64759907   215.12216429
 C     13  12  11     2.639790342067   120.56656758   181.86759149
 C     14  13  12     2.654837358520   120.52076801   359.76150769
 C     15  14  13     2.851036951525   120.14035175   177.76454631
 F     16  15  14     2.618583582591   110.45468447    35.93944814
 F     16  15  14     2.614486104664   109.24893939   276.02968660
 F     16  15  14     2.615822307414   110.87240298   155.90936930
 C     15  14  13     2.657281392573   118.98217439     2.27887469
 C     20  15  14     2.640946603758   120.46151692   357.67124555
 C     11  10   8     2.872821224004   110.04492911   199.06707884
 N     22  11  10     2.579077762846   117.37144261   293.32727763
 C     23  22  11     2.562837790469   122.83628419   179.85131863
 C     24  23  22     2.626167597329   119.95722663     0.24487843
 C     25  24  23     2.633159787807   119.38384679   359.31149997
 C     26  25  24     2.664345704806   120.70113073     0.00000000
 C     27  26  25     2.869163235917   119.49579260   180.42275231
 F     28  27  26     2.615114188946   109.86326818   123.07019761
 F     28  27  26     2.616940627518   111.87834786     3.37291982
 F     28  27  26     2.613329415885   109.72584595   243.66685740
 N      7   6   5     2.573594294299   119.14028923   358.48941014
 C     32   7   6     2.569625151811   122.32924564     1.49970344
 H      3   2   1     1.915712466343   120.78761253     0.47260234
 H      5   4   2     2.045274139795   120.80507737     0.76186142
 H      6   5   4     2.043320777290   118.75665654   181.86127777
 H     10   8   7     1.975734095135   118.91660121   346.19036309
 H     11  10   8     2.091874977367   107.43704430   319.67026027
 H     13  12  11     2.046532336415   120.38447508     1.53569056
 H     14  13  12     2.044970268192   118.91170678   179.48398519
 H     20  15  14     2.047734749080   120.69345925   177.31071004
 H     21  20  15     2.047471105252   118.87609040   179.72484151
 H     24  23  22     2.043572715623   119.83466497   179.95204881
 H     25  24  23     2.045325009104   120.25127217   179.50856874
 H     26  25  24     2.044440085077   117.97849431   179.78212001
 H     33  32   7     2.044621552522   118.90279663   179.53809577

---------------------
BASIS SET INFORMATION
---------------------
There are 5 groups of distinct atoms

 Group   1 Type O   : 10s4p1d contracted to 3s2p1d pattern {631/31/1}
 Group   2 Type C   : 10s4p1d contracted to 3s2p1d pattern {631/31/1}
 Group   3 Type N   : 10s4p1d contracted to 3s2p1d pattern {631/31/1}
 Group   4 Type F   : 10s4p1d contracted to 3s2p1d pattern {631/31/1}
 Group   5 Type H   : 4s contracted to 2s pattern {31}

Atom   0O    basis set group =>   1
Atom   1C    basis set group =>   2
Atom   2O    basis set group =>   1
Atom   3C    basis set group =>   2
Atom   4C    basis set group =>   2
Atom   5C    basis set group =>   2
Atom   6C    basis set group =>   2
Atom   7C    basis set group =>   2
Atom   8O    basis set group =>   1
Atom   9N    basis set group =>   3
Atom  10C    basis set group =>   2
Atom  11C    basis set group =>   2
Atom  12C    basis set group =>   2
Atom  13C    basis set group =>   2
Atom  14C    basis set group =>   2
Atom  15C    basis set group =>   2
Atom  16F    basis set group =>   4
Atom  17F    basis set group =>   4
Atom  18F    basis set group =>   4
Atom  19C    basis set group =>   2
Atom  20C    basis set group =>   2
Atom  21C    basis set group =>   2
Atom  22N    basis set group =>   3
Atom  23C    basis set group =>   2
Atom  24C    basis set group =>   2
Atom  25C    basis set group =>   2
Atom  26C    basis set group =>   2
Atom  27C    basis set group =>   2
Atom  28F    basis set group =>   4
Atom  29F    basis set group =>   4
Atom  30F    basis set group =>   4
Atom  31N    basis set group =>   3
Atom  32C    basis set group =>   2
Atom  33H    basis set group =>   5
Atom  34H    basis set group =>   5
Atom  35H    basis set group =>   5
Atom  36H    basis set group =>   5
Atom  37H    basis set group =>   5
Atom  38H    basis set group =>   5
Atom  39H    basis set group =>   5
Atom  40H    basis set group =>   5
Atom  41H    basis set group =>   5
Atom  42H    basis set group =>   5
Atom  43H    basis set group =>   5
Atom  44H    basis set group =>   5
Atom  45H    basis set group =>   5
---------------------------------
AUXILIARY/J BASIS SET INFORMATION
---------------------------------
There are 5 groups of distinct atoms

 Group   1 Type O   : 12s5p4d2f1g contracted to 6s4p3d1f1g pattern {711111/2111/211/2/1}
 Group   2 Type C   : 12s5p4d2f1g contracted to 6s4p3d1f1g pattern {711111/2111/211/2/1}
 Group   3 Type N   : 12s5p4d2f1g contracted to 6s4p3d1f1g pattern {711111/2111/211/2/1}
 Group   4 Type F   : 12s5p4d2f1g contracted to 6s4p3d1f1g pattern {711111/2111/211/2/1}
 Group   5 Type H   : 5s2p1d contracted to 3s1p1d pattern {311/2/1}

Atom   0O    basis set group =>   1
Atom   1C    basis set group =>   2
Atom   2O    basis set group =>   1
Atom   3C    basis set group =>   2
Atom   4C    basis set group =>   2
Atom   5C    basis set group =>   2
Atom   6C    basis set group =>   2
Atom   7C    basis set group =>   2
Atom   8O    basis set group =>   1
Atom   9N    basis set group =>   3
Atom  10C    basis set group =>   2
Atom  11C    basis set group =>   2
Atom  12C    basis set group =>   2
Atom  13C    basis set group =>   2
Atom  14C    basis set group =>   2
Atom  15C    basis set group =>   2
Atom  16F    basis set group =>   4
Atom  17F    basis set group =>   4
Atom  18F    basis set group =>   4
Atom  19C    basis set group =>   2
Atom  20C    basis set group =>   2
Atom  21C    basis set group =>   2
Atom  22N    basis set group =>   3
Atom  23C    basis set group =>   2
Atom  24C    basis set group =>   2
Atom  25C    basis set group =>   2
Atom  26C    basis set group =>   2
Atom  27C    basis set group =>   2
Atom  28F    basis set group =>   4
Atom  29F    basis set group =>   4
Atom  30F    basis set group =>   4
Atom  31N    basis set group =>   3
Atom  32C    basis set group =>   2
Atom  33H    basis set group =>   5
Atom  34H    basis set group =>   5
Atom  35H    basis set group =>   5
Atom  36H    basis set group =>   5
Atom  37H    basis set group =>   5
Atom  38H    basis set group =>   5
Atom  39H    basis set group =>   5
Atom  40H    basis set group =>   5
Atom  41H    basis set group =>   5
Atom  42H    basis set group =>   5
Atom  43H    basis set group =>   5
Atom  44H    basis set group =>   5
Atom  45H    basis set group =>   5
------------------------------------------------------------------------------
                             ORCA STARTUP CALCULATIONS
                           -- RI-GTO INTEGRALS CHOSEN --
------------------------------------------------------------------------------
------------------------------------------------------------------------------
                   ___                                                        
                  /   \      - P O W E R E D   B Y -                         
                 /     \                                                     
                 |  |  |   _    _      __       _____    __    __             
                 |  |  |  | |  | |    /  \     |  _  \  |  |  /  |          
                  \  \/   | |  | |   /    \    | | | |  |  | /  /          
                 / \  \   | |__| |  /  /\  \   | |_| |  |  |/  /          
                |  |  |   |  __  | /  /__\  \  |    /   |      \           
                |  |  |   | |  | | |   __   |  |    \   |  |\   \          
                \     /   | |  | | |  |  |  |  | |\  \  |  | \   \       
                 \___/    |_|  |_| |__|  |__|  |_| \__\ |__|  \__/        
                                                                              
                      - O R C A' S   B I G   F R I E N D -                    
                                      &                                       
                       - I N T E G R A L  F E E D E R -                       
                                                                              
 v1 FN, 2020, v2 2021, v3 2022-2024                                           
------------------------------------------------------------------------------


----------------------
SHARK INTEGRAL PACKAGE
----------------------

Number of atoms                             ...     46
Number of basis functions                   ...    488
Number of shells                            ...    224
Maximum angular momentum                    ...      2
Integral batch strategy                     ... SHARK/LIBINT Hybrid
RI-J (if used) integral strategy            ... SPLIT-RIJ (Revised 2003 algorithm where possible)
Printlevel                                  ...      1
Contraction scheme used                     ... SEGMENTED contraction
Prescreening option                         ... SCHWARTZ
   Thresh                                   ... 1.000e-10
   Tcut                                     ... 1.000e-11
   Tpresel                                  ... 1.000e-11 
Coulomb Range Separation                    ... NOT USED
Exchange Range Separation                   ... NOT USED
Multipole approximations                    ... NOT USED
Finite Nucleus Model                        ... NOT USED
CABS basis                                  ... NOT available
Auxiliary Coulomb fitting basis             ... AVAILABLE
   # of basis functions in Aux-J            ...   1760
   # of shells in Aux-J                     ...    560
   Maximum angular momentum in Aux-J        ...      4
Auxiliary J/K fitting basis                 ... NOT available
Auxiliary Correlation fitting basis         ... NOT available
Auxiliary 'external' fitting basis          ... NOT available

Checking pre-screening integrals            ... done (  0.0 sec) Dimension = 224
Check shell pair data                       ... done (  0.0 sec)
Shell pair information
Shell pair cut-off parameter TPreSel        ...   1.0e-11
Total number of shell pairs                 ...     25200
Shell pairs after pre-screening             ...     13261
Total number of primitive shell pairs       ...    150610
Primitive shell pairs kept                  ...     41213
          la=0 lb=0:   3898 shell pairs
          la=1 lb=0:   4695 shell pairs
          la=1 lb=1:   1422 shell pairs
          la=2 lb=0:   1848 shell pairs
          la=2 lb=1:   1169 shell pairs
          la=2 lb=2:    229 shell pairs

Calculating one electron integrals          ... done (  0.2 sec)
Calculating RI/J V-Matrix + Cholesky decomp.... done (  0.4 sec)
Calculating Nuclear repulsion               ... done (  0.0 sec) ENN=   3266.756537757386 Eh

Diagonalization of the overlap matrix:
Smallest eigenvalue                        ... 4.405e-04
Time for diagonalization                   ...    0.034 sec
Threshold for overlap eigenvalues          ... 1.000e-07
Number of eigenvalues below threshold      ... 0
Time for construction of square roots      ...    0.134 sec
Total time needed                          ...    0.179 sec

-------------------
DFT GRID GENERATION
-------------------

General Integration Accuracy     IntAcc      ... 4.388
Radial Grid Type                 RadialGrid  ... OptM3 with GC (2021)
Angular Grid (max. ang.)         AngularGrid ... 4 (Lebedev-302)
Angular grid pruning method      GridPruning ... 4 (adaptive)
Weight generation scheme         WeightScheme... mBecke (2022)
Basis function cutoff            BFCut       ... 1.0000e-10
Integration weight cutoff        WCut        ... 1.0000e-14
Partially contracted basis set               ... off
Rotationally invariant grid construction     ... off
Angular grids for H and He will be reduced by one unit

Total number of grid points                  ...   239524
Total number of batches                      ...     3766
Average number of points per batch           ...       63
Average number of grid points per atom       ...     5207

--------------------
COSX GRID GENERATION
--------------------

GRIDX 1
-------
General Integration Accuracy     IntAcc      ... 3.816
Radial Grid Type                 RadialGrid  ... OptM3 with GC (2021)
Angular Grid (max. ang.)         AngularGrid ... 1 (Lebedev-50)
Angular grid pruning method      GridPruning ... 4 (adaptive)
Weight generation scheme         WeightScheme... mBecke (2022)
Basis function cutoff            BFCut       ... 1.0000e-10
Integration weight cutoff        WCut        ... 1.0000e-14
Partially contracted basis set               ... on
Rotationally invariant grid construction     ... off
Angular grids for H and He will be reduced by one unit

Total number of grid points                  ...    30324
Total number of batches                      ...      258
Average number of points per batch           ...      117
Average number of grid points per atom       ...      659
UseSFitting                                  ... on

GRIDX 2
-------
General Integration Accuracy     IntAcc      ... 4.020
Radial Grid Type                 RadialGrid  ... OptM3 with GC (2021)
Angular Grid (max. ang.)         AngularGrid ... 2 (Lebedev-110)
Angular grid pruning method      GridPruning ... 4 (adaptive)
Weight generation scheme         WeightScheme... mBecke (2022)
Basis function cutoff            BFCut       ... 1.0000e-10
Integration weight cutoff        WCut        ... 1.0000e-14
Partially contracted basis set               ... on
Rotationally invariant grid construction     ... off
Angular grids for H and He will be reduced by one unit

Total number of grid points                  ...    67843
Total number of batches                      ...      552
Average number of points per batch           ...      122
Average number of grid points per atom       ...     1475
UseSFitting                                  ... on

GRIDX 3
-------
General Integration Accuracy     IntAcc      ... 4.338
Radial Grid Type                 RadialGrid  ... OptM3 with GC (2021)
Angular Grid (max. ang.)         AngularGrid ... 3 (Lebedev-194)
Angular grid pruning method      GridPruning ... 4 (adaptive)
Weight generation scheme         WeightScheme... mBecke (2022)
Basis function cutoff            BFCut       ... 1.0000e-10
Integration weight cutoff        WCut        ... 1.0000e-14
Partially contracted basis set               ... on
Rotationally invariant grid construction     ... off
Angular grids for H and He will be reduced by one unit

Total number of grid points                  ...   149080
Total number of batches                      ...     1188
Average number of points per batch           ...      125
Average number of grid points per atom       ...     3241
UseSFitting                                  ... on
Initializing property integral containers    ... done (  0.0 sec)

SHARK setup successfully completed in  11.9 seconds

Maximum memory used throughout the entire STARTUP-calculation: 101.2 MB
-------------------------------------------------------------------------------
                                 ORCA GUESS
                   Start orbitals & Density for SCF / CASSCF
-------------------------------------------------------------------------------

------------
SCF SETTINGS
------------
Hamiltonian:
 Density Functional     Method          .... DFT(GTOs)
 Exchange Functional    Exchange        .... B88
   X-Alpha parameter    XAlpha          ....  0.666667
   Becke's b parameter  XBeta           ....  0.004200
 Correlation Functional Correlation     .... LYP
 LDA part of GGA corr.  LDAOpt          .... VWN-5
 Gradients option       PostSCFGGA      .... off
 Hybrid DFT is turned on
   Fraction HF Exchange ScalHFX         ....  0.200000
   Scaling of DF-GGA-X  ScalDFX         ....  0.720000
   Scaling of DF-GGA-C  ScalDFC         ....  0.810000
   Scaling of DF-LDA-C  ScalLDAC        ....  1.000000
   Perturbative correction              ....  0.000000
   NL short-range parameter             ....  4.800000
 RI-approximation to the Coulomb term is turned on
   Number of AuxJ basis functions       .... 1760
   RIJ-COSX (HFX calculated with COS-X)).... on


General Settings:
 Integral files         IntName         .... /home/nmrbox/aojoawo/Documents/ERDOS/inputs/CHEMBL4251467
 Hartree-Fock type      HFTyp           .... RHF
 Total Charge           Charge          ....    0
 Multiplicity           Mult            ....    1
 Number of Electrons    NEL             ....  238
 Basis Dimension        Dim             ....  488
 Nuclear Repulsion      ENuc            ....   3266.7565377574 Eh

Convergence Acceleration:
 AO-DIIS                CNVDIIS         .... on
   Start iteration      DIISMaxIt       ....    12
   Startup error        DIISStart       ....  0.200000
   # of expansion vecs  DIISMaxEq       ....     5
   Bias factor          DIISBfac        ....   1.050
   Max. coefficient     DIISMaxC        ....  10.000
 MO-DIIS                CNVKDIIS        .... off
 Trust-Rad. Augm. Hess. CNVTRAH         .... auto
   Auto Start mean grad. ratio tolernc. ....  1.125000
   Auto Start start iteration           ....    50
   Auto Start num. interpolation iter.  ....    10
   Max. Number of Micro iterations      ....    24
   Max. Number of Macro iterations      .... Maxiter - #DIIS iter
   Number of Davidson start vectors     ....     2
   Converg. threshold    (grad. norm)   ....   5.000e-05
   Grad. Scal. Fac. for Micro threshold ....   0.100
   Minimum threshold for Micro iter.    ....   1.000e-02
   NR start threshold (gradient norm)   ....   1.000e-04
   Initial trust radius                 ....   0.400
   Minimum AH scaling param. (alpha)    ....   1.000
   Maximum AH scaling param. (alpha)    .... 1000.000
   Quad. conv. algorithm                .... NR
   White noise on init. David. guess    .... on
   Maximum white noise                  ....   0.010
   Pseudo random numbers                .... off
   Inactive MOs                         .... canonical
   Orbital update algorithm             .... Taylor
   Preconditioner                       .... Diag
   Full preconditioner red. dimension   ....   250
 SOSCF                  CNVSOSCF        .... on
   Start iteration      SOSCFMaxIt      ....   150
   Startup grad/error   SOSCFStart      ....  0.003300
   Hessian update       SOSCFHessUp     .... L-BFGS
 Level Shifting         CNVShift        .... on
   Level shift para.    LevelShift      ....    0.2500
   Turn off err/grad.   ShiftErr        ....    0.0010
 Zerner damping         CNVZerner       .... off
 Static damping         CNVDamp         .... on
   Fraction old density DampFac         ....    0.7000
   Max. Damping (<1)    DampMax         ....    0.9800
   Min. Damping (>=0)   DampMin         ....    0.0000
   Turn off err/grad.   DampErr         ....    0.1000

SCF Procedure:
 Maximum # iterations   MaxIter         ....   125
 SCF integral mode      SCFMode         .... Direct
   Integral package                     .... SHARK and LIBINT hybrid scheme
 Reset frequency        DirectResetFreq ....    20
 Integral Threshold     Thresh          ....  1.000e-10 Eh
 Primitive CutOff       TCut            ....  1.000e-11 Eh

Convergence Tolerance:
 Convergence Check Mode ConvCheckMode   .... Total+1el-Energy
 Convergence forced     ConvForced      .... 0
 Energy Change          TolE            ....  1.000e-06 Eh
 1-El. energy change                    ....  1.000e-03 Eh
 Orbital Gradient       TolG            ....  5.000e-05
 Orbital Rotation angle TolX            ....  5.000e-05
 DIIS Error             TolErr          ....  1.000e-06

------------------------------
INITIAL GUESS: MODEL POTENTIAL
------------------------------
Loading Hartree-Fock densities                     ... done
Calculating cut-offs                               ... done
Initializing the effective Hamiltonian             ... done
Setting up the integral package (SHARK)            ... done
Starting the Coulomb interaction                   ... done (   2.8 sec)
Making the grid                                    ... done (   1.5 sec)
Mapping shells                                     ... done
Starting the XC term evaluation                    ... done (   1.2 sec)
  promolecular density results
     # of electrons  =    237.989270679
     EX              =   -216.308824466
     EC              =     -8.426726800
     EX+EC           =   -224.735551266
Transforming the Hamiltonian                       ... done (   0.0 sec)
Diagonalizing the Hamiltonian                      ... done (   0.0 sec)
Back transforming the eigenvectors                 ... done (   0.0 sec)
Now organizing SCF variables                       ... done
                      ------------------
                      INITIAL GUESS DONE (   5.7 sec)
                      ------------------
             **** ENERGY FILE WAS UPDATED (/home/nmrbox/aojoawo/Documents/ERDOS/inputs/CHEMBL4251467.en.tmp) ****
Finished Guess after   5.9 sec
Maximum memory used throughout the entire GUESS-calculation: 55.5 MB

-------------------------------------------------------------------------------------------
                                      ORCA LEAN-SCF
                              memory conserving SCF solver
-------------------------------------------------------------------------------------------

----------------------------------------D-I-I-S--------------------------------------------
Iteration    Energy (Eh)           Delta-E    RMSDP     MaxDP     DIISErr   Damp  Time(sec)
-------------------------------------------------------------------------------------------
               ***  Starting incremental Fock matrix formation  ***
    1    -1795.3363115365286831     0.00e+00  2.21e-03  1.14e-01  2.77e-01  0.700  64.9
    2    -1795.7100115569887748    -3.74e-01  1.36e-03  6.49e-02  1.00e-01  0.700  27.1
                               ***Turning on AO-DIIS***
    3    -1795.8366304445194146    -1.27e-01  5.21e-04  1.57e-02  4.42e-02  0.700  26.6
    4    -1795.9204760666657421    -8.38e-02  8.47e-04  2.27e-02  1.88e-02  0.000  24.1
    5    -1796.1104192916677675    -1.90e-01  2.14e-04  9.09e-03  7.01e-03  0.000  25.6
                              *** Initializing SOSCF ***
---------------------------------------S-O-S-C-F--------------------------------------
Iteration    Energy (Eh)           Delta-E    RMSDP     MaxDP     MaxGrad    Time(sec)
--------------------------------------------------------------------------------------
    6    -1796.1115271082139770    -1.11e-03  7.16e-05  2.81e-03  3.26e-03    21.8
               *** Restarting incremental Fock matrix formation ***
    7    -1796.1114512936469509     7.58e-05  5.89e-05  3.89e-03  4.52e-04    62.9
    8    -1796.1113941209273435     5.72e-05  3.89e-05  3.09e-03  1.04e-03    35.3
    9    -1796.1114715718681509    -7.75e-05  1.21e-05  6.82e-04  1.13e-04    32.8
   10    -1796.1114689060527780     2.67e-06  8.20e-06  4.99e-04  2.11e-04    25.7
   11    -1796.1114723993609914    -3.49e-06  2.30e-06  1.09e-04  2.80e-05    24.1
   12    -1796.1114723069999854     9.24e-08  1.46e-06  8.49e-05  4.61e-05    19.0
                 **** Energy Check signals convergence ****

               *****************************************************
               *                     SUCCESS                       *
               *           SCF CONVERGED AFTER  12 CYCLES          *
               *****************************************************

Recomputing exchange energy using gridx3       ... done (  110.457 sec)
Old exchange energy                            :    -43.634072045 Eh
New exchange energy                            :    -43.634132172 Eh
Exchange energy change after final integration :     -0.000060128 Eh
Total energy after final integration           :  -1796.111532435 Eh
             **** ENERGY FILE WAS UPDATED (/home/nmrbox/aojoawo/Documents/ERDOS/inputs/CHEMBL4251467.en.tmp) ****

----------------
TOTAL SCF ENERGY
----------------

Total Energy       :      -1796.11153243471449 Eh          -48874.67954 eV

Components:
Nuclear Repulsion  :       3266.75653775738601 Eh           88892.96462 eV
Electronic Energy  :      -5062.86801006438600 Eh         -137767.64253 eV
One Electron Energy:      -8966.62477914938972 Eh         -243994.26467 eV
Two Electron Energy:       3903.75676908500373 Eh          106226.62214 eV

Virial components:
Potential Energy   :      -3580.93614724548752 Eh          -97442.22643 eV
Kinetic Energy     :       1784.82461481077303 Eh           48567.54690 eV
Virial Ratio       :          2.00632382449809

DFT components:
N(Alpha)           :      118.999966341652 electrons
N(Beta)            :      118.999966341652 electrons
N(Total)           :      237.999932683304 electrons
E(X)               :     -173.597551299697 Eh       
E(C)               :       -9.892756865435 Eh       
E(XC)              :     -183.490308165132 Eh       

---------------
SCF CONVERGENCE
---------------

  Last Energy change         ...   -9.2361e-08  Tolerance :   1.0000e-06
  Last MAX-Density change    ...    8.4920e-05  Tolerance :   1.0000e-05
  Last RMS-Density change    ...    1.4608e-06  Tolerance :   1.0000e-06
  Last DIIS Error            ...    3.2596e-03  Tolerance :   1.0000e-06
  Last Orbital Gradient      ...    4.6149e-05  Tolerance :   5.0000e-05
  Last Orbital Rotation      ...    7.0068e-05  Tolerance :   5.0000e-05


----------------
ORBITAL ENERGIES
----------------

  NO   OCC          E(Eh)            E(eV) 
   0   2.0000     -24.738349      -673.1647 
   1   2.0000     -24.737421      -673.1395 
   2   2.0000     -24.734935      -673.0718 
   3   2.0000     -24.710809      -672.4153 
   4   2.0000     -24.709230      -672.3723 
   5   2.0000     -24.706924      -672.3096 
   6   2.0000     -19.198184      -522.4091 
   7   2.0000     -19.139571      -520.8142 
   8   2.0000     -19.118362      -520.2371 
   9   2.0000     -14.369944      -391.0260 
  10   2.0000     -14.358568      -390.7165 
  11   2.0000     -14.347142      -390.4056 
  12   2.0000     -10.455641      -284.5125 
  13   2.0000     -10.425063      -283.6804 
  14   2.0000     -10.337000      -281.2841 
  15   2.0000     -10.299537      -280.2646 
  16   2.0000     -10.268243      -279.4131 
  17   2.0000     -10.254425      -279.0371 
  18   2.0000     -10.250496      -278.9302 
  19   2.0000     -10.248244      -278.8689 
  20   2.0000     -10.244057      -278.7550 
  21   2.0000     -10.242296      -278.7071 
  22   2.0000     -10.234387      -278.4918 
  23   2.0000     -10.230673      -278.3908 
  24   2.0000     -10.225676      -278.2548 
  25   2.0000     -10.219898      -278.0976 
  26   2.0000     -10.218552      -278.0609 
  27   2.0000     -10.203443      -277.6498 
  28   2.0000     -10.201017      -277.5838 
  29   2.0000     -10.193302      -277.3739 
  30   2.0000     -10.193077      -277.3677 
  31   2.0000     -10.189093      -277.2593 
  32   2.0000     -10.188653      -277.2473 
  33   2.0000      -1.297946       -35.3189 
  34   2.0000      -1.269507       -34.5450 
  35   2.0000      -1.223016       -33.2800 
  36   2.0000      -1.221387       -33.2356 
  37   2.0000      -1.195388       -32.5282 
  38   2.0000      -1.194029       -32.4912 
  39   2.0000      -1.082492       -29.4561 
  40   2.0000      -1.019586       -27.7443 
  41   2.0000      -0.996306       -27.1109 
  42   2.0000      -0.965607       -26.2755 
  43   2.0000      -0.948492       -25.8098 
  44   2.0000      -0.918023       -24.9807 
  45   2.0000      -0.861599       -23.4453 
  46   2.0000      -0.839880       -22.8543 
  47   2.0000      -0.828086       -22.5334 
  48   2.0000      -0.817845       -22.2547 
  49   2.0000      -0.798319       -21.7234 
  50   2.0000      -0.782291       -21.2872 
  51   2.0000      -0.750583       -20.4244 
  52   2.0000      -0.736567       -20.0430 
  53   2.0000      -0.715738       -19.4762 
  54   2.0000      -0.697774       -18.9874 
  55   2.0000      -0.677520       -18.4362 
  56   2.0000      -0.660960       -17.9856 
  57   2.0000      -0.653301       -17.7772 
  58   2.0000      -0.635842       -17.3021 
  59   2.0000      -0.625298       -17.0152 
  60   2.0000      -0.617147       -16.7934 
  61   2.0000      -0.602498       -16.3948 
  62   2.0000      -0.589012       -16.0278 
  63   2.0000      -0.587454       -15.9854 
  64   2.0000      -0.582446       -15.8492 
  65   2.0000      -0.578752       -15.7486 
  66   2.0000      -0.560713       -15.2578 
  67   2.0000      -0.557809       -15.1788 
  68   2.0000      -0.556572       -15.1451 
  69   2.0000      -0.551086       -14.9958 
  70   2.0000      -0.540680       -14.7126 
  71   2.0000      -0.521664       -14.1952 
  72   2.0000      -0.516379       -14.0514 
  73   2.0000      -0.505057       -13.7433 
  74   2.0000      -0.495182       -13.4746 
  75   2.0000      -0.481002       -13.0887 
  76   2.0000      -0.473022       -12.8716 
  77   2.0000      -0.467891       -12.7320 
  78   2.0000      -0.465739       -12.6734 
  79   2.0000      -0.464970       -12.6525 
  80   2.0000      -0.460381       -12.5276 
  81   2.0000      -0.454772       -12.3750 
  82   2.0000      -0.446508       -12.1501 
  83   2.0000      -0.440313       -11.9815 
  84   2.0000      -0.439304       -11.9541 
  85   2.0000      -0.438599       -11.9349 
  86   2.0000      -0.437565       -11.9067 
  87   2.0000      -0.436352       -11.8737 
  88   2.0000      -0.433024       -11.7832 
  89   2.0000      -0.428008       -11.6467 
  90   2.0000      -0.424601       -11.5540 
  91   2.0000      -0.421858       -11.4794 
  92   2.0000      -0.418739       -11.3945 
  93   2.0000      -0.416641       -11.3374 
  94   2.0000      -0.414875       -11.2893 
  95   2.0000      -0.413538       -11.2530 
  96   2.0000      -0.411143       -11.1878 
  97   2.0000      -0.400792       -10.9061 
  98   2.0000      -0.397625       -10.8199 
  99   2.0000      -0.395124       -10.7519 
 100   2.0000      -0.388813       -10.5801 
 101   2.0000      -0.385216       -10.4823 
 102   2.0000      -0.377541       -10.2734 
 103   2.0000      -0.370571       -10.0838 
 104   2.0000      -0.358657        -9.7596 
 105   2.0000      -0.349505        -9.5105 
 106   2.0000      -0.348005        -9.4697 
 107   2.0000      -0.319388        -8.6910 
 108   2.0000      -0.312975        -8.5165 
 109   2.0000      -0.301549        -8.2056 
 110   2.0000      -0.292970        -7.9721 
 111   2.0000      -0.281708        -7.6657 
 112   2.0000      -0.279668        -7.6101 
 113   2.0000      -0.277284        -7.5453 
 114   2.0000      -0.264303        -7.1920 
 115   2.0000      -0.260714        -7.0944 
 116   2.0000      -0.255088        -6.9413 
 117   2.0000      -0.249181        -6.7806 
 118   2.0000      -0.245730        -6.6867 
 119   0.0000      -0.088100        -2.3973 
 120   0.0000      -0.059168        -1.6100 
 121   0.0000      -0.056457        -1.5363 
 122   0.0000      -0.042358        -1.1526 
 123   0.0000      -0.016989        -0.4623 
 124   0.0000      -0.005907        -0.1607 
 125   0.0000      -0.004369        -0.1189 
 126   0.0000       0.040260         1.0955 
 127   0.0000       0.060441         1.6447 
 128   0.0000       0.068255         1.8573 
 129   0.0000       0.082651         2.2490 
*Only the first 10 virtual orbitals were printed.

                    ********************************
                    * MULLIKEN POPULATION ANALYSIS *
                    ********************************

-----------------------
MULLIKEN ATOMIC CHARGES
-----------------------
   0 O :   -0.443253
   1 C :    0.525269
   2 O :   -0.624688
   3 C :    0.067335
   4 C :   -0.128093
   5 C :   -0.168076
   6 C :    0.197510
   7 C :    0.549197
   8 O :   -0.447899
   9 N :   -0.641488
  10 C :   -0.087539
  11 C :    0.190345
  12 C :   -0.169844
  13 C :   -0.160564
  14 C :   -0.012029
  15 C :    0.892703
  16 F :   -0.306179
  17 F :   -0.299583
  18 F :   -0.306475
  19 C :   -0.165120
  20 C :   -0.140200
  21 C :    0.215937
  22 N :   -0.412595
  23 C :    0.029044
  24 C :   -0.134581
  25 C :   -0.130753
  26 C :   -0.064125
  27 C :    0.919816
  28 F :   -0.295042
  29 F :   -0.302495
  30 F :   -0.295163
  31 N :   -0.371984
  32 C :    0.001149
  33 H :    0.433818
  34 H :    0.172334
  35 H :    0.142614
  36 H :    0.330966
  37 H :    0.189763
  38 H :    0.140809
  39 H :    0.150416
  40 H :    0.148219
  41 H :    0.126790
  42 H :    0.164689
  43 H :    0.151648
  44 H :    0.171934
  45 H :    0.195464
Sum of atomic charges:    0.0000000

--------------------------------
MULLIKEN REDUCED ORBITAL CHARGES
--------------------------------
  0 O s       :     3.880578  s :     3.880578
      pz      :     1.405459  p :     4.537030
      px      :     1.683077
      py      :     1.448495
      dz2     :     0.002425  d :     0.025645
      dxz     :     0.002408
      dyz     :     0.007093
      dx2y2   :     0.006440
      dxy     :     0.007280

  1 C s       :     3.001541  s :     3.001541
      pz      :     0.803912  p :     2.362927
      px      :     0.882092
      py      :     0.676923
      dz2     :     0.006257  d :     0.110263
      dxz     :     0.008641
      dyz     :     0.020763
      dx2y2   :     0.038140
      dxy     :     0.036462

  2 O s       :     3.872467  s :     3.872467
      pz      :     1.812648  p :     4.731310
      px      :     1.334631
      py      :     1.584032
      dz2     :     0.003733  d :     0.020911
      dxz     :     0.000339
      dyz     :     0.003714
      dx2y2   :     0.010117
      dxy     :     0.003008

  3 C s       :     3.174171  s :     3.174171
      pz      :     1.014411  p :     2.721162
      px      :     0.855567
      py      :     0.851185
      dz2     :     0.003177  d :     0.037332
      dxz     :     0.003735
      dyz     :     0.005492
      dx2y2   :     0.013936
      dxy     :     0.010991

  4 C s       :     3.212499  s :     3.212499
      pz      :     0.921476  p :     2.879436
      px      :     0.957107
      py      :     1.000853
      dz2     :     0.003459  d :     0.036159
      dxz     :     0.005130
      dyz     :     0.003172
      dx2y2   :     0.011012
      dxy     :     0.013385

  5 C s       :     3.198869  s :     3.198869
      pz      :     0.992190  p :     2.934519
      px      :     0.970038
      py      :     0.972291
      dz2     :     0.003478  d :     0.034688
      dxz     :     0.004427
      dyz     :     0.002715
      dx2y2   :     0.010810
      dxy     :     0.013259

  6 C s       :     3.102033  s :     3.102033
      pz      :     0.940872  p :     2.643871
      px      :     0.880173
      py      :     0.822826
      dz2     :     0.003828  d :     0.056586
      dxz     :     0.005058
      dyz     :     0.008308
      dx2y2   :     0.022692
      dxy     :     0.016701

  7 C s       :     3.010028  s :     3.010028
      pz      :     0.815867  p :     2.342751
      px      :     0.829341
      py      :     0.697543
      dz2     :     0.009558  d :     0.098025
      dxz     :     0.008922
      dyz     :     0.018764
      dx2y2   :     0.033771
      dxy     :     0.027011

  8 O s       :     3.896200  s :     3.896200
      pz      :     1.423548  p :     4.525639
      px      :     1.693446
      py      :     1.408645
      dz2     :     0.003164  d :     0.026060
      dxz     :     0.002514
      dyz     :     0.006781
      dx2y2   :     0.006635
      dxy     :     0.006967

  9 N s       :     3.608464  s :     3.608464
      pz      :     1.590067  p :     4.004402
      px      :     1.120411
      py      :     1.293924
      dz2     :     0.002563  d :     0.028621
      dxz     :     0.005687
      dyz     :     0.004351
      dx2y2   :     0.006061
      dxy     :     0.009960

 10 C s       :     3.229712  s :     3.229712
      pz      :     1.050728  p :     2.799119
      px      :     0.794876
      py      :     0.953516
      dz2     :     0.011020  d :     0.058708
      dxz     :     0.012647
      dyz     :     0.009055
      dx2y2   :     0.016352
      dxy     :     0.009635

 11 C s       :     3.133431  s :     3.133431
      pz      :     0.846841  p :     2.636465
      px      :     0.870251
      py      :     0.919373
      dz2     :     0.010188  d :     0.039759
      dxz     :     0.009279
      dyz     :     0.008171
      dx2y2   :     0.006362
      dxy     :     0.005758

 12 C s       :     3.196986  s :     3.196986
      pz      :     0.985451  p :     2.937079
      px      :     0.966294
      py      :     0.985334
      dz2     :     0.008959  d :     0.035779
      dxz     :     0.010594
      dyz     :     0.004938
      dx2y2   :     0.005882
      dxy     :     0.005407

 13 C s       :     3.204774  s :     3.204774
      pz      :     0.948655  p :     2.919755
      px      :     0.990619
      py      :     0.980480
      dz2     :     0.010487  d :     0.036035
      dxz     :     0.008370
      dyz     :     0.007025
      dx2y2   :     0.003661
      dxy     :     0.006493

 14 C s       :     3.158592  s :     3.158592
      pz      :     0.904113  p :     2.815447
      px      :     0.926725
      py      :     0.984609
      dz2     :     0.008273  d :     0.037990
      dxz     :     0.010167
      dyz     :     0.008282
      dx2y2   :     0.005464
      dxy     :     0.005804

 15 C s       :     2.807152  s :     2.807152
      pz      :     0.803863  p :     2.162692
      px      :     0.662672
      py      :     0.696158
      dz2     :     0.020942  d :     0.137452
      dxz     :     0.032533
      dyz     :     0.027065
      dx2y2   :     0.024569
      dxy     :     0.032343

 16 F s       :     3.980294  s :     3.980294
      pz      :     1.875766  p :     5.309621
      px      :     1.823900
      py      :     1.609955
      dz2     :     0.001984  d :     0.016264
      dxz     :     0.001511
      dyz     :     0.003928
      dx2y2   :     0.003958
      dxy     :     0.004883

 17 F s       :     3.976213  s :     3.976213
      pz      :     1.826711  p :     5.307138
      px      :     1.712898
      py      :     1.767529
      dz2     :     0.002270  d :     0.016232
      dxz     :     0.003645
      dyz     :     0.002761
      dx2y2   :     0.002836
      dxy     :     0.004720

 18 F s       :     3.980108  s :     3.980108
      pz      :     1.735580  p :     5.310086
      px      :     1.693292
      py      :     1.881213
      dz2     :     0.002981  d :     0.016281
      dxz     :     0.005847
      dyz     :     0.002261
      dx2y2   :     0.002719
      dxy     :     0.002473

 19 C s       :     3.205961  s :     3.205961
      pz      :     0.990217  p :     2.923123
      px      :     0.968370
      py      :     0.964537
      dz2     :     0.009307  d :     0.036036
      dxz     :     0.009829
      dyz     :     0.005076
      dx2y2   :     0.006327
      dxy     :     0.005496

 20 C s       :     3.201749  s :     3.201749
      pz      :     0.947400  p :     2.902841
      px      :     0.981299
      py      :     0.974141
      dz2     :     0.010272  d :     0.035611
      dxz     :     0.008374
      dyz     :     0.006881
      dx2y2   :     0.003465
      dxy     :     0.006619

 21 C s       :     3.098283  s :     3.098283
      pz      :     0.840563  p :     2.629202
      px      :     0.933308
      py      :     0.855331
      dz2     :     0.014782  d :     0.056578
      dxz     :     0.009661
      dyz     :     0.016355
      dx2y2   :     0.008812
      dxy     :     0.006969

 22 N s       :     3.694987  s :     3.694987
      pz      :     1.308081  p :     3.682831
      px      :     1.257870
      py      :     1.116881
      dz2     :     0.009276  d :     0.034777
      dxz     :     0.005394
      dyz     :     0.006969
      dx2y2   :     0.006167
      dxy     :     0.006971

 23 C s       :     3.141996  s :     3.141996
      pz      :     0.977783  p :     2.775066
      px      :     0.927034
      py      :     0.870248
      dz2     :     0.010600  d :     0.053895
      dxz     :     0.005015
      dyz     :     0.018229
      dx2y2   :     0.009914
      dxy     :     0.010136

 24 C s       :     3.197385  s :     3.197385
      pz      :     0.928070  p :     2.902180
      px      :     0.972971
      py      :     1.001138
      dz2     :     0.009126  d :     0.035016
      dxz     :     0.005802
      dyz     :     0.008640
      dx2y2   :     0.006397
      dxy     :     0.005051

 25 C s       :     3.205470  s :     3.205470
      pz      :     0.974624  p :     2.889164
      px      :     0.953414
      py      :     0.961126
      dz2     :     0.007189  d :     0.036119
      dxz     :     0.006620
      dyz     :     0.010191
      dx2y2   :     0.005294
      dxy     :     0.006825

 26 C s       :     3.174417  s :     3.174417
      pz      :     0.936923  p :     2.853603
      px      :     1.004726
      py      :     0.911954
      dz2     :     0.008304  d :     0.036105
      dxz     :     0.004970
      dyz     :     0.010948
      dx2y2   :     0.005694
      dxy     :     0.006189

 27 C s       :     2.803243  s :     2.803243
      pz      :     0.837403  p :     2.138676
      px      :     0.632596
      py      :     0.668677
      dz2     :     0.023337  d :     0.138264
      dxz     :     0.027889
      dyz     :     0.027779
      dx2y2   :     0.025149
      dxy     :     0.034111

 28 F s       :     3.984883  s :     3.984883
      pz      :     1.831292  p :     5.293538
      px      :     1.601687
      py      :     1.860559
      dz2     :     0.002381  d :     0.016621
      dxz     :     0.004794
      dyz     :     0.001659
      dx2y2   :     0.004146
      dxy     :     0.003640

 29 F s       :     3.982961  s :     3.982961
      pz      :     1.735717  p :     5.303201
      px      :     1.812814
      py      :     1.754670
      dz2     :     0.003002  d :     0.016333
      dxz     :     0.003519
      dyz     :     0.004595
      dx2y2   :     0.002108
      dxy     :     0.003109

 30 F s       :     3.983205  s :     3.983205
      pz      :     1.902763  p :     5.295486
      px      :     1.752727
      py      :     1.639996
      dz2     :     0.002038  d :     0.016471
      dxz     :     0.001802
      dyz     :     0.002962
      dx2y2   :     0.003681
      dxy     :     0.005988

 31 N s       :     3.714171  s :     3.714171
      pz      :     1.090441  p :     3.622057
      px      :     1.114829
      py      :     1.416787
      dz2     :     0.004340  d :     0.035757
      dxz     :     0.005983
      dyz     :     0.005618
      dx2y2   :     0.011733
      dxy     :     0.008084

 32 C s       :     3.175055  s :     3.175055
      pz      :     0.892454  p :     2.770596
      px      :     0.876133
      py      :     1.002008
      dz2     :     0.004035  d :     0.053200
      dxz     :     0.007508
      dyz     :     0.003331
      dx2y2   :     0.015882
      dxy     :     0.022445

 33 H s       :     0.566182  s :     0.566182

 34 H s       :     0.827666  s :     0.827666

 35 H s       :     0.857386  s :     0.857386

 36 H s       :     0.669034  s :     0.669034

 37 H s       :     0.810237  s :     0.810237

 38 H s       :     0.859191  s :     0.859191

 39 H s       :     0.849584  s :     0.849584

 40 H s       :     0.851781  s :     0.851781

 41 H s       :     0.873210  s :     0.873210

 42 H s       :     0.835311  s :     0.835311

 43 H s       :     0.848352  s :     0.848352

 44 H s       :     0.828066  s :     0.828066

 45 H s       :     0.804536  s :     0.804536



                     *******************************
                     * LOEWDIN POPULATION ANALYSIS *
                     *******************************

----------------------
LOEWDIN ATOMIC CHARGES
----------------------
   0 O :   -0.259418
   1 C :    0.178732
   2 O :   -0.336078
   3 C :   -0.062910
   4 C :   -0.080450
   5 C :   -0.137730
   6 C :    0.016565
   7 C :    0.136907
   8 O :   -0.248134
   9 N :   -0.230408
  10 C :   -0.054651
  11 C :    0.000591
  12 C :   -0.123643
  13 C :   -0.110817
  14 C :   -0.070280
  15 C :    0.310752
  16 F :   -0.115373
  17 F :   -0.117096
  18 F :   -0.114170
  19 C :   -0.113881
  20 C :   -0.114127
  21 C :    0.051334
  22 N :   -0.130620
  23 C :   -0.052436
  24 C :   -0.139414
  25 C :   -0.087279
  26 C :   -0.079198
  27 C :    0.313245
  28 F :   -0.106681
  29 F :   -0.107547
  30 F :   -0.108767
  31 N :   -0.089474
  32 C :   -0.022937
  33 H :    0.349612
  34 H :    0.153520
  35 H :    0.138021
  36 H :    0.251780
  37 H :    0.156091
  38 H :    0.137892
  39 H :    0.142833
  40 H :    0.141718
  41 H :    0.134326
  42 H :    0.142524
  43 H :    0.144357
  44 H :    0.152543
  45 H :    0.160178

-------------------------------
LOEWDIN REDUCED ORBITAL CHARGES
-------------------------------
  0 O s       :     3.594348  s :     3.594348
      pz      :     1.396125  p :     4.615240
      px      :     1.699623
      py      :     1.519492
      dz2     :     0.006441  d :     0.049830
      dxz     :     0.003167
      dyz     :     0.009681
      dx2y2   :     0.012794
      dxy     :     0.017747

  1 C s       :     2.863641  s :     2.863641
      pz      :     0.802095  p :     2.704630
      px      :     0.986815
      py      :     0.915719
      dz2     :     0.015634  d :     0.252997
      dxz     :     0.016670
      dyz     :     0.041933
      dx2y2   :     0.091882
      dxy     :     0.086878

  2 O s       :     3.540828  s :     3.540828
      pz      :     1.794061  p :     4.753313
      px      :     1.356755
      py      :     1.602497
      dz2     :     0.006314  d :     0.041937
      dxz     :     0.001361
      dyz     :     0.005460
      dx2y2   :     0.019295
      dxy     :     0.009507

  3 C s       :     2.885654  s :     2.885654
      pz      :     0.991577  p :     3.078291
      px      :     1.009790
      py      :     1.076925
      dz2     :     0.007420  d :     0.098965
      dxz     :     0.007416
      dyz     :     0.011627
      dx2y2   :     0.039728
      dxy     :     0.032774

  4 C s       :     2.922183  s :     2.922183
      pz      :     0.918545  p :     3.073616
      px      :     1.072382
      py      :     1.082688
      dz2     :     0.006272  d :     0.084651
      dxz     :     0.010937
      dyz     :     0.006037
      dx2y2   :     0.028686
      dxy     :     0.032718

  5 C s       :     2.924446  s :     2.924446
      pz      :     0.982979  p :     3.129768
      px      :     1.073237
      py      :     1.073552
      dz2     :     0.006568  d :     0.083516
      dxz     :     0.009333
      dyz     :     0.005107
      dx2y2   :     0.029333
      dxy     :     0.033175

  6 C s       :     2.874691  s :     2.874691
      pz      :     0.924734  p :     2.969420
      px      :     1.016160
      py      :     1.028527
      dz2     :     0.008991  d :     0.139324
      dxz     :     0.009591
      dyz     :     0.016753
      dx2y2   :     0.059699
      dxy     :     0.044290

  7 C s       :     2.863023  s :     2.863023
      pz      :     0.845243  p :     2.771565
      px      :     0.991528
      py      :     0.934794
      dz2     :     0.020484  d :     0.228505
      dxz     :     0.018645
      dyz     :     0.041427
      dx2y2   :     0.081220
      dxy     :     0.066730

  8 O s       :     3.591729  s :     3.591729
      pz      :     1.422750  p :     4.605629
      px      :     1.707555
      py      :     1.475324
      dz2     :     0.006582  d :     0.050775
      dxz     :     0.003948
      dyz     :     0.011109
      dx2y2   :     0.012618
      dxy     :     0.016517

  9 N s       :     3.162279  s :     3.162279
      pz      :     1.561482  p :     3.999952
      px      :     1.153297
      py      :     1.285173
      dz2     :     0.005155  d :     0.068178
      dxz     :     0.012829
      dyz     :     0.008133
      dx2y2   :     0.017524
      dxy     :     0.024537

 10 C s       :     2.881135  s :     2.881135
      pz      :     1.094626  p :     3.044009
      px      :     0.913730
      py      :     1.035654
      dz2     :     0.024007  d :     0.129507
      dxz     :     0.026275
      dyz     :     0.019696
      dx2y2   :     0.038265
      dxy     :     0.021264

 11 C s       :     2.883401  s :     2.883401
      pz      :     1.025285  p :     3.017110
      px      :     1.025067
      py      :     0.966759
      dz2     :     0.025954  d :     0.098897
      dxz     :     0.025217
      dyz     :     0.019552
      dx2y2   :     0.014135
      dxy     :     0.014039

 12 C s       :     2.916212  s :     2.916212
      pz      :     1.069329  p :     3.123588
      px      :     1.040324
      py      :     1.013935
      dz2     :     0.020650  d :     0.083843
      dxz     :     0.024030
      dyz     :     0.012440
      dx2y2   :     0.012733
      dxy     :     0.013990

 13 C s       :     2.916391  s :     2.916391
      pz      :     1.049481  p :     3.109963
      px      :     1.049713
      py      :     1.010769
      dz2     :     0.027047  d :     0.084464
      dxz     :     0.021208
      dyz     :     0.017495
      dx2y2   :     0.006804
      dxy     :     0.011910

 14 C s       :     2.888181  s :     2.888181
      pz      :     1.025223  p :     3.085684
      px      :     1.044935
      py      :     1.015525
      dz2     :     0.022264  d :     0.096415
      dxz     :     0.027761
      dyz     :     0.019897
      dx2y2   :     0.012144
      dxy     :     0.014348

 15 C s       :     2.851473  s :     2.851473
      pz      :     0.894660  p :     2.509658
      px      :     0.796647
      py      :     0.818351
      dz2     :     0.045008  d :     0.328118
      dxz     :     0.081540
      dyz     :     0.066394
      dx2y2   :     0.055518
      dxy     :     0.079657

 16 F s       :     3.760376  s :     3.760376
      pz      :     1.871950  p :     5.324155
      px      :     1.826813
      py      :     1.625392
      dz2     :     0.004243  d :     0.030842
      dxz     :     0.002690
      dyz     :     0.007098
      dx2y2   :     0.006888
      dxy     :     0.009923

 17 F s       :     3.762252  s :     3.762252
      pz      :     1.828476  p :     5.323769
      px      :     1.724636
      py      :     1.770657
      dz2     :     0.003667  d :     0.031074
      dxz     :     0.007664
      dyz     :     0.005460
      dx2y2   :     0.004827
      dxy     :     0.009456

 18 F s       :     3.758933  s :     3.758933
      pz      :     1.743168  p :     5.324302
      px      :     1.702824
      py      :     1.878311
      dz2     :     0.005220  d :     0.030934
      dxz     :     0.012317
      dyz     :     0.003881
      dx2y2   :     0.005023
      dxy     :     0.004493

 19 C s       :     2.917154  s :     2.917154
      pz      :     1.076039  p :     3.112461
      px      :     1.032701
      py      :     1.003720
      dz2     :     0.021242  d :     0.084266
      dxz     :     0.022526
      dyz     :     0.012767
      dx2y2   :     0.013609
      dxy     :     0.014122

 20 C s       :     2.916519  s :     2.916519
      pz      :     1.050414  p :     3.114265
      px      :     1.049702
      py      :     1.014149
      dz2     :     0.026677  d :     0.083343
      dxz     :     0.021012
      dyz     :     0.017269
      dx2y2   :     0.006389
      dxy     :     0.011997

 21 C s       :     2.879102  s :     2.879102
      pz      :     0.991194  p :     2.933809
      px      :     0.946986
      py      :     0.995630
      dz2     :     0.036986  d :     0.135755
      dxz     :     0.023283
      dyz     :     0.040242
      dx2y2   :     0.020234
      dxy     :     0.015011

 22 N s       :     3.238140  s :     3.238140
      pz      :     1.354986  p :     3.814371
      px      :     1.248358
      py      :     1.211028
      dz2     :     0.019885  d :     0.078108
      dxz     :     0.009368
      dyz     :     0.019191
      dx2y2   :     0.014298
      dxy     :     0.015365

 23 C s       :     2.915723  s :     2.915723
      pz      :     1.055965  p :     3.012797
      px      :     0.956257
      py      :     1.000575
      dz2     :     0.022946  d :     0.123917
      dxz     :     0.011122
      dyz     :     0.042547
      dx2y2   :     0.022908
      dxy     :     0.024394

 24 C s       :     2.924270  s :     2.924270
      pz      :     1.057024  p :     3.130693
      px      :     1.005248
      py      :     1.068421
      dz2     :     0.023435  d :     0.084452
      dxz     :     0.015317
      dyz     :     0.022714
      dx2y2   :     0.012359
      dxy     :     0.010625

 25 C s       :     2.922507  s :     2.922507
      pz      :     1.062812  p :     3.080345
      px      :     0.972270
      py      :     1.045264
      dz2     :     0.017586  d :     0.084427
      dxz     :     0.012949
      dyz     :     0.026193
      dx2y2   :     0.013043
      dxy     :     0.014657

 26 C s       :     2.898630  s :     2.898630
      pz      :     1.011627  p :     3.088061
      px      :     1.026615
      py      :     1.049820
      dz2     :     0.022305  d :     0.092507
      dxz     :     0.012096
      dyz     :     0.028966
      dx2y2   :     0.014083
      dxy     :     0.015058

 27 C s       :     2.853294  s :     2.853294
      pz      :     0.918584  p :     2.505679
      px      :     0.779471
      py      :     0.807624
      dz2     :     0.053106  d :     0.327782
      dxz     :     0.064955
      dyz     :     0.067937
      dx2y2   :     0.057233
      dxy     :     0.084550

 28 F s       :     3.761836  s :     3.761836
      pz      :     1.831081  p :     5.313403
      px      :     1.620096
      py      :     1.862226
      dz2     :     0.003894  d :     0.031442
      dxz     :     0.009931
      dyz     :     0.003066
      dx2y2   :     0.007696
      dxy     :     0.006855

 29 F s       :     3.757664  s :     3.757664
      pz      :     1.742861  p :     5.318729
      px      :     1.814923
      py      :     1.760945
      dz2     :     0.005041  d :     0.031154
      dxz     :     0.006871
      dyz     :     0.009471
      dx2y2   :     0.003644
      dxy     :     0.006127

 30 F s       :     3.761159  s :     3.761159
      pz      :     1.896361  p :     5.316253
      px      :     1.759755
      py      :     1.660137
      dz2     :     0.004555  d :     0.031355
      dxz     :     0.003077
      dyz     :     0.005174
      dx2y2   :     0.005959
      dxy     :     0.012590

 31 N s       :     3.244199  s :     3.244199
      pz      :     1.082161  p :     3.767188
      px      :     1.223464
      py      :     1.461563
      dz2     :     0.008106  d :     0.078087
      dxz     :     0.012014
      dyz     :     0.008350
      dx2y2   :     0.028183
      dxy     :     0.021435

 32 C s       :     2.920149  s :     2.920149
      pz      :     0.893340  p :     2.981609
      px      :     1.003097
      py      :     1.085173
      dz2     :     0.007986  d :     0.121178
      dxz     :     0.014451
      dyz     :     0.006051
      dx2y2   :     0.038244
      dxy     :     0.054445

 33 H s       :     0.650388  s :     0.650388

 34 H s       :     0.846480  s :     0.846480

 35 H s       :     0.861979  s :     0.861979

 36 H s       :     0.748220  s :     0.748220

 37 H s       :     0.843909  s :     0.843909

 38 H s       :     0.862108  s :     0.862108

 39 H s       :     0.857167  s :     0.857167

 40 H s       :     0.858282  s :     0.858282

 41 H s       :     0.865674  s :     0.865674

 42 H s       :     0.857476  s :     0.857476

 43 H s       :     0.855643  s :     0.855643

 44 H s       :     0.847457  s :     0.847457

 45 H s       :     0.839822  s :     0.839822



                      *****************************
                      * MAYER POPULATION ANALYSIS *
                      *****************************

  NA   - Mulliken gross atomic population
  ZA   - Total nuclear charge
  QA   - Mulliken gross atomic charge
  VA   - Mayer's total valence
  BVA  - Mayer's bonded valence
  FA   - Mayer's free valence

  ATOM       NA         ZA         QA         VA         BVA        FA
  0 O      8.4433     8.0000    -0.4433     2.0670     2.0670    -0.0000
  1 C      5.4747     6.0000     0.5253     3.9483     3.9483     0.0000
  2 O      8.6247     8.0000    -0.6247     1.8682     1.8682    -0.0000
  3 C      5.9327     6.0000     0.0673     3.8700     3.8700     0.0000
  4 C      6.1281     6.0000    -0.1281     3.8774     3.8774     0.0000
  5 C      6.1681     6.0000    -0.1681     3.8573     3.8573     0.0000
  6 C      5.8025     6.0000     0.1975     3.8622     3.8622     0.0000
  7 C      5.4508     6.0000     0.5492     3.8629     3.8629     0.0000
  8 O      8.4479     8.0000    -0.4479     2.0756     2.0756     0.0000
  9 N      7.6415     7.0000    -0.6415     2.9043     2.9043    -0.0000
 10 C      6.0875     6.0000    -0.0875     3.7902     3.7902     0.0000
 11 C      5.8097     6.0000     0.1903     3.8978     3.8978     0.0000
 12 C      6.1698     6.0000    -0.1698     3.9237     3.9237     0.0000
 13 C      6.1606     6.0000    -0.1606     3.9327     3.9327     0.0000
 14 C      6.0120     6.0000    -0.0120     3.9611     3.9611    -0.0000
 15 C      5.1073     6.0000     0.8927     3.9130     3.9130    -0.0000
 16 F      9.3062     9.0000    -0.3062     1.0524     1.0524     0.0000
 17 F      9.2996     9.0000    -0.2996     1.0522     1.0522    -0.0000
 18 F      9.3065     9.0000    -0.3065     1.0542     1.0542     0.0000
 19 C      6.1651     6.0000    -0.1651     3.9288     3.9288    -0.0000
 20 C      6.1402     6.0000    -0.1402     3.9227     3.9227    -0.0000
 21 C      5.7841     6.0000     0.2159     3.8768     3.8768    -0.0000
 22 N      7.4126     7.0000    -0.4126     2.9795     2.9795    -0.0000
 23 C      5.9710     6.0000     0.0290     3.9078     3.9078     0.0000
 24 C      6.1346     6.0000    -0.1346     3.9077     3.9077     0.0000
 25 C      6.1308     6.0000    -0.1308     3.9066     3.9066     0.0000
 26 C      6.0641     6.0000    -0.0641     3.9533     3.9533    -0.0000
 27 C      5.0802     6.0000     0.9198     3.8590     3.8590     0.0000
 28 F      9.2950     9.0000    -0.2950     1.0583     1.0583     0.0000
 29 F      9.3025     9.0000    -0.3025     1.0662     1.0662     0.0000
 30 F      9.2952     9.0000    -0.2952     1.0596     1.0596     0.0000
 31 N      7.3720     7.0000    -0.3720     2.9689     2.9689    -0.0000
 32 C      5.9989     6.0000     0.0011     3.8604     3.8604     0.0000
 33 H      0.5662     1.0000     0.4338     0.7960     0.7960    -0.0000
 34 H      0.8277     1.0000     0.1723     0.9354     0.9354    -0.0000
 35 H      0.8574     1.0000     0.1426     0.9423     0.9423     0.0000
 36 H      0.6690     1.0000     0.3310     0.8723     0.8723    -0.0000
 37 H      0.8102     1.0000     0.1898     0.9536     0.9536     0.0000
 38 H      0.8592     1.0000     0.1408     0.9445     0.9445     0.0000
 39 H      0.8496     1.0000     0.1504     0.9405     0.9405     0.0000
 40 H      0.8518     1.0000     0.1482     0.9419     0.9419    -0.0000
 41 H      0.8732     1.0000     0.1268     0.9512     0.9512     0.0000
 42 H      0.8353     1.0000     0.1647     0.9280     0.9280     0.0000
 43 H      0.8484     1.0000     0.1516     0.9351     0.9351    -0.0000
 44 H      0.8281     1.0000     0.1719     0.9377     0.9377    -0.0000
 45 H      0.8045     1.0000     0.1955     0.9319     0.9319     0.0000

  Mayer bond orders larger than 0.100000
B(  0-O ,  1-C ) :   1.8609 B(  1-C ,  2-O ) :   1.0248 B(  1-C ,  3-C ) :   1.0037 
B(  2-O , 33-H ) :   0.7415 B(  3-C ,  4-C ) :   1.3921 B(  3-C , 32-C ) :   1.3330 
B(  4-C ,  5-C ) :   1.4206 B(  4-C , 34-H ) :   0.9152 B(  5-C ,  6-C ) :   1.3676 
B(  5-C , 35-H ) :   0.9149 B(  6-C ,  7-C ) :   0.9679 B(  6-C , 31-N ) :   1.3669 
B(  7-C ,  8-O ) :   1.8226 B(  7-C ,  9-N ) :   1.0388 B(  9-N , 10-C ) :   0.9162 
B(  9-N , 36-H ) :   0.8087 B( 10-C , 11-C ) :   0.9359 B( 10-C , 21-C ) :   0.9456 
B( 10-C , 37-H ) :   0.8917 B( 11-C , 12-C ) :   1.4271 B( 11-C , 20-C ) :   1.4164 
B( 12-C , 13-C ) :   1.4250 B( 12-C , 38-H ) :   0.9185 B( 13-C , 14-C ) :   1.4136 
B( 13-C , 39-H ) :   0.9202 B( 14-C , 15-C ) :   0.9806 B( 14-C , 19-C ) :   1.4059 
B( 15-C , 16-F ) :   0.9487 B( 15-C , 17-F ) :   0.9828 B( 15-C , 18-F ) :   0.9467 
B( 19-C , 20-C ) :   1.4296 B( 19-C , 40-H ) :   0.9209 B( 20-C , 41-H ) :   0.9193 
B( 21-C , 22-N ) :   1.3783 B( 21-C , 26-C ) :   1.3622 B( 22-N , 23-C ) :   1.4209 
B( 23-C , 24-C ) :   1.4197 B( 23-C , 42-H ) :   0.9260 B( 24-C , 25-C ) :   1.4348 
B( 24-C , 43-H ) :   0.9226 B( 25-C , 26-C ) :   1.4065 B( 25-C , 44-H ) :   0.9153 
B( 26-C , 27-C ) :   0.9691 B( 27-C , 28-F ) :   0.9429 B( 27-C , 29-F ) :   0.9448 
B( 27-C , 30-F ) :   0.9423 B( 31-N , 32-C ) :   1.4291 B( 32-C , 45-H ) :   0.9106 


-------
TIMINGS
-------

Total SCF time: 0 days 0 hours 8 min 20 sec 

Total time                  ....     500.991 sec
Sum of individual times     ....     500.675 sec  ( 99.9%)

SCF preparation             ....       0.360 sec  (  0.1%)
Fock matrix formation       ....     498.060 sec  ( 99.4%)
  Startup                   ....       0.091 sec  (  0.0% of F)
  Split-RI-J                ....      66.136 sec  ( 13.3% of F)
  Chain of spheres X        ....     388.626 sec  ( 78.0% of F)
  XC integration            ....      42.448 sec  (  8.5% of F)
    XC Preparation          ....       0.000 sec  (  0.0% of XC)
    Basis function eval.    ....      17.544 sec  ( 41.3% of XC)
    Density eval.           ....       9.852 sec  ( 23.2% of XC)
    XC-Functional eval.     ....       2.139 sec  (  5.0% of XC)
    XC-Potential eval.      ....      11.025 sec  ( 26.0% of XC)
Diagonalization             ....       0.000 sec  (  0.0%)
Density matrix formation    ....       0.391 sec  (  0.1%)
Total Energy calculation    ....       0.077 sec  (  0.0%)
Population analysis         ....       0.069 sec  (  0.0%)
Orbital Transformation      ....       0.185 sec  (  0.0%)
Orbital Orthonormalization  ....       0.000 sec  (  0.0%)
DIIS solution               ....       0.866 sec  (  0.2%)
SOSCF solution              ....       0.667 sec  (  0.1%)
Finished LeanSCF after 501.1 sec

Maximum memory used throughout the entire LEANSCF-calculation: 75.5 MB

-------------------------   --------------------
FINAL SINGLE POINT ENERGY     -1796.111532434714
-------------------------   --------------------


------------------------------------------------------------------------------
                              ORCA PROPERTY CALCULATIONS
------------------------------------------------------------------------------

GBWName                                 ... /home/nmrbox/aojoawo/Documents/ERDOS/inputs/CHEMBL4251467.gbw
Number of atoms                         ...     46
Number of basis functions               ...    488
Max core memory                         ...   1024 MB

Electric properties:
Dipole moment                           ... YES
Quadrupole moment                       ...  NO
Static polarizability (Dipole/Dipole)   ...  NO
Static polarizability (Dipole/Quad.)    ...  NO
Static polarizability (Quad./Quad.)     ...  NO
Static polarizability (Velocity)        ...  NO

Atomic electric properties:
Dipole moment                           ...  NO
Quadrupole moment                       ...  NO
Static polarizability                   ...  NO

Choice of electric origin               ... Center of mass
Position of electric origin             ...    -0.452434     0.575762    -0.109929

General magnetic properties:
Magnetizability                         ...  NO

EPR properties:
g-Tensor (aka g-matrix)                 ...  NO
Zero-Field splitting spin-orbit         ...  NO
Zero-field splitting spin-spin          ...  NO
Hyperfine couplings                     ...  NO (   0 nuclei)
Quadrupole couplings                    ...  NO (   0 nuclei)
Contact density                         ...  NO (   0 nuclei)

NMR properties:
Chemical shifts                         ...  NO (   0 nuclei)
Spin-rotation constants                 ...  NO (   0 nuclei)
Spin-spin couplings                     ...  NO (   0 nuclei,    0 pairs)

Choice of magnetic origin               ... GIAO
Position of magnetic origin             ...     0.000000     0.000000     0.000000

Properties with geometric perturbations:
SCF Hessian                             ...  NO
IR spectrum                             ...  NO
VCD spectrum                            ...  NO
X-ray spectroscopy properties:
SCF XES/XAS/RIXS spectra                ...  NO


-------------
DIPOLE MOMENT
-------------

Method             : SCF
Type of density    : Electron Density
Multiplicity       :   1
Irrep              :   0
Energy             : -1796.1115324347144906 Eh
Relativity type    : 
Basis              : AO
                                X                 Y                 Z
Electronic contribution:    -22.688356126      10.810521003      -3.111598392
Nuclear contribution   :     23.241866786     -14.687757617       3.324642373
                        -----------------------------------------
Total Dipole Moment    :      0.553510661      -3.877236614       0.213043981
                        -----------------------------------------
Magnitude (a.u.)       :      3.922336746
Magnitude (Debye)      :      9.969787696



--------------------
Rotational spectrum 
--------------------
 
Rotational constants in cm-1:             0.004125             0.002330             0.001707 
Rotational constants in MHz :           123.662931            69.842869            51.182259 

Dipole components along the rotational axes: 
x,y,z [a.u.] :     0.642936    -2.697456    -2.774002 
x,y,z [Debye]:     1.634214    -6.856389    -7.050954 

 

Dipole moment calculation done in   0.0 sec 

Maximum memory used throughout the entire PROP-calculation: 37.4 MB

--------------------------------
SUGGESTED CITATIONS FOR THIS RUN
--------------------------------

Below you find a list of papers that are relevant to this ORCA run
We neither can nor want to force you to cite these papers, but we appreciate if you do
You receive ORCA, which is the product of decades of hard work by many enthusiastic individuals, for free
The only thing we kindly ask in return is that you cite our papers,
We deeply appreciate it, if you show your appreciation for ORCA by not just citing the generic ORCA reference.

Please note that relegating all ORCA citations to the supporting information does *not* help us.
SI sections are not indexed - citations you put there will not count into any citation statistics
But we need these citations in order to attract the funding resources that allow us to do what we are doing

Therefore, if you are a happy ORCA user, please consider citing a few of the papers listed below in the main body of your paper

In addition to the list printed below, the program has created the file /home/nmrbox/aojoawo/Documents/ERDOS/inputs/CHEMBL4251467.bibtex that contains the list in bibtex format
You can import this file easily into all common literature databanks and citation aid programs


List of essential papers. We consider these as the minimum necessary citations

  1. Neese,F.
     Software update: the ORCA program system, version 5.0
     WIRES Comput. Molec. Sci., 2022 12(1)e1606
     doi.org/10.1002/wcms.1606

List of papers to cite with high priority. The work reported in these papers was absolutely
necessary for this run to complete.
Our perspective: the developers of density functionals and basis sets usually get cited in chemistry papers
Good! But without the algorithms to do something with them, the functionals or basis sets would not do anything.
Hence, in our opinion, the algorithm design and method developments papers are equally worthy of getting cited

  1. Neese,F.
     An improvement of the resolution of the identity approximation for the formation of the Coulomb matrix
     J. Comp. Chem., 2003 24(14)1740-1747
     doi.org/10.1002/jcc.10318
  2. Neese,F.; Wennmohs,F.; Hansen,A.; Becker,U.
     Efficient, approximate and parallel Hartree-Fock and hybrid DFT calculations. A 'chain-of-spheres' algorithm for the Hartree-Fock exchange
     Chem. Phys., 2009 356(1-3)98-109
     doi.org/10.1016/j.chemphys.2008.10.036
  3. Helmich-Paris,B.; de Souza,B.; Neese,F.; Izsák,R.
     An improved chain of spheres for exchange algorithm
     J. Chem. Phys., 2021 155 104109
     doi.org/doi: 10.1063/5.0058766.
  4. Neese,F.
     The SHARK Integral Generation and Digestion System
     J. Comp. Chem., 2022  1-16
     doi.org/10.1002/jcc.26942

List of suggested additional citations. These are papers that are important in the 'surrounding' of 
of this run, or papers that preceded the highly important papers. If you like your results we are grateful for a citation.

  1. Izsak,R.; Neese,F.
     An overlap fitted chain of spheres exchange method
     J. Chem. Phys., 2011 135 144105
     doi.org/10.1063/1.3646921
  2. Izsak,R.; Hansen,A.; Neese,F.
     The resolution of identity and chain of spheres approximations for the LPNO-CCSD singles Fock term
     Molec. Phys., 2012 110 2413-2417
     doi.org/10.1080/00268976.2012.687466
  3. Neese,F.
     The ORCA program system
     WIRES Comput. Molec. Sci., 2012 2(1)73-78
     doi.org/10.1002/wcms.81
  4. Izsak,R.; Neese,F.; Klopper,W.
     Robust fitting techniques in the chain of spheres approximation to the Fock exchange: The role of the complementary space
     J. Chem. Phys., 2013 139 
     doi.org/10.1063/1.4819264
  5. Neese,F.
     Software update: the ORCA program system, version 4.0
     WIRES Comput. Molec. Sci., 2018 8(1)1-6
     doi.org/10.1002/wcms.1327
  6. Neese,F.; Wennmohs,F.; Becker,U.; Riplinger,C.
     The ORCA quantum chemistry program package
     J. Chem. Phys., 2020 152 Art. No. L224108
     doi.org/10.1063/5.0004608

List of optional additional citations

  1. Neese,F.
     Approximate second-order SCF convergence for spin unrestricted wavefunctions
     Chem. Phys. Lett., 2000 325(1-3)93-98
     doi.org/10.1016/s0009-2614(00)00662-x

Timings for individual modules:

Sum of individual times          ...      519.293 sec (=   8.655 min)
Startup calculation              ...       11.972 sec (=   0.200 min)   2.3 %
SCF iterations                   ...      507.107 sec (=   8.452 min)  97.7 %
Property calculations            ...        0.214 sec (=   0.004 min)   0.0 %
                             ****ORCA TERMINATED NORMALLY****
TOTAL RUN TIME: 0 days 0 hours 8 minutes 39 seconds 890 msec
