
                                 *****************
                                 * O   R   C   A *
                                 *****************

                                            #,                                       
                                            ###                                      
                                            ####                                     
                                            #####                                    
                                            ######                                   
                                           ########,                                 
                                     ,,################,,,,,                         
                               ,,#################################,,                 
                          ,,##########################################,,             
                       ,#########################################, ''#####,          
                    ,#############################################,,   '####,        
                  ,##################################################,,,,####,       
                ,###########''''           ''''###############################       
              ,#####''   ,,,,##########,,,,          '''####'''          '####       
            ,##' ,,,,###########################,,,                        '##       
           ' ,,###''''                  '''############,,,                           
         ,,##''                                '''############,,,,        ,,,,,,###''
      ,#''                                            '''#######################'''  
     '                                                          ''''####''''         
             ,#######,   #######,   ,#######,      ##                                
            ,#'     '#,  ##    ##  ,#'     '#,    #''#        ,####,   ,####,        
            ##       ##  ##   ,#'  ##            #'  '#       #'       #'  '#        
            ##       ##  #######   ##           ,######,      #####,   #    #        
            '#,     ,#'  ##    ##  '#,     ,#' ,#      #,     #,   #   #,  ,#        
             '#######'   ##     ##  '#######'  #'      '#     '####' # '####'        



                #########################################################
                #                        -***-                          #
                #          Department of theory and spectroscopy        #
                #                                                       #
                #                      Frank Neese                      #
                #                                                       #
                #     Directorship, Architecture, Infrastructure        #
                #                    SHARK, DRIVERS                     #
                #        Core code/Algorithms in most modules           #
                #                                                       #
                #        Max Planck Institute fuer Kohlenforschung      #
                #                Kaiser Wilhelm Platz 1                 #
                #                 D-45470 Muelheim/Ruhr                 #
                #                      Germany                          #
                #                                                       #
                #                  All rights reserved                  #
                #                        -***-                          #
                #########################################################


                         Program Version 6.0.0  -   RELEASE  -


 With contributions from (in alphabetic order):
   Daniel Aravena         : Magnetic Suceptibility
   Michael Atanasov       : Ab Initio Ligand Field Theory (pilot matlab implementation)
   Alexander A. Auer      : GIAO ZORA, VPT2 properties, NMR spectrum
   Ute Becker             : All parallelization in ORCA, NUMFREQ, NUMCALC
   Giovanni Bistoni       : ED, misc. LED, open-shell LED, HFLD
   Martin Brehm           : Molecular dynamics
   Dmytro Bykov           : pre 5.0 version of the SCF Hessian
   Marcos Casanova-Páez   : Triplet and SCS-CIS(D). UHF-(DLPNO)-IP/EA/STEOM-CCSD. UHF-CVS-IP/STEOM-CCSD
   Vijay G. Chilkuri      : MRCI spin determinant printing, contributions to CSF-ICE
   Pauline Colinet        : FMM embedding
   Dipayan Datta          : RHF DLPNO-CCSD density
   Achintya Kumar Dutta   : EOM-CC, STEOM-CC
   Nicolas Foglia         : Exact transition moments, OPA infrastructure, MCD improvements
   Dmitry Ganyushin       : Spin-Orbit,Spin-Spin,Magnetic field MRCI
   Miquel Garcia          : C-PCM and meta-GGA Hessian, CCSD/C-PCM, Gaussian charge scheme
   Tiago L. C. Gouveia    : GS-ROHF, GS-ROCIS
   Yang Guo               : DLPNO-NEVPT2, F12-NEVPT2, CIM, IAO-localization
   Andreas Hansen         : Spin unrestricted coupled pair/coupled cluster methods
   Ingolf Harden          : AUTO-CI MPn and infrastructure 
   Benjamin Helmich-Paris : MC-RPA, TRAH-(SCF,CASSCF), AVAS, COSX integrals, SCF dyn. polar.
   Lee Huntington         : MR-EOM, pCC
   Robert Izsak           : Overlap fitted RIJCOSX, COSX-SCS-MP3, EOM
   Riya Kayal             : Wick's Theorem for AUTO-CI, AUTO-CI UHF-CCSDT
   Emily Kempfer          : AUTO-CI, RHF CISDT and CCSDT
   Christian Kollmar      : KDIIS, OOCD, Brueckner-CCSD(T), CCSD density, CASPT2, CASPT2-K, improved NEVPT2
   Axel Koslowski         : Symmetry handling
   Simone Kossmann        : Meta GGA functionals, TD-DFT gradient, OOMP2, (MP2 Hessian; deprecated post 5.0)
   Lucas Lang             : DCDCAS
   Marvin Lechner         : AUTO-CI (C++ implementation), FIC-MRCC
   Spencer Leger          : CASSCF response
   Dagmar Lenk            : GEPOL surface, SMD, ORCA-2-JSON
   Dimitrios Liakos       : Extrapolation schemes; Compound Job, initial MDCI parallelization
   Dimitrios Manganas     : Further ROCIS development; embedding schemes. LFT, Crystal Embedding
   Dimitrios Pantazis     : SARC Basis sets
   Anastasios Papadopoulos: AUTO-CI, single reference methods and gradients
   Taras Petrenko         : pre 6.0 DFT Hessian and TD-DFT gradient, (ASA, deprecated), ECA, 1-Electron XAS/XES, NRVS
   Peter Pinski           : DLPNO-MP2, DLPNO-MP2 Gradient
   Christoph Reimann      : Effective Core Potentials
   Marius Retegan         : Local ZFS, SOC
   Christoph Riplinger    : Optimizer, TS searches, QM/MM, DLPNO-CCSD(T), (RO)-DLPNO pert. Triples
   Michael Roemelt        : Original ROCIS implementation
   Masaaki Saitow         : Open-shell DLPNO-CCSD energy and density
   Barbara Sandhoefer     : DKH picture change effects
   Kantharuban Sivalingam : CASSCF convergence/infrastructure, NEVPT2 and variants, FIC-MRCI
   Bernardo de Souza      : ESD, SOC TD-DFT
   Georgi Stoychev        : AutoAux, RI-MP2 NMR, DLPNO-MP2 response, X2C
   Van Anh Tran           : RI-MP2 g-tensors
   Willem Van den Heuvel  : Paramagnetic NMR
   Zikuan Wang            : NOTCH, Electric field optimization 
   Frank Wennmohs         : Technical directorship and infrastructure
   Hang Xu                : AUTO-CI-Response properties 


 We gratefully acknowledge several colleagues who have allowed us to
 interface, adapt or use parts of their codes:
   Stefan Grimme, W. Hujo, H. Kruse, P. Pracht,  : VdW corrections, initial TS optimization,
                  C. Bannwarth, S. Ehlert,         DFT functionals, gCP, sTDA/sTD-DF
                  L. Wittmann, M. Mueller
   Ed Valeev, F. Pavosevic, A. Kumar             : LibInt (2-el integral package), F12 methods
   Garnet Chan, S. Sharma, J. Yang, R. Olivares  : DMRG
   Ulf Ekstrom                                   : XCFun DFT Library
   Mihaly Kallay                                 : mrcc  (arbitrary order and MRCC methods)
   Frank Weinhold                                : gennbo (NPA and NBO analysis)
   Simon Mueller                                 : openCOSMO-RS
   Christopher J. Cramer and Donald G. Truhlar   : smd solvation model
   Lars Goerigk                                  : TD-DFT with DH, B97 family of functionals
   V. Asgeirsson, H. Jonsson                     : NEB implementation
   FAccTs GmbH                                   : IRC, NEB, NEB-TS, DLPNO-Multilevel, CI-OPT
                                                   MM, QMMM, 2- and 3-layer-ONIOM, Crystal-QMMM,
                                                   LR-CPCM, SF, NACMEs, symmetry and pop. for TD-DFT,
                                                   nearIR, NL-DFT gradient (VV10), updates on ESD,
                                                   ML-optimized integration grids, MBIS, APM,
                                                   GOAT, DOCKER, SOLVATOR, interface openCOSMO-RS
   S Lehtola, MJT Oliveira, MAL Marques          : LibXC Library
   Liviu Ungur et al                             : ANISO software


 Your calculation uses the libint2 library for the computation of 2-el integrals
 For citations please refer to: http://libint.valeyev.net

 Your ORCA version has been built with support for libXC version: 6.2.2
 For citations please refer to: https://libxc.gitlab.io

 This ORCA versions uses:
   CBLAS   interface :  Fast vector & matrix operations
   LAPACKE interface :  Fast linear algebra routines
   SCALAPACK package :  Parallel linear algebra routines
   Shared memory     :  Shared parallel matrices
   BLAS/LAPACK       :  OpenBLAS 0.3.27  USE64BITINT DYNAMIC_ARCH NO_AFFINITY SkylakeX SINGLE_THREADED
        Core in use  :  SkylakeX
   Copyright (c) 2011-2014, The OpenBLAS Project


Warning: RI is on but no J-basis has been assigned. Assigning Def2/J (nothing to worry about!)
================================================================================

----- Orbital basis set information -----
Your calculation utilizes the basis: 6-31G*
   H-He, Li-Ne : W. J. Hehre, R. Ditchfield and J.A. Pople, J. Chem. Phys. 56, 2257 (1972).
                 Note: He and Ne are unpublished basis sets taken from the Gaussian program.
                 Note: Li and B from J. D. Dill and J. A. Pople, J. Chem. Phys. 62, 2921 (1975).
   Na - Ar     : M. M. Francl, W. J. Pietro, W. J. Hehre, J. S. Binkley, M. S. Gordon, 
                 D. J. DeFrees and J. A. Pople, J. Chem. Phys. 77, 3654 (1982).
   K - Zn      : V. A. Rassolov, J. A. Pople, M. A. Ratner, and T. L. Windus, J. Chem. Phys. 109, 1223 (1998).

----- AuxJ basis set information -----
Your calculation utilizes the auxiliary basis: def2/J
   F. Weigend, Phys. Chem. Chem. Phys. 8, 1057 (2006).

================================================================================
                                        WARNINGS
                       Please study these warnings very carefully!
================================================================================


================================================================================
                                       INPUT FILE
================================================================================
NAME = /home/nmrbox/aojoawo/Documents/ERDOS/inputs/CHEMBL3353580.inp
|  1> ! B3LYP 6-31G* SP
|  2> 
|  3> * xyz 0 1
|  4> N -1.4346 6.5613 -3.7832
|  5> C -1.0698 5.5522 -3.3498
|  6> C -0.6161 4.2972 -2.8108
|  7> C 0.0991 3.4006 -3.6109
|  8> N 0.5216 2.2164 -3.0946
|  9> C 0.2749 1.8642 -1.8033
| 10> N 0.7345 0.5972 -1.3208
| 11> C 0.0899 -0.6311 -1.7881
| 12> C -1.2484 -0.7947 -1.1213
| 13> C -2.3900 -0.1861 -1.6693
| 14> C -3.6224 -0.2839 -1.0162
| 15> C -3.7226 -0.9835 0.1895
| 16> C -2.5902 -1.5859 0.7444
| 17> C -1.3563 -1.4905 0.0944
| 18> S 2.2299 0.5181 -0.4412
| 19> O 3.3288 0.0710 -1.3641
| 20> O 2.5814 1.8779 0.0959
| 21> C 2.0746 -0.6055 0.9060
| 22> C 1.5182 -0.1780 2.1175
| 23> C 1.3503 -1.0784 3.1732
| 24> C 1.7392 -2.4226 3.0320
| 25> C 1.5577 -3.3818 4.1435
| 26> O 1.0511 -3.0059 5.2353
| 27> O 1.9449 -4.7110 3.9938
| 28> C 2.3024 -2.8444 1.8152
| 29> C 2.4681 -1.9419 0.7606
| 30> C -0.4472 2.7346 -0.9696
| 31> Cl -0.8394 2.3022 0.6877
| 32> C -0.8905 3.9566 -1.4827
| 33> H 0.3201 3.6396 -4.6436
| 34> H 0.7293 -1.5131 -1.5698
| 35> H -0.0310 -0.5961 -2.8929
| 36> H -2.3228 0.3720 -2.5951
| 37> H -4.4985 0.1878 -1.4419
| 38> H -4.6767 -1.0562 0.6951
| 39> H -2.6675 -2.1238 1.6804
| 40> H -0.4884 -1.9581 0.5395
| 41> H 1.2093 0.8507 2.2453
| 42> H 0.9132 -0.7224 4.0977
| 43> H 1.8248 -5.3761 4.7485
| 44> H 2.6100 -3.8728 1.6743
| 45> H 2.8910 -2.2903 -0.1728
| 46> H -1.4519 4.6344 -0.8504
| 47> *
| 48> 
| 49>                          ****END OF INPUT****
================================================================================

                       ****************************
                       * Single Point Calculation *
                       ****************************

---------------------------------
CARTESIAN COORDINATES (ANGSTROEM)
---------------------------------
  N     -1.434600    6.561300   -3.783200
  C     -1.069800    5.552200   -3.349800
  C     -0.616100    4.297200   -2.810800
  C      0.099100    3.400600   -3.610900
  N      0.521600    2.216400   -3.094600
  C      0.274900    1.864200   -1.803300
  N      0.734500    0.597200   -1.320800
  C      0.089900   -0.631100   -1.788100
  C     -1.248400   -0.794700   -1.121300
  C     -2.390000   -0.186100   -1.669300
  C     -3.622400   -0.283900   -1.016200
  C     -3.722600   -0.983500    0.189500
  C     -2.590200   -1.585900    0.744400
  C     -1.356300   -1.490500    0.094400
  S      2.229900    0.518100   -0.441200
  O      3.328800    0.071000   -1.364100
  O      2.581400    1.877900    0.095900
  C      2.074600   -0.605500    0.906000
  C      1.518200   -0.178000    2.117500
  C      1.350300   -1.078400    3.173200
  C      1.739200   -2.422600    3.032000
  C      1.557700   -3.381800    4.143500
  O      1.051100   -3.005900    5.235300
  O      1.944900   -4.711000    3.993800
  C      2.302400   -2.844400    1.815200
  C      2.468100   -1.941900    0.760600
  C     -0.447200    2.734600   -0.969600
  Cl    -0.839400    2.302200    0.687700
  C     -0.890500    3.956600   -1.482700
  H      0.320100    3.639600   -4.643600
  H      0.729300   -1.513100   -1.569800
  H     -0.031000   -0.596100   -2.892900
  H     -2.322800    0.372000   -2.595100
  H     -4.498500    0.187800   -1.441900
  H     -4.676700   -1.056200    0.695100
  H     -2.667500   -2.123800    1.680400
  H     -0.488400   -1.958100    0.539500
  H      1.209300    0.850700    2.245300
  H      0.913200   -0.722400    4.097700
  H      1.824800   -5.376100    4.748500
  H      2.610000   -3.872800    1.674300
  H      2.891000   -2.290300   -0.172800
  H     -1.451900    4.634400   -0.850400

----------------------------
CARTESIAN COORDINATES (A.U.)
----------------------------
  NO LB      ZA    FRAG     MASS         X           Y           Z
   0 N     7.0000    0    14.007   -2.711001   12.399060   -7.149212
   1 C     6.0000    0    12.011   -2.021629   10.492137   -6.330205
   2 C     6.0000    0    12.011   -1.164260    8.120531   -5.311642
   3 C     6.0000    0    12.011    0.187272    6.426203   -6.823612
   4 N     7.0000    0    14.007    0.985681    4.188389   -5.847946
   5 C     6.0000    0    12.011    0.519486    3.522827   -3.407743
   6 N     7.0000    0    14.007    1.388004    1.128544   -2.495950
   7 C     6.0000    0    12.011    0.169886   -1.192606   -3.379019
   8 C     6.0000    0    12.011   -2.359134   -1.501765   -2.118950
   9 C     6.0000    0    12.011   -4.516445   -0.351678   -3.154520
  10 C     6.0000    0    12.011   -6.845344   -0.536493   -1.920340
  11 C     6.0000    0    12.011   -7.034695   -1.858546    0.358103
  12 C     6.0000    0    12.011   -4.894769   -2.996917    1.406712
  13 C     6.0000    0    12.011   -2.563036   -2.816637    0.178390
  14 S    16.0000    0    32.060    4.213900    0.979067   -0.833747
  15 O     8.0000    0    15.999    6.290520    0.134171   -2.577775
  16 O     8.0000    0    15.999    4.878139    3.548717    0.181225
  17 C     6.0000    0    12.011    3.920426   -1.144229    1.712092
  18 C     6.0000    0    12.011    2.868982   -0.336371    4.001495
  19 C     6.0000    0    12.011    2.551697   -2.037881    5.996479
  20 C     6.0000    0    12.011    3.286612   -4.578051    5.729650
  21 C     6.0000    0    12.011    2.943626   -6.390676    7.830080
  22 O     8.0000    0    15.999    1.986291   -5.680328    9.893283
  23 O     8.0000    0    15.999    3.675328   -8.902500    7.547188
  24 C     6.0000    0    12.011    4.350905   -5.375137    3.430231
  25 C     6.0000    0    12.011    4.664033   -3.669659    1.437326
  26 C     6.0000    0    12.011   -0.845086    5.167645   -1.832278
  27 Cl   17.0000    0    35.453   -1.586236    4.350528    1.299565
  28 C     6.0000    0    12.011   -1.682801    7.476890   -2.801897
  29 H     1.0000    0     1.008    0.604901    6.877847   -8.775132
  30 H     1.0000    0     1.008    1.378177   -2.859345   -2.966492
  31 H     1.0000    0     1.008   -0.058582   -1.126466   -5.466789
  32 H     1.0000    0     1.008   -4.389456    0.702978   -4.904028
  33 H     1.0000    0     1.008   -8.500933    0.354891   -2.724796
  34 H     1.0000    0     1.008   -8.837682   -1.995929    1.313549
  35 H     1.0000    0     1.008   -5.040844   -4.013400    3.175496
  36 H     1.0000    0     1.008   -0.922942   -3.700273    1.019507
  37 H     1.0000    0     1.008    2.285246    1.607590    4.243002
  38 H     1.0000    0     1.008    1.725698   -1.365138    7.743531
  39 H     1.0000    0     1.008    3.448372  -10.159357    8.973365
  40 H     1.0000    0     1.008    4.932185   -7.318531    3.163968
  41 H     1.0000    0     1.008    5.463198   -4.328040   -0.326545
  42 H     1.0000    0     1.008   -2.743693    8.757747   -1.607023

--------------------------------
INTERNAL COORDINATES (ANGSTROEM)
--------------------------------
 N      0   0   0     0.000000000000     0.00000000     0.00000000
 C      1   0   0     1.157236972275     0.00000000     0.00000000
 C      2   1   0     1.439232326624   179.99950277     0.00000000
 C      3   2   1     1.398414319864   120.39999930   357.36052179
 N      4   3   2     1.359191517042   120.01662728   180.12771272
 C      5   4   3     1.361014849294   121.97282109   359.77576289
 N      6   5   4     1.431547208443   119.38145576   179.39590510
 C      7   6   5     1.463762050335   119.58421275   289.11477000
 C      8   7   6     1.504138986264   109.97220188   284.78694619
 C      9   8   7     1.404972782655   120.19406421    86.26363796
 C     10   9   8     1.398182466633   120.24561655   183.06878798
 C     11  10   9     1.397566703238   120.07869587     0.29016892
 C     12  11  10     1.397544106638   120.01473366     0.03292913
 C     13  12  11     1.397894978173   120.07807128   359.95978082
 S      7   6   5     1.736713600453   119.17365431    97.33101024
 O     15   7   6     1.503071531897   109.39541179   260.97737520
 O     15   7   6     1.503690360413   109.93761445    20.03360488
 C     15   7   6     1.761119782979   109.91129153   139.92327115
 C     18  15   7     1.400024806923   120.14492381   276.27460953
 C     19  18  15     1.397645541616   120.30849651   177.75707641
 C     20  19  18     1.406433180069   120.44219959     0.07609080
 C     21  20  19     1.479337398973   120.68710715   180.30940939
 O     22  21  20     1.260940763874   120.43514747   359.97093739
 O     22  21  20     1.392518068105   120.26686827   179.94900677
 C     21  20  19     1.405600128059   118.98053241     0.19101271
 C     25  21  20     1.397906971154   120.45343696   359.75433538
 C      6   5   4     1.405019665343   119.72421275     0.58497178
 Cl    27   6   5     1.757109527036   121.46209380   177.86158935
 C     27   6   5     1.397522987289   119.13412701   359.46196454
 H      4   3   2     1.082788663590   120.56708248     0.02717186
 H      8   7   6     1.111040615819   110.48682952   163.42977202
 H      8   7   6     1.111946424069   109.79537496    46.34492555
 H     10   9   8     1.083096066838   120.41050323     2.40433547
 H     11  10   9     1.082253477703   119.95431200   179.92225513
 H     12  11  10     1.082230779455   119.99207463   179.84571730
 H     13  12  11     1.082315896585   119.98210078   179.72661823
 H     14  13  12     1.081671937327   119.16974228   179.69587504
 H     19  18  15     1.081654168392   120.40712371   358.05409843
 H     20  19  18     1.082817002083   118.78954750   180.28087368
 H     24  22  21     1.013091363106   120.90436890   180.01790045
 H     25  21  20     1.082625110553   120.76807136   180.12924821
 H     26  25  21     1.082341226231   119.28113313   180.85383919
 H     29  27   6     1.083690956869   119.80211286   179.74917130

---------------------------
INTERNAL COORDINATES (A.U.)
---------------------------
 N      0   0   0     0.000000000000     0.00000000     0.00000000
 C      1   0   0     2.186860949648     0.00000000     0.00000000
 C      2   1   0     2.719754940406   179.99950277     0.00000000
 C      3   2   1     2.642620086296   120.39999930   357.36052179
 N      4   3   2     2.568499730759   120.01662728   180.12771272
 C      5   4   3     2.571945329367   121.97282109   359.77576289
 N      6   5   4     2.705232171736   119.38145576   179.39590510
 C      7   6   5     2.766109400360   119.58421275   289.11477000
 C      8   7   6     2.842410751393   109.97220188   284.78694619
 C      9   8   7     2.655013784830   120.19406421    86.26363796
 C     10   9   8     2.642181947187   120.24561655   183.06878798
 C     11  10   9     2.641018323007   120.07869587     0.29016892
 C     12  11  10     2.640975621622   120.01473366     0.03292913
 C     13  12  11     2.641638672730   120.07807128   359.95978082
 S      7   6   5     3.281913077913   119.17365431    97.33101024
 O     15   7   6     2.840393554979   109.39541179   260.97737520
 O     15   7   6     2.841562971399   109.93761445    20.03360488
 C     15   7   6     3.328034078861   109.91129153   139.92327115
 C     18  15   7     2.645663465781   120.14492381   276.27460953
 C     19  18  15     2.641167305951   120.30849651   177.75707641
 C     20  19  18     2.657773535991   120.44219959     0.07609080
 C     21  20  19     2.795542543726   120.68710715   180.30940939
 O     22  21  20     2.382832714820   120.43514747   359.97093739
 O     22  21  20     2.631477785256   120.26686827   179.94900677
 C     21  20  19     2.656199295837   118.98053241     0.19101271
 C     25  21  20     2.641661336180   120.45343696   359.75433538
 C      6   5   4     2.655102380272   119.72421275     0.58497178
 Cl    27   6   5     3.320455793402   121.46209380   177.86158935
 C     27   6   5     2.640935711835   119.13412701   359.46196454
 H      4   3   2     2.046174035101   120.56708248     0.02717186
 H      8   7   6     2.099562487562   110.48682952   163.42977202
 H      8   7   6     2.101274217084   109.79537496    46.34492555
 H     10   9   8     2.046754943051   120.41050323     2.40433547
 H     11  10   9     2.045162680342   119.95431200   179.92225513
 H     12  11  10     2.045119786870   119.99207463   179.84571730
 H     13  12  11     2.045280634935   119.98210078   179.72661823
 H     14  13  12     2.044063728295   119.16974228   179.69587504
 H     19  18  15     2.044030149875   120.40712371   358.05409843
 H     20  19  18     2.046227587090   118.78954750   180.28087368
 H     24  22  21     1.914465224911   120.90436890   180.01790045
 H     25  21  20     2.045864964651   120.76807136   180.12924821
 H     26  25  21     2.045328501030   119.28113313   180.85383919
 H     29  27   6     2.047879122290   119.80211286   179.74917130

---------------------
BASIS SET INFORMATION
---------------------
There are 6 groups of distinct atoms

 Group   1 Type N   : 10s4p1d contracted to 3s2p1d pattern {631/31/1}
 Group   2 Type C   : 10s4p1d contracted to 3s2p1d pattern {631/31/1}
 Group   3 Type S   : 16s10p1d contracted to 4s3p1d pattern {6631/631/1}
 Group   4 Type O   : 10s4p1d contracted to 3s2p1d pattern {631/31/1}
 Group   5 Type Cl  : 16s10p1d contracted to 4s3p1d pattern {6631/631/1}
 Group   6 Type H   : 4s contracted to 2s pattern {31}

Atom   0N    basis set group =>   1
Atom   1C    basis set group =>   2
Atom   2C    basis set group =>   2
Atom   3C    basis set group =>   2
Atom   4N    basis set group =>   1
Atom   5C    basis set group =>   2
Atom   6N    basis set group =>   1
Atom   7C    basis set group =>   2
Atom   8C    basis set group =>   2
Atom   9C    basis set group =>   2
Atom  10C    basis set group =>   2
Atom  11C    basis set group =>   2
Atom  12C    basis set group =>   2
Atom  13C    basis set group =>   2
Atom  14S    basis set group =>   3
Atom  15O    basis set group =>   4
Atom  16O    basis set group =>   4
Atom  17C    basis set group =>   2
Atom  18C    basis set group =>   2
Atom  19C    basis set group =>   2
Atom  20C    basis set group =>   2
Atom  21C    basis set group =>   2
Atom  22O    basis set group =>   4
Atom  23O    basis set group =>   4
Atom  24C    basis set group =>   2
Atom  25C    basis set group =>   2
Atom  26C    basis set group =>   2
Atom  27Cl   basis set group =>   5
Atom  28C    basis set group =>   2
Atom  29H    basis set group =>   6
Atom  30H    basis set group =>   6
Atom  31H    basis set group =>   6
Atom  32H    basis set group =>   6
Atom  33H    basis set group =>   6
Atom  34H    basis set group =>   6
Atom  35H    basis set group =>   6
Atom  36H    basis set group =>   6
Atom  37H    basis set group =>   6
Atom  38H    basis set group =>   6
Atom  39H    basis set group =>   6
Atom  40H    basis set group =>   6
Atom  41H    basis set group =>   6
Atom  42H    basis set group =>   6
---------------------------------
AUXILIARY/J BASIS SET INFORMATION
---------------------------------
There are 6 groups of distinct atoms

 Group   1 Type N   : 12s5p4d2f1g contracted to 6s4p3d1f1g pattern {711111/2111/211/2/1}
 Group   2 Type C   : 12s5p4d2f1g contracted to 6s4p3d1f1g pattern {711111/2111/211/2/1}
 Group   3 Type S   : 14s5p5d2f1g contracted to 8s4p3d1f1g pattern {71111111/2111/311/2/1}
 Group   4 Type O   : 12s5p4d2f1g contracted to 6s4p3d1f1g pattern {711111/2111/211/2/1}
 Group   5 Type Cl  : 14s5p5d2f1g contracted to 8s4p3d1f1g pattern {71111111/2111/311/2/1}
 Group   6 Type H   : 5s2p1d contracted to 3s1p1d pattern {311/2/1}

Atom   0N    basis set group =>   1
Atom   1C    basis set group =>   2
Atom   2C    basis set group =>   2
Atom   3C    basis set group =>   2
Atom   4N    basis set group =>   1
Atom   5C    basis set group =>   2
Atom   6N    basis set group =>   1
Atom   7C    basis set group =>   2
Atom   8C    basis set group =>   2
Atom   9C    basis set group =>   2
Atom  10C    basis set group =>   2
Atom  11C    basis set group =>   2
Atom  12C    basis set group =>   2
Atom  13C    basis set group =>   2
Atom  14S    basis set group =>   3
Atom  15O    basis set group =>   4
Atom  16O    basis set group =>   4
Atom  17C    basis set group =>   2
Atom  18C    basis set group =>   2
Atom  19C    basis set group =>   2
Atom  20C    basis set group =>   2
Atom  21C    basis set group =>   2
Atom  22O    basis set group =>   4
Atom  23O    basis set group =>   4
Atom  24C    basis set group =>   2
Atom  25C    basis set group =>   2
Atom  26C    basis set group =>   2
Atom  27Cl   basis set group =>   5
Atom  28C    basis set group =>   2
Atom  29H    basis set group =>   6
Atom  30H    basis set group =>   6
Atom  31H    basis set group =>   6
Atom  32H    basis set group =>   6
Atom  33H    basis set group =>   6
Atom  34H    basis set group =>   6
Atom  35H    basis set group =>   6
Atom  36H    basis set group =>   6
Atom  37H    basis set group =>   6
Atom  38H    basis set group =>   6
Atom  39H    basis set group =>   6
Atom  40H    basis set group =>   6
Atom  41H    basis set group =>   6
Atom  42H    basis set group =>   6
------------------------------------------------------------------------------
                             ORCA STARTUP CALCULATIONS
                           -- RI-GTO INTEGRALS CHOSEN --
------------------------------------------------------------------------------
------------------------------------------------------------------------------
                   ___                                                        
                  /   \      - P O W E R E D   B Y -                         
                 /     \                                                     
                 |  |  |   _    _      __       _____    __    __             
                 |  |  |  | |  | |    /  \     |  _  \  |  |  /  |          
                  \  \/   | |  | |   /    \    | | | |  |  | /  /          
                 / \  \   | |__| |  /  /\  \   | |_| |  |  |/  /          
                |  |  |   |  __  | /  /__\  \  |    /   |      \           
                |  |  |   | |  | | |   __   |  |    \   |  |\   \          
                \     /   | |  | | |  |  |  |  | |\  \  |  | \   \       
                 \___/    |_|  |_| |__|  |__|  |_| \__\ |__|  \__/        
                                                                              
                      - O R C A' S   B I G   F R I E N D -                    
                                      &                                       
                       - I N T E G R A L  F E E D E R -                       
                                                                              
 v1 FN, 2020, v2 2021, v3 2022-2024                                           
------------------------------------------------------------------------------


----------------------
SHARK INTEGRAL PACKAGE
----------------------

Number of atoms                             ...     43
Number of basis functions                   ...    442
Number of shells                            ...    206
Maximum angular momentum                    ...      2
Integral batch strategy                     ... SHARK/LIBINT Hybrid
RI-J (if used) integral strategy            ... SPLIT-RIJ (Revised 2003 algorithm where possible)
Printlevel                                  ...      1
Contraction scheme used                     ... SEGMENTED contraction
Prescreening option                         ... SCHWARTZ
   Thresh                                   ... 1.000e-10
   Tcut                                     ... 1.000e-11
   Tpresel                                  ... 1.000e-11 
Coulomb Range Separation                    ... NOT USED
Exchange Range Separation                   ... NOT USED
Multipole approximations                    ... NOT USED
Finite Nucleus Model                        ... NOT USED
CABS basis                                  ... NOT available
Auxiliary Coulomb fitting basis             ... AVAILABLE
   # of basis functions in Aux-J            ...   1579
   # of shells in Aux-J                     ...    509
   Maximum angular momentum in Aux-J        ...      4
Auxiliary J/K fitting basis                 ... NOT available
Auxiliary Correlation fitting basis         ... NOT available
Auxiliary 'external' fitting basis          ... NOT available

Checking pre-screening integrals            ... done (  0.0 sec) Dimension = 206
Check shell pair data                       ... done (  0.0 sec)
Shell pair information
Shell pair cut-off parameter TPreSel        ...   1.0e-11
Total number of shell pairs                 ...     21321
Shell pairs after pre-screening             ...     13576
Total number of primitive shell pairs       ...    133581
Primitive shell pairs kept                  ...     43627
          la=0 lb=0:   4141 shell pairs
          la=1 lb=0:   4846 shell pairs
          la=1 lb=1:   1419 shell pairs
          la=2 lb=0:   1819 shell pairs
          la=2 lb=1:   1136 shell pairs
          la=2 lb=2:    215 shell pairs

Calculating one electron integrals          ... done (  0.2 sec)
Calculating RI/J V-Matrix + Cholesky decomp.... done (  0.3 sec)
Calculating Nuclear repulsion               ... done (  0.0 sec) ENN=   3073.920582619438 Eh

Diagonalization of the overlap matrix:
Smallest eigenvalue                        ... 4.717e-04
Time for diagonalization                   ...    0.028 sec
Threshold for overlap eigenvalues          ... 1.000e-07
Number of eigenvalues below threshold      ... 0
Time for construction of square roots      ...    0.028 sec
Total time needed                          ...    0.069 sec

-------------------
DFT GRID GENERATION
-------------------

General Integration Accuracy     IntAcc      ... 4.388
Radial Grid Type                 RadialGrid  ... OptM3 with GC (2021)
Angular Grid (max. ang.)         AngularGrid ... 4 (Lebedev-302)
Angular grid pruning method      GridPruning ... 4 (adaptive)
Weight generation scheme         WeightScheme... mBecke (2022)
Basis function cutoff            BFCut       ... 1.0000e-10
Integration weight cutoff        WCut        ... 1.0000e-14
Partially contracted basis set               ... off
Rotationally invariant grid construction     ... off
Angular grids for H and He will be reduced by one unit

Total number of grid points                  ...   220423
Total number of batches                      ...     3466
Average number of points per batch           ...       63
Average number of grid points per atom       ...     5126

--------------------
COSX GRID GENERATION
--------------------

GRIDX 1
-------
General Integration Accuracy     IntAcc      ... 3.816
Radial Grid Type                 RadialGrid  ... OptM3 with GC (2021)
Angular Grid (max. ang.)         AngularGrid ... 1 (Lebedev-50)
Angular grid pruning method      GridPruning ... 4 (adaptive)
Weight generation scheme         WeightScheme... mBecke (2022)
Basis function cutoff            BFCut       ... 1.0000e-10
Integration weight cutoff        WCut        ... 1.0000e-14
Partially contracted basis set               ... on
Rotationally invariant grid construction     ... off
Angular grids for H and He will be reduced by one unit

Total number of grid points                  ...    29881
Total number of batches                      ...      255
Average number of points per batch           ...      117
Average number of grid points per atom       ...      695
UseSFitting                                  ... on

GRIDX 2
-------
General Integration Accuracy     IntAcc      ... 4.020
Radial Grid Type                 RadialGrid  ... OptM3 with GC (2021)
Angular Grid (max. ang.)         AngularGrid ... 2 (Lebedev-110)
Angular grid pruning method      GridPruning ... 4 (adaptive)
Weight generation scheme         WeightScheme... mBecke (2022)
Basis function cutoff            BFCut       ... 1.0000e-10
Integration weight cutoff        WCut        ... 1.0000e-14
Partially contracted basis set               ... on
Rotationally invariant grid construction     ... off
Angular grids for H and He will be reduced by one unit

Total number of grid points                  ...    61445
Total number of batches                      ...      502
Average number of points per batch           ...      122
Average number of grid points per atom       ...     1429
UseSFitting                                  ... on

GRIDX 3
-------
General Integration Accuracy     IntAcc      ... 4.338
Radial Grid Type                 RadialGrid  ... OptM3 with GC (2021)
Angular Grid (max. ang.)         AngularGrid ... 3 (Lebedev-194)
Angular grid pruning method      GridPruning ... 4 (adaptive)
Weight generation scheme         WeightScheme... mBecke (2022)
Basis function cutoff            BFCut       ... 1.0000e-10
Integration weight cutoff        WCut        ... 1.0000e-14
Partially contracted basis set               ... on
Rotationally invariant grid construction     ... off
Angular grids for H and He will be reduced by one unit

Total number of grid points                  ...   135750
Total number of batches                      ...     1079
Average number of points per batch           ...      125
Average number of grid points per atom       ...     3157
UseSFitting                                  ... on
Initializing property integral containers    ... done (  0.0 sec)

SHARK setup successfully completed in   9.6 seconds

Maximum memory used throughout the entire STARTUP-calculation: 97.3 MB
-------------------------------------------------------------------------------
                                 ORCA GUESS
                   Start orbitals & Density for SCF / CASSCF
-------------------------------------------------------------------------------

------------
SCF SETTINGS
------------
Hamiltonian:
 Density Functional     Method          .... DFT(GTOs)
 Exchange Functional    Exchange        .... B88
   X-Alpha parameter    XAlpha          ....  0.666667
   Becke's b parameter  XBeta           ....  0.004200
 Correlation Functional Correlation     .... LYP
 LDA part of GGA corr.  LDAOpt          .... VWN-5
 Gradients option       PostSCFGGA      .... off
 Hybrid DFT is turned on
   Fraction HF Exchange ScalHFX         ....  0.200000
   Scaling of DF-GGA-X  ScalDFX         ....  0.720000
   Scaling of DF-GGA-C  ScalDFC         ....  0.810000
   Scaling of DF-LDA-C  ScalLDAC        ....  1.000000
   Perturbative correction              ....  0.000000
   NL short-range parameter             ....  4.800000
 RI-approximation to the Coulomb term is turned on
   Number of AuxJ basis functions       .... 1579
   RIJ-COSX (HFX calculated with COS-X)).... on


General Settings:
 Integral files         IntName         .... /home/nmrbox/aojoawo/Documents/ERDOS/inputs/CHEMBL3353580
 Hartree-Fock type      HFTyp           .... RHF
 Total Charge           Charge          ....    0
 Multiplicity           Mult            ....    1
 Number of Electrons    NEL             ....  220
 Basis Dimension        Dim             ....  442
 Nuclear Repulsion      ENuc            ....   3073.9205826194 Eh

Convergence Acceleration:
 AO-DIIS                CNVDIIS         .... on
   Start iteration      DIISMaxIt       ....    12
   Startup error        DIISStart       ....  0.200000
   # of expansion vecs  DIISMaxEq       ....     5
   Bias factor          DIISBfac        ....   1.050
   Max. coefficient     DIISMaxC        ....  10.000
 MO-DIIS                CNVKDIIS        .... off
 Trust-Rad. Augm. Hess. CNVTRAH         .... auto
   Auto Start mean grad. ratio tolernc. ....  1.125000
   Auto Start start iteration           ....    50
   Auto Start num. interpolation iter.  ....    10
   Max. Number of Micro iterations      ....    24
   Max. Number of Macro iterations      .... Maxiter - #DIIS iter
   Number of Davidson start vectors     ....     2
   Converg. threshold    (grad. norm)   ....   5.000e-05
   Grad. Scal. Fac. for Micro threshold ....   0.100
   Minimum threshold for Micro iter.    ....   1.000e-02
   NR start threshold (gradient norm)   ....   1.000e-04
   Initial trust radius                 ....   0.400
   Minimum AH scaling param. (alpha)    ....   1.000
   Maximum AH scaling param. (alpha)    .... 1000.000
   Quad. conv. algorithm                .... NR
   White noise on init. David. guess    .... on
   Maximum white noise                  ....   0.010
   Pseudo random numbers                .... off
   Inactive MOs                         .... canonical
   Orbital update algorithm             .... Taylor
   Preconditioner                       .... Diag
   Full preconditioner red. dimension   ....   250
 SOSCF                  CNVSOSCF        .... on
   Start iteration      SOSCFMaxIt      ....   150
   Startup grad/error   SOSCFStart      ....  0.003300
   Hessian update       SOSCFHessUp     .... L-BFGS
 Level Shifting         CNVShift        .... on
   Level shift para.    LevelShift      ....    0.2500
   Turn off err/grad.   ShiftErr        ....    0.0010
 Zerner damping         CNVZerner       .... off
 Static damping         CNVDamp         .... on
   Fraction old density DampFac         ....    0.7000
   Max. Damping (<1)    DampMax         ....    0.9800
   Min. Damping (>=0)   DampMin         ....    0.0000
   Turn off err/grad.   DampErr         ....    0.1000

SCF Procedure:
 Maximum # iterations   MaxIter         ....   125
 SCF integral mode      SCFMode         .... Direct
   Integral package                     .... SHARK and LIBINT hybrid scheme
 Reset frequency        DirectResetFreq ....    20
 Integral Threshold     Thresh          ....  1.000e-10 Eh
 Primitive CutOff       TCut            ....  1.000e-11 Eh

Convergence Tolerance:
 Convergence Check Mode ConvCheckMode   .... Total+1el-Energy
 Convergence forced     ConvForced      .... 0
 Energy Change          TolE            ....  1.000e-06 Eh
 1-El. energy change                    ....  1.000e-03 Eh
 Orbital Gradient       TolG            ....  5.000e-05
 Orbital Rotation angle TolX            ....  5.000e-05
 DIIS Error             TolErr          ....  1.000e-06

------------------------------
INITIAL GUESS: MODEL POTENTIAL
------------------------------
Loading Hartree-Fock densities                     ... done
Calculating cut-offs                               ... done
Initializing the effective Hamiltonian             ... done
Setting up the integral package (SHARK)            ... done
Starting the Coulomb interaction                   ... done (   2.3 sec)
Making the grid                                    ... done (   1.1 sec)
Mapping shells                                     ... done
Starting the XC term evaluation                    ... done (   1.0 sec)
  promolecular density results
     # of electrons  =    220.004868576
     EX              =   -211.985102674
     EC              =     -7.836290833
     EX+EC           =   -219.821393507
Transforming the Hamiltonian                       ... done (   0.0 sec)
Diagonalizing the Hamiltonian                      ... done (   0.0 sec)
Back transforming the eigenvectors                 ... done (   0.1 sec)
Now organizing SCF variables                       ... done
                      ------------------
                      INITIAL GUESS DONE (   4.7 sec)
                      ------------------
             **** ENERGY FILE WAS UPDATED (/home/nmrbox/aojoawo/Documents/ERDOS/inputs/CHEMBL3353580.en.tmp) ****
Finished Guess after   4.9 sec
Maximum memory used throughout the entire GUESS-calculation: 53.8 MB

-------------------------------------------------------------------------------------------
                                      ORCA LEAN-SCF
                              memory conserving SCF solver
-------------------------------------------------------------------------------------------

----------------------------------------D-I-I-S--------------------------------------------
Iteration    Energy (Eh)           Delta-E    RMSDP     MaxDP     DIISErr   Damp  Time(sec)
-------------------------------------------------------------------------------------------
               ***  Starting incremental Fock matrix formation  ***
    1    -2092.2606075579878961     0.00e+00  2.94e-03  1.90e-01  2.98e-01  0.700  49.6
    2    -2092.6795081062846293    -4.19e-01  1.71e-03  7.86e-02  9.62e-02  0.700  23.2
                               ***Turning on AO-DIIS***
    3    -2092.8120799582284235    -1.33e-01  6.30e-04  1.77e-02  3.55e-02  0.700  22.7
    4    -2092.9041353204074767    -9.21e-02  1.05e-03  3.39e-02  1.97e-02  0.000  20.8
    5    -2093.1142118752613897    -2.10e-01  2.69e-04  8.24e-03  6.49e-03  0.000  22.3
                              *** Initializing SOSCF ***
---------------------------------------S-O-S-C-F--------------------------------------
Iteration    Energy (Eh)           Delta-E    RMSDP     MaxDP     MaxGrad    Time(sec)
--------------------------------------------------------------------------------------
    6    -2093.1157487511609361    -1.54e-03  9.32e-05  3.25e-03  3.22e-03    19.4
               *** Restarting incremental Fock matrix formation ***
    7    -2093.1157507838315723    -2.03e-06  9.13e-05  4.57e-03  1.08e-03    50.7
    8    -2093.1156395708248965     1.11e-04  6.04e-05  3.38e-03  3.07e-03    29.5
    9    -2093.1157853215509022    -1.46e-04  1.63e-05  6.51e-04  1.88e-04    26.6
   10    -2093.1157816828563227     3.64e-06  1.11e-05  4.94e-04  3.06e-04    22.5
   11    -2093.1157865609557120    -4.88e-06  3.59e-06  1.56e-04  3.48e-05    20.0
   12    -2093.1157863894186448     1.72e-07  2.44e-06  1.09e-04  6.86e-05    16.4
                 **** Energy Check signals convergence ****

               *****************************************************
               *                     SUCCESS                       *
               *           SCF CONVERGED AFTER  12 CYCLES          *
               *****************************************************

Recomputing exchange energy using gridx3       ... done (   88.251 sec)
Old exchange energy                            :    -42.773190148 Eh
New exchange energy                            :    -42.773210468 Eh
Exchange energy change after final integration :     -0.000020321 Eh
Total energy after final integration           :  -2093.115806710 Eh
             **** ENERGY FILE WAS UPDATED (/home/nmrbox/aojoawo/Documents/ERDOS/inputs/CHEMBL3353580.en.tmp) ****

----------------
TOTAL SCF ENERGY
----------------

Total Energy       :      -2093.11580671006095 Eh          -56956.57672 eV

Components:
Nuclear Repulsion  :       3073.92058261943839 Eh           83645.63151 eV
Electronic Energy  :      -5167.03636900885704 Eh         -140602.20768 eV
One Electron Energy:      -8981.03812621161887 Eh         -244386.47178 eV
Two Electron Energy:       3814.00175720276184 Eh          103784.26410 eV

Virial components:
Potential Energy   :      -4176.28102324684460 Eh         -113642.38411 eV
Kinetic Energy     :       2083.16521653678365 Eh           56685.80739 eV
Virial Ratio       :          2.00477666874153

DFT components:
N(Alpha)           :      110.000055407527 electrons
N(Beta)            :      110.000055407527 electrons
N(Total)           :      220.000110815054 electrons
E(X)               :     -170.013222671950 Eh       
E(C)               :       -9.204243142029 Eh       
E(XC)              :     -179.217465813978 Eh       

---------------
SCF CONVERGENCE
---------------

  Last Energy change         ...   -1.7154e-07  Tolerance :   1.0000e-06
  Last MAX-Density change    ...    1.0880e-04  Tolerance :   1.0000e-05
  Last RMS-Density change    ...    2.4355e-06  Tolerance :   1.0000e-06
  Last DIIS Error            ...    3.2165e-03  Tolerance :   1.0000e-06
  Last Orbital Gradient      ...    6.8583e-05  Tolerance :   5.0000e-05
  Last Orbital Rotation      ...    6.8513e-05  Tolerance :   5.0000e-05


----------------
ORBITAL ENERGIES
----------------

  NO   OCC          E(Eh)            E(eV) 
   0   2.0000    -101.552440     -2763.3824 
   1   2.0000     -89.108348     -2424.7614 
   2   2.0000     -19.204615      -522.5842 
   3   2.0000     -19.147341      -521.0256 
   4   2.0000     -19.134647      -520.6802 
   5   2.0000     -19.132464      -520.6208 
   6   2.0000     -14.385640      -391.4532 
   7   2.0000     -14.370896      -391.0520 
   8   2.0000     -14.352631      -390.5549 
   9   2.0000     -10.344453      -281.4869 
  10   2.0000     -10.303370      -280.3689 
  11   2.0000     -10.285740      -279.8892 
  12   2.0000     -10.263772      -279.2914 
  13   2.0000     -10.261811      -279.2381 
  14   2.0000     -10.253622      -279.0152 
  15   2.0000     -10.247315      -278.8436 
  16   2.0000     -10.244423      -278.7649 
  17   2.0000     -10.243351      -278.7358 
  18   2.0000     -10.240843      -278.6675 
  19   2.0000     -10.231547      -278.4145 
  20   2.0000     -10.229634      -278.3625 
  21   2.0000     -10.228143      -278.3219 
  22   2.0000     -10.227284      -278.2985 
  23   2.0000     -10.202748      -277.6309 
  24   2.0000     -10.194932      -277.4182 
  25   2.0000     -10.193971      -277.3921 
  26   2.0000     -10.193828      -277.3882 
  27   2.0000     -10.193419      -277.3770 
  28   2.0000     -10.192645      -277.3560 
  29   2.0000      -9.483605      -258.0620 
  30   2.0000      -8.144215      -221.6154 
  31   2.0000      -7.247015      -197.2013 
  32   2.0000      -7.237108      -196.9317 
  33   2.0000      -7.236723      -196.9213 
  34   2.0000      -6.109418      -166.2457 
  35   2.0000      -6.107140      -166.1837 
  36   2.0000      -6.106732      -166.1726 
  37   2.0000      -1.092795       -29.7365 
  38   2.0000      -1.089424       -29.6447 
  39   2.0000      -1.003855       -27.3163 
  40   2.0000      -0.993784       -27.0422 
  41   2.0000      -0.970094       -26.3976 
  42   2.0000      -0.939995       -25.5786 
  43   2.0000      -0.920663       -25.0525 
  44   2.0000      -0.901243       -24.5241 
  45   2.0000      -0.895281       -24.3618 
  46   2.0000      -0.862661       -23.4742 
  47   2.0000      -0.839685       -22.8490 
  48   2.0000      -0.817819       -22.2540 
  49   2.0000      -0.790429       -21.5087 
  50   2.0000      -0.787017       -21.4158 
  51   2.0000      -0.773862       -21.0579 
  52   2.0000      -0.754280       -20.5250 
  53   2.0000      -0.726835       -19.7782 
  54   2.0000      -0.708975       -19.2922 
  55   2.0000      -0.682497       -18.5717 
  56   2.0000      -0.668575       -18.1929 
  57   2.0000      -0.652180       -17.7467 
  58   2.0000      -0.638240       -17.3674 
  59   2.0000      -0.618074       -16.8187 
  60   2.0000      -0.611416       -16.6375 
  61   2.0000      -0.597724       -16.2649 
  62   2.0000      -0.574119       -15.6226 
  63   2.0000      -0.571511       -15.5516 
  64   2.0000      -0.550813       -14.9884 
  65   2.0000      -0.545894       -14.8545 
  66   2.0000      -0.534730       -14.5507 
  67   2.0000      -0.516496       -14.0546 
  68   2.0000      -0.501561       -13.6482 
  69   2.0000      -0.490805       -13.3555 
  70   2.0000      -0.485350       -13.2071 
  71   2.0000      -0.477614       -12.9965 
  72   2.0000      -0.475099       -12.9281 
  73   2.0000      -0.470881       -12.8133 
  74   2.0000      -0.467491       -12.7211 
  75   2.0000      -0.458673       -12.4811 
  76   2.0000      -0.457403       -12.4466 
  77   2.0000      -0.451660       -12.2903 
  78   2.0000      -0.444487       -12.0951 
  79   2.0000      -0.443291       -12.0626 
  80   2.0000      -0.434745       -11.8300 
  81   2.0000      -0.432035       -11.7563 
  82   2.0000      -0.426538       -11.6067 
  83   2.0000      -0.423343       -11.5197 
  84   2.0000      -0.407986       -11.1019 
  85   2.0000      -0.400375       -10.8948 
  86   2.0000      -0.394564       -10.7366 
  87   2.0000      -0.385542       -10.4911 
  88   2.0000      -0.378167       -10.2905 
  89   2.0000      -0.374887       -10.2012 
  90   2.0000      -0.373174       -10.1546 
  91   2.0000      -0.364926        -9.9301 
  92   2.0000      -0.360746        -9.8164 
  93   2.0000      -0.355648        -9.6777 
  94   2.0000      -0.351905        -9.5758 
  95   2.0000      -0.338052        -9.1989 
  96   2.0000      -0.335100        -9.1185 
  97   2.0000      -0.329963        -8.9788 
  98   2.0000      -0.316868        -8.6224 
  99   2.0000      -0.308663        -8.3991 
 100   2.0000      -0.306241        -8.3332 
 101   2.0000      -0.295134        -8.0310 
 102   2.0000      -0.290412        -7.9025 
 103   2.0000      -0.289912        -7.8889 
 104   2.0000      -0.286001        -7.7825 
 105   2.0000      -0.283556        -7.7160 
 106   2.0000      -0.278983        -7.5915 
 107   2.0000      -0.262474        -7.1423 
 108   2.0000      -0.259346        -7.0572 
 109   2.0000      -0.249808        -6.7976 
 110   0.0000      -0.097120        -2.6428 
 111   0.0000      -0.081724        -2.2238 
 112   0.0000      -0.060491        -1.6460 
 113   0.0000      -0.042133        -1.1465 
 114   0.0000      -0.018374        -0.5000 
 115   0.0000      -0.011740        -0.3195 
 116   0.0000      -0.004839        -0.1317 
 117   0.0000       0.002725         0.0742 
 118   0.0000       0.023812         0.6479 
 119   0.0000       0.027451         0.7470 
 120   0.0000       0.034525         0.9395 
*Only the first 10 virtual orbitals were printed.

                    ********************************
                    * MULLIKEN POPULATION ANALYSIS *
                    ********************************

-----------------------
MULLIKEN ATOMIC CHARGES
-----------------------
   0 N :   -0.287018
   1 C :    0.084784
   2 C :    0.118151
   3 C :    0.012163
   4 N :   -0.364083
   5 C :    0.413412
   6 N :   -0.598105
   7 C :   -0.263242
   8 C :    0.178767
   9 C :   -0.176714
  10 C :   -0.124258
  11 C :   -0.122507
  12 C :   -0.128796
  13 C :   -0.171283
  14 S :    1.208993
  15 O :   -0.520440
  16 O :   -0.547557
  17 C :   -0.140156
  18 C :   -0.129056
  19 C :   -0.142120
  20 C :    0.082972
  21 C :    0.530151
  22 O :   -0.440451
  23 O :   -0.622733
  24 C :   -0.147534
  25 C :   -0.151013
  26 C :   -0.069562
  27 Cl:    0.035386
  28 C :   -0.109552
  29 H :    0.188859
  30 H :    0.173577
  31 H :    0.187888
  32 H :    0.131004
  33 H :    0.134111
  34 H :    0.133724
  35 H :    0.134509
  36 H :    0.130114
  37 H :    0.195843
  38 H :    0.185035
  39 H :    0.436737
  40 H :    0.177590
  41 H :    0.188533
  42 H :    0.193876
Sum of atomic charges:    0.0000000

--------------------------------
MULLIKEN REDUCED ORBITAL CHARGES
--------------------------------
  0 N s       :     3.736226  s :     3.736226
      pz      :     1.097073  p :     3.509886
      px      :     1.092321
      py      :     1.320492
      dz2     :     0.006175  d :     0.040907
      dxz     :     0.003060
      dyz     :     0.010877
      dx2y2   :     0.010091
      dxy     :     0.010703

  1 C s       :     3.078250  s :     3.078250
      pz      :     0.943994  p :     2.795430
      px      :     0.942658
      py      :     0.908778
      dz2     :     0.005973  d :     0.041536
      dxz     :     0.003320
      dyz     :     0.010382
      dx2y2   :     0.010758
      dxy     :     0.011102

  2 C s       :     3.100898  s :     3.100898
      pz      :     0.874551  p :     2.738929
      px      :     0.983587
      py      :     0.880791
      dz2     :     0.010153  d :     0.042022
      dxz     :     0.007272
      dyz     :     0.011860
      dx2y2   :     0.006468
      dxy     :     0.006269

  3 C s       :     3.154214  s :     3.154214
      pz      :     0.964222  p :     2.780423
      px      :     0.925789
      py      :     0.890412
      dz2     :     0.014132  d :     0.053200
      dxz     :     0.005370
      dyz     :     0.015137
      dx2y2   :     0.009052
      dxy     :     0.009510

  4 N s       :     3.705132  s :     3.705132
      pz      :     1.171664  p :     3.623364
      px      :     1.219226
      py      :     1.232474
      dz2     :     0.010553  d :     0.035587
      dxz     :     0.006676
      dyz     :     0.005481
      dx2y2   :     0.006316
      dxy     :     0.006561

  5 C s       :     3.020577  s :     3.020577
      pz      :     0.773243  p :     2.490655
      px      :     0.913730
      py      :     0.803682
      dz2     :     0.018592  d :     0.075355
      dxz     :     0.011800
      dyz     :     0.024616
      dx2y2   :     0.009739
      dxy     :     0.010608

  6 N s       :     3.583970  s :     3.583970
      pz      :     1.539295  p :     3.981564
      px      :     1.313577
      py      :     1.128693
      dz2     :     0.004061  d :     0.032570
      dxz     :     0.005315
      dyz     :     0.005837
      dx2y2   :     0.010211
      dxy     :     0.007147

  7 C s       :     3.277104  s :     3.277104
      pz      :     1.076788  p :     2.930870
      px      :     0.975969
      py      :     0.878113
      dz2     :     0.015243  d :     0.055268
      dxz     :     0.007101
      dyz     :     0.007349
      dx2y2   :     0.009086
      dxy     :     0.016489

  8 C s       :     3.113510  s :     3.113510
      pz      :     0.881306  p :     2.667835
      px      :     0.840628
      py      :     0.945901
      dz2     :     0.009011  d :     0.039887
      dxz     :     0.010841
      dyz     :     0.005293
      dx2y2   :     0.007760
      dxy     :     0.006982

  9 C s       :     3.197766  s :     3.197766
      pz      :     0.992387  p :     2.943038
      px      :     0.959536
      py      :     0.991115
      dz2     :     0.007143  d :     0.035910
      dxz     :     0.008590
      dyz     :     0.006225
      dx2y2   :     0.006879
      dxy     :     0.007073

 10 C s       :     3.189573  s :     3.189573
      pz      :     0.950014  p :     2.898587
      px      :     0.969331
      py      :     0.979242
      dz2     :     0.007759  d :     0.036098
      dxz     :     0.010165
      dyz     :     0.005364
      dx2y2   :     0.005671
      dxy     :     0.007140

 11 C s       :     3.186872  s :     3.186872
      pz      :     0.956648  p :     2.899565
      px      :     0.972913
      py      :     0.970005
      dz2     :     0.007237  d :     0.036070
      dxz     :     0.010988
      dyz     :     0.005069
      dx2y2   :     0.007939
      dxy     :     0.004836

 12 C s       :     3.191465  s :     3.191465
      pz      :     0.984832  p :     2.901202
      px      :     0.935007
      py      :     0.981363
      dz2     :     0.007450  d :     0.036129
      dxz     :     0.008715
      dyz     :     0.006084
      dx2y2   :     0.006876
      dxy     :     0.007004

 13 C s       :     3.194083  s :     3.194083
      pz      :     0.963427  p :     2.941302
      px      :     0.984473
      py      :     0.993403
      dz2     :     0.007806  d :     0.035898
      dxz     :     0.010077
      dyz     :     0.005436
      dx2y2   :     0.005575
      dxy     :     0.007004

 14 S s       :     5.214395  s :     5.214395
      pz      :     3.036949  p :     9.041530
      px      :     2.993412
      py      :     3.011169
      dz2     :     0.084961  d :     0.535083
      dxz     :     0.111251
      dyz     :     0.127626
      dx2y2   :     0.126588
      dxy     :     0.084657

 15 O s       :     3.921966  s :     3.921966
      pz      :     1.521821  p :     4.571697
      px      :     1.375240
      py      :     1.674636
      dz2     :     0.005872  d :     0.026778
      dxz     :     0.007523
      dyz     :     0.003341
      dx2y2   :     0.004932
      dxy     :     0.005109

 16 O s       :     3.927535  s :     3.927535
      pz      :     1.660234  p :     4.592926
      px      :     1.634340
      py      :     1.298352
      dz2     :     0.003766  d :     0.027097
      dxz     :     0.001688
      dyz     :     0.007216
      dx2y2   :     0.007059
      dxy     :     0.007368

 17 C s       :     3.227049  s :     3.227049
      pz      :     0.902458  p :     2.874510
      px      :     1.043609
      py      :     0.928442
      dz2     :     0.008276  d :     0.038597
      dxz     :     0.004681
      dyz     :     0.013861
      dx2y2   :     0.006336
      dxy     :     0.005442

 18 C s       :     3.205296  s :     3.205296
      pz      :     0.911102  p :     2.887826
      px      :     0.943256
      py      :     1.033468
      dz2     :     0.010056  d :     0.035934
      dxz     :     0.006112
      dyz     :     0.008921
      dx2y2   :     0.006422
      dxy     :     0.004423

 19 C s       :     3.216645  s :     3.216645
      pz      :     0.981103  p :     2.889868
      px      :     0.950549
      py      :     0.958215
      dz2     :     0.008661  d :     0.035607
      dxz     :     0.005099
      dyz     :     0.010110
      dx2y2   :     0.005675
      dxy     :     0.006062

 20 C s       :     3.167773  s :     3.167773
      pz      :     0.863885  p :     2.710714
      px      :     0.970714
      py      :     0.876114
      dz2     :     0.008345  d :     0.038541
      dxz     :     0.005133
      dyz     :     0.013172
      dx2y2   :     0.006092
      dxy     :     0.005799

 21 C s       :     2.995536  s :     2.995536
      pz      :     0.852476  p :     2.364151
      px      :     0.791422
      py      :     0.720252
      dz2     :     0.028225  d :     0.110163
      dxz     :     0.014405
      dyz     :     0.031104
      dx2y2   :     0.017758
      dxy     :     0.018671

 22 O s       :     3.879203  s :     3.879203
      pz      :     1.405175  p :     4.535543
      px      :     1.394532
      py      :     1.735836
      dz2     :     0.008277  d :     0.025705
      dxz     :     0.007691
      dyz     :     0.005863
      dx2y2   :     0.002191
      dxy     :     0.001682

 23 O s       :     3.872734  s :     3.872734
      pz      :     1.635824  p :     4.729095
      px      :     1.787529
      py      :     1.305741
      dz2     :     0.003785  d :     0.020904
      dxz     :     0.001676
      dyz     :     0.008325
      dx2y2   :     0.003541
      dxy     :     0.003577

 24 C s       :     3.211732  s :     3.211732
      pz      :     0.949893  p :     2.900140
      px      :     0.959629
      py      :     0.990617
      dz2     :     0.009788  d :     0.035662
      dxz     :     0.005925
      dyz     :     0.009240
      dx2y2   :     0.006339
      dxy     :     0.004370

 25 C s       :     3.211517  s :     3.211517
      pz      :     1.024690  p :     2.903457
      px      :     0.959884
      py      :     0.918883
      dz2     :     0.009027  d :     0.036039
      dxz     :     0.004896
      dyz     :     0.009749
      dx2y2   :     0.005893
      dxy     :     0.006475

 26 C s       :     3.194455  s :     3.194455
      pz      :     0.838998  p :     2.827850
      px      :     0.998150
      py      :     0.990701
      dz2     :     0.012300  d :     0.047257
      dxz     :     0.008968
      dyz     :     0.013210
      dx2y2   :     0.006372
      dxy     :     0.006407

 27 Cls       :     5.924961  s :     5.924961
      pz      :     3.236542  p :    11.009953
      px      :     3.881014
      py      :     3.892396
      dz2     :     0.015186  d :     0.029700
      dxz     :     0.006876
      dyz     :     0.006050
      dx2y2   :     0.000584
      dxy     :     0.001005

 28 C s       :     3.197116  s :     3.197116
      pz      :     0.950590  p :     2.877018
      px      :     0.963146
      py      :     0.963282
      dz2     :     0.008057  d :     0.035418
      dxz     :     0.007031
      dyz     :     0.009996
      dx2y2   :     0.004305
      dxy     :     0.006029

 29 H s       :     0.811141  s :     0.811141

 30 H s       :     0.826423  s :     0.826423

 31 H s       :     0.812112  s :     0.812112

 32 H s       :     0.868996  s :     0.868996

 33 H s       :     0.865889  s :     0.865889

 34 H s       :     0.866276  s :     0.866276

 35 H s       :     0.865491  s :     0.865491

 36 H s       :     0.869886  s :     0.869886

 37 H s       :     0.804157  s :     0.804157

 38 H s       :     0.814965  s :     0.814965

 39 H s       :     0.563263  s :     0.563263

 40 H s       :     0.822410  s :     0.822410

 41 H s       :     0.811467  s :     0.811467

 42 H s       :     0.806124  s :     0.806124



                     *******************************
                     * LOEWDIN POPULATION ANALYSIS *
                     *******************************

----------------------
LOEWDIN ATOMIC CHARGES
----------------------
   0 N :   -0.072274
   1 C :   -0.008223
   2 C :   -0.057784
   3 C :   -0.037207
   4 N :   -0.100590
   5 C :    0.065752
   6 N :   -0.281408
   7 C :   -0.145793
   8 C :   -0.034302
   9 C :   -0.134889
  10 C :   -0.123915
  11 C :   -0.125227
  12 C :   -0.124342
  13 C :   -0.130759
  14 S :    1.265943
  15 O :   -0.561925
  16 O :   -0.570699
  17 C :   -0.176752
  18 C :   -0.092789
  19 C :   -0.085348
  20 C :   -0.036551
  21 C :    0.179961
  22 O :   -0.256711
  23 O :   -0.333253
  24 C :   -0.101318
  25 C :   -0.108289
  26 C :   -0.078775
  27 Cl:    0.071956
  28 C :   -0.078414
  29 H :    0.156368
  30 H :    0.142894
  31 H :    0.144043
  32 H :    0.131706
  33 H :    0.134097
  34 H :    0.134106
  35 H :    0.134175
  36 H :    0.133025
  37 H :    0.164984
  38 H :    0.162665
  39 H :    0.351609
  40 H :    0.156971
  41 H :    0.160562
  42 H :    0.166720

-------------------------------
LOEWDIN REDUCED ORBITAL CHARGES
-------------------------------
  0 N s       :     3.429813  s :     3.429813
      pz      :     1.105610  p :     3.570531
      px      :     1.096486
      py      :     1.368435
      dz2     :     0.010073  d :     0.071929
      dxz     :     0.005004
      dyz     :     0.019741
      dx2y2   :     0.018714
      dxy     :     0.018397

  1 C s       :     2.924123  s :     2.924123
      pz      :     0.948231  p :     2.982222
      px      :     0.946480
      py      :     1.087511
      dz2     :     0.014366  d :     0.101878
      dxz     :     0.007709
      dyz     :     0.026196
      dx2y2   :     0.026899
      dxy     :     0.026707

  2 C s       :     2.866185  s :     2.866185
      pz      :     1.057754  p :     3.082966
      px      :     1.014194
      py      :     1.011019
      dz2     :     0.027636  d :     0.108633
      dxz     :     0.018081
      dyz     :     0.031924
      dx2y2   :     0.015449
      dxy     :     0.015542

  3 C s       :     2.914907  s :     2.914907
      pz      :     1.065692  p :     3.000610
      px      :     0.950963
      py      :     0.983955
      dz2     :     0.030149  d :     0.121690
      dxz     :     0.010950
      dyz     :     0.036465
      dx2y2   :     0.020556
      dxy     :     0.023570

  4 N s       :     3.247638  s :     3.247638
      pz      :     1.261810  p :     3.774604
      px      :     1.218324
      py      :     1.294471
      dz2     :     0.025473  d :     0.078348
      dxz     :     0.013418
      dyz     :     0.015275
      dx2y2   :     0.011656
      dxy     :     0.012525

  5 C s       :     2.847687  s :     2.847687
      pz      :     1.001534  p :     2.906941
      px      :     0.959396
      py      :     0.946012
      dz2     :     0.045450  d :     0.179620
      dxz     :     0.027729
      dyz     :     0.060439
      dx2y2   :     0.021726
      dxy     :     0.024276

  6 N s       :     3.172977  s :     3.172977
      pz      :     1.534661  p :     4.025063
      px      :     1.332533
      py      :     1.157869
      dz2     :     0.009373  d :     0.083368
      dxz     :     0.013104
      dyz     :     0.014445
      dx2y2   :     0.026998
      dxy     :     0.019447

  7 C s       :     2.922278  s :     2.922278
      pz      :     1.100828  p :     3.105225
      px      :     1.037535
      py      :     0.966861
      dz2     :     0.030482  d :     0.118290
      dxz     :     0.015480
      dyz     :     0.015912
      dx2y2   :     0.020830
      dxy     :     0.035587

  8 C s       :     2.879065  s :     2.879065
      pz      :     1.033741  p :     3.055125
      px      :     1.025179
      py      :     0.996204
      dz2     :     0.022137  d :     0.100112
      dxz     :     0.028652
      dyz     :     0.013425
      dx2y2   :     0.019014
      dxy     :     0.016883

  9 C s       :     2.918623  s :     2.918623
      pz      :     1.053203  p :     3.132073
      px      :     1.062416
      py      :     1.016454
      dz2     :     0.015885  d :     0.084193
      dxz     :     0.022220
      dyz     :     0.010894
      dx2y2   :     0.018280
      dxy     :     0.016914

 10 C s       :     2.918143  s :     2.918143
      pz      :     1.047386  p :     3.120838
      px      :     1.068612
      py      :     1.004840
      dz2     :     0.019041  d :     0.084934
      dxz     :     0.025474
      dyz     :     0.012526
      dx2y2   :     0.012953
      dxy     :     0.014940

 11 C s       :     2.918279  s :     2.918279
      pz      :     1.047563  p :     3.122240
      px      :     1.069980
      py      :     1.004697
      dz2     :     0.017830  d :     0.084708
      dxz     :     0.025566
      dyz     :     0.013115
      dx2y2   :     0.016482
      dxy     :     0.011715

 12 C s       :     2.918252  s :     2.918252
      pz      :     1.049114  p :     3.121114
      px      :     1.067565
      py      :     1.004435
      dz2     :     0.016423  d :     0.084976
      dxz     :     0.022660
      dyz     :     0.010708
      dx2y2   :     0.018093
      dxy     :     0.017092

 13 C s       :     2.918097  s :     2.918097
      pz      :     1.041437  p :     3.128416
      px      :     1.072907
      py      :     1.014072
      dz2     :     0.018921  d :     0.084246
      dxz     :     0.025517
      dyz     :     0.012326
      dx2y2   :     0.012859
      dxy     :     0.014624

 14 S s       :     5.103732  s :     5.103732
      pz      :     3.002159  p :     8.953938
      px      :     2.962426
      py      :     2.989353
      dz2     :     0.101244  d :     0.676387
      dxz     :     0.146496
      dyz     :     0.162750
      dx2y2   :     0.164323
      dxy     :     0.101574

 15 O s       :     3.712867  s :     3.712867
      pz      :     1.599216  p :     4.792929
      px      :     1.486148
      py      :     1.707565
      dz2     :     0.008468  d :     0.056129
      dxz     :     0.021276
      dyz     :     0.006643
      dx2y2   :     0.010123
      dxy     :     0.009620

 16 O s       :     3.711701  s :     3.711701
      pz      :     1.695554  p :     4.802908
      px      :     1.670775
      py      :     1.436579
      dz2     :     0.007185  d :     0.056090
      dxz     :     0.002741
      dyz     :     0.015667
      dx2y2   :     0.017357
      dxy     :     0.013141

 17 C s       :     2.931153  s :     2.931153
      pz      :     1.038771  p :     3.147544
      px      :     1.048471
      py      :     1.060302
      dz2     :     0.022206  d :     0.098055
      dxz     :     0.011148
      dyz     :     0.036654
      dx2y2   :     0.015387
      dxy     :     0.012659

 18 C s       :     2.918494  s :     2.918494
      pz      :     1.039465  p :     3.089241
      px      :     0.957949
      py      :     1.091827
      dz2     :     0.026481  d :     0.085055
      dxz     :     0.014763
      dyz     :     0.023703
      dx2y2   :     0.011889
      dxy     :     0.008219

 19 C s       :     2.920612  s :     2.920612
      pz      :     1.072999  p :     3.081984
      px      :     0.964259
      py      :     1.044727
      dz2     :     0.019678  d :     0.082752
      dxz     :     0.009045
      dyz     :     0.026123
      dx2y2   :     0.014520
      dxy     :     0.013387

 20 C s       :     2.880676  s :     2.880676
      pz      :     1.024136  p :     3.056163
      px      :     0.989183
      py      :     1.042843
      dz2     :     0.022914  d :     0.099713
      dxz     :     0.012286
      dyz     :     0.035903
      dx2y2   :     0.014858
      dxy     :     0.013753

 21 C s       :     2.862982  s :     2.862982
      pz      :     0.992076  p :     2.704776
      px      :     0.827393
      py      :     0.885307
      dz2     :     0.064984  d :     0.252280
      dxz     :     0.032025
      dyz     :     0.073497
      dx2y2   :     0.040138
      dxy     :     0.041637

 22 O s       :     3.593446  s :     3.593446
      pz      :     1.473988  p :     4.613254
      px      :     1.401589
      py      :     1.737677
      dz2     :     0.016995  d :     0.050011
      dxz     :     0.014974
      dyz     :     0.011434
      dx2y2   :     0.003315
      dxy     :     0.003293

 23 O s       :     3.540180  s :     3.540180
      pz      :     1.639954  p :     4.751326
      px      :     1.774187
      py      :     1.337186
      dz2     :     0.007097  d :     0.041746
      dxz     :     0.001980
      dyz     :     0.015600
      dx2y2   :     0.009110
      dxy     :     0.007960

 24 C s       :     2.920268  s :     2.920268
      pz      :     1.044595  p :     3.097579
      px      :     0.970493
      py      :     1.082491
      dz2     :     0.025129  d :     0.083471
      dxz     :     0.013894
      dyz     :     0.024426
      dx2y2   :     0.011862
      dxy     :     0.008160

 25 C s       :     2.919884  s :     2.919884
      pz      :     1.082073  p :     3.102986
      px      :     0.974325
      py      :     1.046588
      dz2     :     0.020554  d :     0.085420
      dxz     :     0.008906
      dyz     :     0.025732
      dx2y2   :     0.015614
      dxy     :     0.014614

 26 C s       :     2.925680  s :     2.925680
      pz      :     0.944271  p :     3.040976
      px      :     1.020926
      py      :     1.075778
      dz2     :     0.029098  d :     0.112119
      dxz     :     0.019866
      dyz     :     0.033058
      dx2y2   :     0.014755
      dxy     :     0.015342

 27 Cls       :     5.803221  s :     5.803221
      pz      :     3.313217  p :    11.091165
      px      :     3.883715
      py      :     3.894233
      dz2     :     0.017827  d :     0.033657
      dxz     :     0.007563
      dyz     :     0.006564
      dx2y2   :     0.000605
      dxy     :     0.001098

 28 C s       :     2.921453  s :     2.921453
      pz      :     1.049691  p :     3.073533
      px      :     0.982278
      py      :     1.041564
      dz2     :     0.020661  d :     0.083428
      dxz     :     0.014741
      dyz     :     0.025957
      dx2y2   :     0.009903
      dxy     :     0.012166

 29 H s       :     0.843632  s :     0.843632

 30 H s       :     0.857106  s :     0.857106

 31 H s       :     0.855957  s :     0.855957

 32 H s       :     0.868294  s :     0.868294

 33 H s       :     0.865903  s :     0.865903

 34 H s       :     0.865894  s :     0.865894

 35 H s       :     0.865825  s :     0.865825

 36 H s       :     0.866975  s :     0.866975

 37 H s       :     0.835016  s :     0.835016

 38 H s       :     0.837335  s :     0.837335

 39 H s       :     0.648391  s :     0.648391

 40 H s       :     0.843029  s :     0.843029

 41 H s       :     0.839438  s :     0.839438

 42 H s       :     0.833280  s :     0.833280



                      *****************************
                      * MAYER POPULATION ANALYSIS *
                      *****************************

  NA   - Mulliken gross atomic population
  ZA   - Total nuclear charge
  QA   - Mulliken gross atomic charge
  VA   - Mayer's total valence
  BVA  - Mayer's bonded valence
  FA   - Mayer's free valence

  ATOM       NA         ZA         QA         VA         BVA        FA
  0 N      7.2870     7.0000    -0.2870     3.1126     3.1126     0.0000
  1 C      5.9152     6.0000     0.0848     4.0445     4.0445     0.0000
  2 C      5.8818     6.0000     0.1182     3.8460     3.8460     0.0000
  3 C      5.9878     6.0000     0.0122     3.8761     3.8761     0.0000
  4 N      7.3641     7.0000    -0.3641     2.9877     2.9877     0.0000
  5 C      5.5866     6.0000     0.4134     3.8836     3.8836    -0.0000
  6 N      7.5981     7.0000    -0.5981     2.8003     2.8003    -0.0000
  7 C      6.2632     6.0000    -0.2632     3.8030     3.8030     0.0000
  8 C      5.8212     6.0000     0.1788     3.8807     3.8807     0.0000
  9 C      6.1767     6.0000    -0.1767     3.9434     3.9434     0.0000
 10 C      6.1243     6.0000    -0.1243     3.9479     3.9479     0.0000
 11 C      6.1225     6.0000    -0.1225     3.9483     3.9483     0.0000
 12 C      6.1288     6.0000    -0.1288     3.9503     3.9503     0.0000
 13 C      6.1713     6.0000    -0.1713     3.9466     3.9466     0.0000
 14 S     14.7910    16.0000     1.2090     5.0748     5.0748    -0.0000
 15 O      8.5204     8.0000    -0.5204     1.9257     1.9257     0.0000
 16 O      8.5476     8.0000    -0.5476     1.8754     1.8754     0.0000
 17 C      6.1402     6.0000    -0.1402     3.8360     3.8360    -0.0000
 18 C      6.1291     6.0000    -0.1291     3.9070     3.9070     0.0000
 19 C      6.1421     6.0000    -0.1421     3.8942     3.8942    -0.0000
 20 C      5.9170     6.0000     0.0830     3.9243     3.9243    -0.0000
 21 C      5.4698     6.0000     0.5302     3.9540     3.9540    -0.0000
 22 O      8.4405     8.0000    -0.4405     2.0700     2.0700    -0.0000
 23 O      8.6227     8.0000    -0.6227     1.8711     1.8711     0.0000
 24 C      6.1475     6.0000    -0.1475     3.8647     3.8647     0.0000
 25 C      6.1510     6.0000    -0.1510     3.9151     3.9151    -0.0000
 26 C      6.0696     6.0000    -0.0696     3.9362     3.9362    -0.0000
 27 Cl    16.9646    17.0000     0.0354     1.1810     1.1810    -0.0000
 28 C      6.1096     6.0000    -0.1096     3.8777     3.8777    -0.0000
 29 H      0.8111     1.0000     0.1889     0.9238     0.9238    -0.0000
 30 H      0.8264     1.0000     0.1736     0.9378     0.9378     0.0000
 31 H      0.8121     1.0000     0.1879     0.9273     0.9273    -0.0000
 32 H      0.8690     1.0000     0.1310     0.9405     0.9405     0.0000
 33 H      0.8659     1.0000     0.1341     0.9359     0.9359     0.0000
 34 H      0.8663     1.0000     0.1337     0.9357     0.9357     0.0000
 35 H      0.8655     1.0000     0.1345     0.9361     0.9361     0.0000
 36 H      0.8699     1.0000     0.1301     0.9437     0.9437     0.0000
 37 H      0.8042     1.0000     0.1958     0.9342     0.9342     0.0000
 38 H      0.8150     1.0000     0.1850     0.9376     0.9376    -0.0000
 39 H      0.5633     1.0000     0.4367     0.7932     0.7932     0.0000
 40 H      0.8224     1.0000     0.1776     0.9351     0.9351     0.0000
 41 H      0.8115     1.0000     0.1885     0.9354     0.9354    -0.0000
 42 H      0.8061     1.0000     0.1939     0.9258     0.9258    -0.0000

  Mayer bond orders larger than 0.100000
B(  0-N ,  1-C ) :   3.0111 B(  1-C ,  2-C ) :   0.9804 B(  2-C ,  3-C ) :   1.3438 
B(  2-C , 28-C ) :   1.4032 B(  3-C ,  4-N ) :   1.4181 B(  3-C , 29-H ) :   0.9199 
B(  4-N ,  5-C ) :   1.3827 B(  5-C ,  6-N ) :   0.9427 B(  5-C , 26-C ) :   1.3304 
B(  6-N ,  7-C ) :   0.9088 B(  6-N , 14-S ) :   0.7957 B(  7-C ,  8-C ) :   0.9379 
B(  7-C , 30-H ) :   0.9219 B(  7-C , 31-H ) :   0.9183 B(  8-C ,  9-C ) :   1.4314 
B(  8-C , 13-C ) :   1.4292 B(  9-C , 10-C ) :   1.4401 B(  9-C , 32-H ) :   0.9235 
B( 10-C , 11-C ) :   1.4559 B( 10-C , 33-H ) :   0.9286 B( 11-C , 12-C ) :   1.4505 
B( 11-C , 34-H ) :   0.9294 B( 12-C , 13-C ) :   1.4482 B( 12-C , 35-H ) :   0.9286 
B( 13-C , 36-H ) :   0.9181 B( 14-S , 15-O ) :   1.6742 B( 14-S , 16-O ) :   1.6164 
B( 14-S , 17-C ) :   0.8126 B( 17-C , 18-C ) :   1.3843 B( 17-C , 25-C ) :   1.3897 
B( 18-C , 19-C ) :   1.4221 B( 18-C , 37-H ) :   0.9028 B( 19-C , 20-C ) :   1.3984 
B( 19-C , 38-H ) :   0.9086 B( 20-C , 21-C ) :   1.0059 B( 20-C , 24-C ) :   1.3846 
B( 21-C , 22-O ) :   1.8649 B( 21-C , 23-O ) :   1.0279 B( 23-O , 39-H ) :   0.7401 
B( 24-C , 25-C ) :   1.4099 B( 24-C , 40-H ) :   0.9137 B( 25-C , 41-H ) :   0.9078 
B( 26-C , 27-Cl) :   1.0588 B( 26-C , 28-C ) :   1.3954 B( 28-C , 42-H ) :   0.9111 


-------
TIMINGS
-------

Total SCF time: 0 days 0 hours 6 min 52 sec 

Total time                  ....     412.433 sec
Sum of individual times     ....     411.987 sec  ( 99.9%)

SCF preparation             ....       0.357 sec  (  0.1%)
Fock matrix formation       ....     409.678 sec  ( 99.3%)
  Startup                   ....       0.089 sec  (  0.0% of F)
  Split-RI-J                ....      51.025 sec  ( 12.5% of F)
  Chain of spheres X        ....     321.207 sec  ( 78.4% of F)
  XC integration            ....      36.386 sec  (  8.9% of F)
    XC Preparation          ....       0.000 sec  (  0.0% of XC)
    Basis function eval.    ....      14.123 sec  ( 38.8% of XC)
    Density eval.           ....       8.960 sec  ( 24.6% of XC)
    XC-Functional eval.     ....       1.643 sec  (  4.5% of XC)
    XC-Potential eval.      ....       9.996 sec  ( 27.5% of XC)
Diagonalization             ....       0.000 sec  (  0.0%)
Density matrix formation    ....       0.348 sec  (  0.1%)
Total Energy calculation    ....       0.070 sec  (  0.0%)
Population analysis         ....       0.056 sec  (  0.0%)
Orbital Transformation      ....       0.145 sec  (  0.0%)
Orbital Orthonormalization  ....       0.000 sec  (  0.0%)
DIIS solution               ....       0.726 sec  (  0.2%)
SOSCF solution              ....       0.607 sec  (  0.1%)
Finished LeanSCF after 412.5 sec

Maximum memory used throughout the entire LEANSCF-calculation: 75.4 MB

-------------------------   --------------------
FINAL SINGLE POINT ENERGY     -2093.115806710061
-------------------------   --------------------


------------------------------------------------------------------------------
                              ORCA PROPERTY CALCULATIONS
------------------------------------------------------------------------------

GBWName                                 ... /home/nmrbox/aojoawo/Documents/ERDOS/inputs/CHEMBL3353580.gbw
Number of atoms                         ...     43
Number of basis functions               ...    442
Max core memory                         ...   1024 MB

Electric properties:
Dipole moment                           ... YES
Quadrupole moment                       ...  NO
Static polarizability (Dipole/Dipole)   ...  NO
Static polarizability (Dipole/Quad.)    ...  NO
Static polarizability (Quad./Quad.)     ...  NO
Static polarizability (Velocity)        ...  NO

Atomic electric properties:
Dipole moment                           ...  NO
Quadrupole moment                       ...  NO
Static polarizability                   ...  NO

Choice of electric origin               ... Center of mass
Position of electric origin             ...     0.539888     0.742715    -0.033064

General magnetic properties:
Magnetizability                         ...  NO

EPR properties:
g-Tensor (aka g-matrix)                 ...  NO
Zero-Field splitting spin-orbit         ...  NO
Zero-field splitting spin-spin          ...  NO
Hyperfine couplings                     ...  NO (   0 nuclei)
Quadrupole couplings                    ...  NO (   0 nuclei)
Contact density                         ...  NO (   0 nuclei)

NMR properties:
Chemical shifts                         ...  NO (   0 nuclei)
Spin-rotation constants                 ...  NO (   0 nuclei)
Spin-spin couplings                     ...  NO (   0 nuclei,    0 pairs)

Choice of magnetic origin               ... GIAO
Position of magnetic origin             ...     0.000000     0.000000     0.000000

Properties with geometric perturbations:
SCF Hessian                             ...  NO
IR spectrum                             ...  NO
VCD spectrum                            ...  NO
X-ray spectroscopy properties:
SCF XES/XAS/RIXS spectra                ...  NO


-------------
DIPOLE MOMENT
-------------

Method             : SCF
Type of density    : Electron Density
Multiplicity       :   1
Irrep              :   0
Energy             : -2093.1158067100609514 Eh
Relativity type    : 
Basis              : AO
                                X                 Y                 Z
Electronic contribution:      6.164886693      14.615579908      -0.035264080
Nuclear contribution   :     -7.480001105     -17.008784041       0.790152485
                        -----------------------------------------
Total Dipole Moment    :     -1.315114412      -2.393204133       0.754888404
                        -----------------------------------------
Magnitude (a.u.)       :      2.833162269
Magnitude (Debye)      :      7.201326190



--------------------
Rotational spectrum 
--------------------
 
Rotational constants in cm-1:             0.009233             0.003068             0.002720 
Rotational constants in MHz :           276.812172            91.966968            81.534397 

Dipole components along the rotational axes: 
x,y,z [a.u.] :    -1.909725     1.941182    -0.782032 
x,y,z [Debye]:    -4.854134     4.934092    -1.987767 

 

Dipole moment calculation done in   0.0 sec 

Maximum memory used throughout the entire PROP-calculation: 36.7 MB

--------------------------------
SUGGESTED CITATIONS FOR THIS RUN
--------------------------------

Below you find a list of papers that are relevant to this ORCA run
We neither can nor want to force you to cite these papers, but we appreciate if you do
You receive ORCA, which is the product of decades of hard work by many enthusiastic individuals, for free
The only thing we kindly ask in return is that you cite our papers,
We deeply appreciate it, if you show your appreciation for ORCA by not just citing the generic ORCA reference.

Please note that relegating all ORCA citations to the supporting information does *not* help us.
SI sections are not indexed - citations you put there will not count into any citation statistics
But we need these citations in order to attract the funding resources that allow us to do what we are doing

Therefore, if you are a happy ORCA user, please consider citing a few of the papers listed below in the main body of your paper

In addition to the list printed below, the program has created the file /home/nmrbox/aojoawo/Documents/ERDOS/inputs/CHEMBL3353580.bibtex that contains the list in bibtex format
You can import this file easily into all common literature databanks and citation aid programs


List of essential papers. We consider these as the minimum necessary citations

  1. Neese,F.
     Software update: the ORCA program system, version 5.0
     WIRES Comput. Molec. Sci., 2022 12(1)e1606
     doi.org/10.1002/wcms.1606

List of papers to cite with high priority. The work reported in these papers was absolutely
necessary for this run to complete.
Our perspective: the developers of density functionals and basis sets usually get cited in chemistry papers
Good! But without the algorithms to do something with them, the functionals or basis sets would not do anything.
Hence, in our opinion, the algorithm design and method developments papers are equally worthy of getting cited

  1. Neese,F.
     An improvement of the resolution of the identity approximation for the formation of the Coulomb matrix
     J. Comp. Chem., 2003 24(14)1740-1747
     doi.org/10.1002/jcc.10318
  2. Neese,F.; Wennmohs,F.; Hansen,A.; Becker,U.
     Efficient, approximate and parallel Hartree-Fock and hybrid DFT calculations. A 'chain-of-spheres' algorithm for the Hartree-Fock exchange
     Chem. Phys., 2009 356(1-3)98-109
     doi.org/10.1016/j.chemphys.2008.10.036
  3. Helmich-Paris,B.; de Souza,B.; Neese,F.; Izsák,R.
     An improved chain of spheres for exchange algorithm
     J. Chem. Phys., 2021 155 104109
     doi.org/doi: 10.1063/5.0058766.
  4. Neese,F.
     The SHARK Integral Generation and Digestion System
     J. Comp. Chem., 2022  1-16
     doi.org/10.1002/jcc.26942

List of suggested additional citations. These are papers that are important in the 'surrounding' of 
of this run, or papers that preceded the highly important papers. If you like your results we are grateful for a citation.

  1. Izsak,R.; Neese,F.
     An overlap fitted chain of spheres exchange method
     J. Chem. Phys., 2011 135 144105
     doi.org/10.1063/1.3646921
  2. Izsak,R.; Hansen,A.; Neese,F.
     The resolution of identity and chain of spheres approximations for the LPNO-CCSD singles Fock term
     Molec. Phys., 2012 110 2413-2417
     doi.org/10.1080/00268976.2012.687466
  3. Neese,F.
     The ORCA program system
     WIRES Comput. Molec. Sci., 2012 2(1)73-78
     doi.org/10.1002/wcms.81
  4. Izsak,R.; Neese,F.; Klopper,W.
     Robust fitting techniques in the chain of spheres approximation to the Fock exchange: The role of the complementary space
     J. Chem. Phys., 2013 139 
     doi.org/10.1063/1.4819264
  5. Neese,F.
     Software update: the ORCA program system, version 4.0
     WIRES Comput. Molec. Sci., 2018 8(1)1-6
     doi.org/10.1002/wcms.1327
  6. Neese,F.; Wennmohs,F.; Becker,U.; Riplinger,C.
     The ORCA quantum chemistry program package
     J. Chem. Phys., 2020 152 Art. No. L224108
     doi.org/10.1063/5.0004608

List of optional additional citations

  1. Neese,F.
     Approximate second-order SCF convergence for spin unrestricted wavefunctions
     Chem. Phys. Lett., 2000 325(1-3)93-98
     doi.org/10.1016/s0009-2614(00)00662-x

Timings for individual modules:

Sum of individual times          ...      427.450 sec (=   7.124 min)
Startup calculation              ...        9.716 sec (=   0.162 min)   2.3 %
SCF iterations                   ...      417.543 sec (=   6.959 min)  97.7 %
Property calculations            ...        0.192 sec (=   0.003 min)   0.0 %
                             ****ORCA TERMINATED NORMALLY****
TOTAL RUN TIME: 0 days 0 hours 7 minutes 8 seconds 271 msec
