
                                 *****************
                                 * O   R   C   A *
                                 *****************

                                            #,                                       
                                            ###                                      
                                            ####                                     
                                            #####                                    
                                            ######                                   
                                           ########,                                 
                                     ,,################,,,,,                         
                               ,,#################################,,                 
                          ,,##########################################,,             
                       ,#########################################, ''#####,          
                    ,#############################################,,   '####,        
                  ,##################################################,,,,####,       
                ,###########''''           ''''###############################       
              ,#####''   ,,,,##########,,,,          '''####'''          '####       
            ,##' ,,,,###########################,,,                        '##       
           ' ,,###''''                  '''############,,,                           
         ,,##''                                '''############,,,,        ,,,,,,###''
      ,#''                                            '''#######################'''  
     '                                                          ''''####''''         
             ,#######,   #######,   ,#######,      ##                                
            ,#'     '#,  ##    ##  ,#'     '#,    #''#        ,####,   ,####,        
            ##       ##  ##   ,#'  ##            #'  '#       #'       #'  '#        
            ##       ##  #######   ##           ,######,      #####,   #    #        
            '#,     ,#'  ##    ##  '#,     ,#' ,#      #,     #,   #   #,  ,#        
             '#######'   ##     ##  '#######'  #'      '#     '####' # '####'        



                #########################################################
                #                        -***-                          #
                #          Department of theory and spectroscopy        #
                #                                                       #
                #                      Frank Neese                      #
                #                                                       #
                #     Directorship, Architecture, Infrastructure        #
                #                    SHARK, DRIVERS                     #
                #        Core code/Algorithms in most modules           #
                #                                                       #
                #        Max Planck Institute fuer Kohlenforschung      #
                #                Kaiser Wilhelm Platz 1                 #
                #                 D-45470 Muelheim/Ruhr                 #
                #                      Germany                          #
                #                                                       #
                #                  All rights reserved                  #
                #                        -***-                          #
                #########################################################


                         Program Version 6.0.0  -   RELEASE  -


 With contributions from (in alphabetic order):
   Daniel Aravena         : Magnetic Suceptibility
   Michael Atanasov       : Ab Initio Ligand Field Theory (pilot matlab implementation)
   Alexander A. Auer      : GIAO ZORA, VPT2 properties, NMR spectrum
   Ute Becker             : All parallelization in ORCA, NUMFREQ, NUMCALC
   Giovanni Bistoni       : ED, misc. LED, open-shell LED, HFLD
   Martin Brehm           : Molecular dynamics
   Dmytro Bykov           : pre 5.0 version of the SCF Hessian
   Marcos Casanova-Páez   : Triplet and SCS-CIS(D). UHF-(DLPNO)-IP/EA/STEOM-CCSD. UHF-CVS-IP/STEOM-CCSD
   Vijay G. Chilkuri      : MRCI spin determinant printing, contributions to CSF-ICE
   Pauline Colinet        : FMM embedding
   Dipayan Datta          : RHF DLPNO-CCSD density
   Achintya Kumar Dutta   : EOM-CC, STEOM-CC
   Nicolas Foglia         : Exact transition moments, OPA infrastructure, MCD improvements
   Dmitry Ganyushin       : Spin-Orbit,Spin-Spin,Magnetic field MRCI
   Miquel Garcia          : C-PCM and meta-GGA Hessian, CCSD/C-PCM, Gaussian charge scheme
   Tiago L. C. Gouveia    : GS-ROHF, GS-ROCIS
   Yang Guo               : DLPNO-NEVPT2, F12-NEVPT2, CIM, IAO-localization
   Andreas Hansen         : Spin unrestricted coupled pair/coupled cluster methods
   Ingolf Harden          : AUTO-CI MPn and infrastructure 
   Benjamin Helmich-Paris : MC-RPA, TRAH-(SCF,CASSCF), AVAS, COSX integrals, SCF dyn. polar.
   Lee Huntington         : MR-EOM, pCC
   Robert Izsak           : Overlap fitted RIJCOSX, COSX-SCS-MP3, EOM
   Riya Kayal             : Wick's Theorem for AUTO-CI, AUTO-CI UHF-CCSDT
   Emily Kempfer          : AUTO-CI, RHF CISDT and CCSDT
   Christian Kollmar      : KDIIS, OOCD, Brueckner-CCSD(T), CCSD density, CASPT2, CASPT2-K, improved NEVPT2
   Axel Koslowski         : Symmetry handling
   Simone Kossmann        : Meta GGA functionals, TD-DFT gradient, OOMP2, (MP2 Hessian; deprecated post 5.0)
   Lucas Lang             : DCDCAS
   Marvin Lechner         : AUTO-CI (C++ implementation), FIC-MRCC
   Spencer Leger          : CASSCF response
   Dagmar Lenk            : GEPOL surface, SMD, ORCA-2-JSON
   Dimitrios Liakos       : Extrapolation schemes; Compound Job, initial MDCI parallelization
   Dimitrios Manganas     : Further ROCIS development; embedding schemes. LFT, Crystal Embedding
   Dimitrios Pantazis     : SARC Basis sets
   Anastasios Papadopoulos: AUTO-CI, single reference methods and gradients
   Taras Petrenko         : pre 6.0 DFT Hessian and TD-DFT gradient, (ASA, deprecated), ECA, 1-Electron XAS/XES, NRVS
   Peter Pinski           : DLPNO-MP2, DLPNO-MP2 Gradient
   Christoph Reimann      : Effective Core Potentials
   Marius Retegan         : Local ZFS, SOC
   Christoph Riplinger    : Optimizer, TS searches, QM/MM, DLPNO-CCSD(T), (RO)-DLPNO pert. Triples
   Michael Roemelt        : Original ROCIS implementation
   Masaaki Saitow         : Open-shell DLPNO-CCSD energy and density
   Barbara Sandhoefer     : DKH picture change effects
   Kantharuban Sivalingam : CASSCF convergence/infrastructure, NEVPT2 and variants, FIC-MRCI
   Bernardo de Souza      : ESD, SOC TD-DFT
   Georgi Stoychev        : AutoAux, RI-MP2 NMR, DLPNO-MP2 response, X2C
   Van Anh Tran           : RI-MP2 g-tensors
   Willem Van den Heuvel  : Paramagnetic NMR
   Zikuan Wang            : NOTCH, Electric field optimization 
   Frank Wennmohs         : Technical directorship and infrastructure
   Hang Xu                : AUTO-CI-Response properties 


 We gratefully acknowledge several colleagues who have allowed us to
 interface, adapt or use parts of their codes:
   Stefan Grimme, W. Hujo, H. Kruse, P. Pracht,  : VdW corrections, initial TS optimization,
                  C. Bannwarth, S. Ehlert,         DFT functionals, gCP, sTDA/sTD-DF
                  L. Wittmann, M. Mueller
   Ed Valeev, F. Pavosevic, A. Kumar             : LibInt (2-el integral package), F12 methods
   Garnet Chan, S. Sharma, J. Yang, R. Olivares  : DMRG
   Ulf Ekstrom                                   : XCFun DFT Library
   Mihaly Kallay                                 : mrcc  (arbitrary order and MRCC methods)
   Frank Weinhold                                : gennbo (NPA and NBO analysis)
   Simon Mueller                                 : openCOSMO-RS
   Christopher J. Cramer and Donald G. Truhlar   : smd solvation model
   Lars Goerigk                                  : TD-DFT with DH, B97 family of functionals
   V. Asgeirsson, H. Jonsson                     : NEB implementation
   FAccTs GmbH                                   : IRC, NEB, NEB-TS, DLPNO-Multilevel, CI-OPT
                                                   MM, QMMM, 2- and 3-layer-ONIOM, Crystal-QMMM,
                                                   LR-CPCM, SF, NACMEs, symmetry and pop. for TD-DFT,
                                                   nearIR, NL-DFT gradient (VV10), updates on ESD,
                                                   ML-optimized integration grids, MBIS, APM,
                                                   GOAT, DOCKER, SOLVATOR, interface openCOSMO-RS
   S Lehtola, MJT Oliveira, MAL Marques          : LibXC Library
   Liviu Ungur et al                             : ANISO software


 Your calculation uses the libint2 library for the computation of 2-el integrals
 For citations please refer to: http://libint.valeyev.net

 Your ORCA version has been built with support for libXC version: 6.2.2
 For citations please refer to: https://libxc.gitlab.io

 This ORCA versions uses:
   CBLAS   interface :  Fast vector & matrix operations
   LAPACKE interface :  Fast linear algebra routines
   SCALAPACK package :  Parallel linear algebra routines
   Shared memory     :  Shared parallel matrices
   BLAS/LAPACK       :  OpenBLAS 0.3.27  USE64BITINT DYNAMIC_ARCH NO_AFFINITY SkylakeX SINGLE_THREADED
        Core in use  :  SkylakeX
   Copyright (c) 2011-2014, The OpenBLAS Project


Warning: RI is on but no J-basis has been assigned. Assigning Def2/J (nothing to worry about!)
================================================================================

----- Orbital basis set information -----
Your calculation utilizes the basis: 6-31G*
   H-He, Li-Ne : W. J. Hehre, R. Ditchfield and J.A. Pople, J. Chem. Phys. 56, 2257 (1972).
                 Note: He and Ne are unpublished basis sets taken from the Gaussian program.
                 Note: Li and B from J. D. Dill and J. A. Pople, J. Chem. Phys. 62, 2921 (1975).
   Na - Ar     : M. M. Francl, W. J. Pietro, W. J. Hehre, J. S. Binkley, M. S. Gordon, 
                 D. J. DeFrees and J. A. Pople, J. Chem. Phys. 77, 3654 (1982).
   K - Zn      : V. A. Rassolov, J. A. Pople, M. A. Ratner, and T. L. Windus, J. Chem. Phys. 109, 1223 (1998).

----- AuxJ basis set information -----
Your calculation utilizes the auxiliary basis: def2/J
   F. Weigend, Phys. Chem. Chem. Phys. 8, 1057 (2006).

================================================================================
                                        WARNINGS
                       Please study these warnings very carefully!
================================================================================


================================================================================
                                       INPUT FILE
================================================================================
NAME = /home/nmrbox/aojoawo/Documents/ERDOS/inputs/CHEMBL122413.inp
|  1> ! B3LYP 6-31G* SP
|  2> 
|  3> * xyz 0 1
|  4> C -6.0845 1.6158 -1.1716
|  5> O -4.6907 1.5366 -0.8915
|  6> C -4.0877 0.5042 -0.1575
|  7> C -4.8233 -0.5705 0.3767
|  8> C -4.1730 -1.5817 1.0876
|  9> C -2.7909 -1.5283 1.2802
| 10> C -2.0448 -0.4536 0.7750
| 11> N -0.6196 -0.4303 0.9682
| 12> C 0.1513 0.7800 1.0632
| 13> O -0.4058 1.8530 1.4198
| 14> C 1.6059 0.7932 0.8124
| 15> C 2.2457 -0.2042 0.1843
| 16> C 3.7066 -0.2115 -0.0773
| 17> C 4.3367 -1.4417 -0.3333
| 18> C 5.7091 -1.4980 -0.5940
| 19> C 6.4680 -0.3249 -0.6127
| 20> Cl 8.1893 -0.3972 -0.9425
| 21> C 5.8515 0.9067 -0.3765
| 22> C 4.4791 0.9681 -0.1144
| 23> C -2.7020 0.5519 0.0416
| 24> H -6.2834 2.5309 -1.7661
| 25> H -6.6616 1.6745 -0.2247
| 26> H -6.4063 0.7317 -1.7616
| 27> H -5.8941 -0.6373 0.2419
| 28> H -4.7418 -2.4104 1.4894
| 29> H -2.3011 -2.3206 1.8322
| 30> H -0.1407 -1.3364 1.1713
| 31> H 2.1495 1.6639 1.1515
| 32> H 1.6862 -1.0724 -0.1396
| 33> H 3.7666 -2.3629 -0.3229
| 34> H 6.1806 -2.4541 -0.7821
| 35> H 6.4335 1.8193 -0.4030
| 36> H 4.0316 1.9409 0.0319
| 37> H -2.1399 1.3654 -0.3980
| 38> *
| 39> 
| 40>                          ****END OF INPUT****
================================================================================

                       ****************************
                       * Single Point Calculation *
                       ****************************

---------------------------------
CARTESIAN COORDINATES (ANGSTROEM)
---------------------------------
  C     -6.084500    1.615800   -1.171600
  O     -4.690700    1.536600   -0.891500
  C     -4.087700    0.504200   -0.157500
  C     -4.823300   -0.570500    0.376700
  C     -4.173000   -1.581700    1.087600
  C     -2.790900   -1.528300    1.280200
  C     -2.044800   -0.453600    0.775000
  N     -0.619600   -0.430300    0.968200
  C      0.151300    0.780000    1.063200
  O     -0.405800    1.853000    1.419800
  C      1.605900    0.793200    0.812400
  C      2.245700   -0.204200    0.184300
  C      3.706600   -0.211500   -0.077300
  C      4.336700   -1.441700   -0.333300
  C      5.709100   -1.498000   -0.594000
  C      6.468000   -0.324900   -0.612700
  Cl     8.189300   -0.397200   -0.942500
  C      5.851500    0.906700   -0.376500
  C      4.479100    0.968100   -0.114400
  C     -2.702000    0.551900    0.041600
  H     -6.283400    2.530900   -1.766100
  H     -6.661600    1.674500   -0.224700
  H     -6.406300    0.731700   -1.761600
  H     -5.894100   -0.637300    0.241900
  H     -4.741800   -2.410400    1.489400
  H     -2.301100   -2.320600    1.832200
  H     -0.140700   -1.336400    1.171300
  H      2.149500    1.663900    1.151500
  H      1.686200   -1.072400   -0.139600
  H      3.766600   -2.362900   -0.322900
  H      6.180600   -2.454100   -0.782100
  H      6.433500    1.819300   -0.403000
  H      4.031600    1.940900    0.031900
  H     -2.139900    1.365400   -0.398000

----------------------------
CARTESIAN COORDINATES (A.U.)
----------------------------
  NO LB      ZA    FRAG     MASS         X           Y           Z
   0 C     6.0000    0    12.011  -11.498039    3.053419   -2.214003
   1 O     8.0000    0    15.999   -8.864138    2.903753   -1.684691
   2 C     6.0000    0    12.011   -7.724634    0.952800   -0.297632
   3 C     6.0000    0    12.011   -9.114716   -1.078089    0.711860
   4 C     6.0000    0    12.011   -7.885827   -2.988980    2.055266
   5 C     6.0000    0    12.011   -5.274037   -2.888068    2.419227
   6 C     6.0000    0    12.011   -3.864112   -0.857180    1.464538
   7 N     7.0000    0    14.007   -1.170874   -0.813149    1.829633
   8 C     6.0000    0    12.011    0.285916    1.473986    2.009157
   9 O     8.0000    0    15.999   -0.766851    3.501663    2.683033
  10 C     6.0000    0    12.011    3.034711    1.498931    1.535214
  11 C     6.0000    0    12.011    4.243758   -0.385882    0.348277
  12 C     6.0000    0    12.011    7.004459   -0.399677   -0.146076
  13 C     6.0000    0    12.011    8.195175   -2.724418   -0.629846
  14 C     6.0000    0    12.011   10.788635   -2.830810   -1.122497
  15 C     6.0000    0    12.011   12.222749   -0.613972   -1.157835
  16 Cl   17.0000    0    35.453   15.475534   -0.750599   -1.781067
  17 C     6.0000    0    12.011   11.057732    1.713415   -0.711482
  18 C     6.0000    0    12.011    8.464272    1.829444   -0.216185
  19 C     6.0000    0    12.011   -5.106040    1.042940    0.078613
  20 H     1.0000    0     1.008  -11.873905    4.782708   -3.337445
  21 H     1.0000    0     1.008  -12.588600    3.164346   -0.424621
  22 H     1.0000    0     1.008  -12.106153    1.382713   -3.328942
  23 H     1.0000    0     1.008  -11.138235   -1.204322    0.457125
  24 H     1.0000    0     1.008   -8.960703   -4.554996    2.814558
  25 H     1.0000    0     1.008   -4.348449   -4.385298    3.462356
  26 H     1.0000    0     1.008   -0.265884   -2.525430    2.213436
  27 H     1.0000    0     1.008    4.061966    3.144315    2.176020
  28 H     1.0000    0     1.008    3.186456   -2.026542   -0.263806
  29 H     1.0000    0     1.008    7.117842   -4.465234   -0.610193
  30 H     1.0000    0     1.008   11.679641   -4.637577   -1.477955
  31 H     1.0000    0     1.008   12.157553    3.437979   -0.761560
  32 H     1.0000    0     1.008    7.618620    3.667769    0.060282
  33 H     1.0000    0     1.008   -4.043825    2.580232   -0.752111

--------------------------------
INTERNAL COORDINATES (ANGSTROEM)
--------------------------------
 C      0   0   0     0.000000000000     0.00000000     0.00000000
 O      1   0   0     1.423870461102     0.00000000     0.00000000
 C      2   1   0     1.402930775199   124.37384545     0.00000000
 C      3   2   1     1.407642387114   122.39629661     0.14090172
 C      4   3   2     1.396708394762   120.17196193   179.27540236
 C      5   4   3     1.396476541156   120.21955615     0.41901290
 C      6   5   4     1.402452259437   120.40710117     0.67719346
 N      7   6   5     1.438424196821   119.41522581   180.93561773
 C      8   7   6     1.438102186912   123.61644118   209.01040740
 O      9   8   7     1.260497112254   119.87958391    23.55033544
 C      9   8   7     1.476121959731   121.63728556   200.68819148
 C     11   9   8     1.341141457863   122.88961633    16.37155285
 C     12  11   9     1.484155200779   123.76503746   180.03654280
 C     13  12  11     1.405686327030   118.53086442   159.59126224
 C     14  13  12     1.398075799090   120.61192291   179.57253436
 C     15  14  13     1.397298289557   120.12129847   359.49812814
 Cl    16  15  14     1.754100629953   120.05793800   180.09772279
 C     16  15  14     1.397390872305   119.87218083   359.69540022
 C     18  16  15     1.398552154909   120.21862117     0.34583733
 C      3   2   1     1.400742870765   118.32711751   179.93167146
 H      1   2   3     1.109233731005   109.07744947   179.98287182
 H      1   2   3     1.110454731180   110.11578185    60.80603011
 H      1   2   3     1.110535028714   110.11344607   299.14749909
 H      4   3   2     1.081316752853   121.15457716   359.74709113
 H      5   4   3     1.082460331837   119.90332516   180.51185960
 H      6   5   4     1.082749892634   119.34327218   180.09299105
 H      8   7   6     1.044802388014   117.78866691    20.94173682
 H     11   9   8     1.081021859168   116.70724113   195.64117393
 H     12  11   9     1.082461408088   119.34359572   358.66107661
 H     14  13  12     1.083388946778   120.43212978   359.03239990
 H     15  14  13     1.082506845244   119.70489723   179.55417727
 H     18  16  15     1.082711877648   120.10544148   180.80677442
 H     19  18  16     1.080740385106   118.11302048   181.93562796
 H     20   3   2     1.082121444201   118.79792588   358.35787473

---------------------------
INTERNAL COORDINATES (A.U.)
---------------------------
 C      0   0   0     0.000000000000     0.00000000     0.00000000
 O      1   0   0     2.690725221664     0.00000000     0.00000000
 C      2   1   0     2.651154949976   124.37384545     0.00000000
 C      3   2   1     2.660058606145   122.39629661     0.14090172
 C      4   3   2     2.639396355050   120.17196193   179.27540236
 C      5   4   3     2.638958215231   120.21955615     0.41901290
 C      6   5   4     2.650250686235   120.40710117     0.67719346
 N      7   6   5     2.718227796397   119.41522581   180.93561773
 C      8   7   6     2.717619285856   123.61644118   209.01040740
 O      9   8   7     2.381994334758   119.87958391    23.55033544
 C      9   8   7     2.789466244159   121.63728556   200.68819148
 C     11   9   8     2.534390062210   122.88961633    16.37155285
 C     12  11   9     2.804646869708   123.76503746   180.03654280
 C     13  12  11     2.656362188285   118.53086442   159.59126224
 C     14  13  12     2.641980374742   120.61192291   179.57253436
 C     15  14  13     2.640511094660   120.12129847   359.49812814
 Cl    16  15  14     3.314769801949   120.05793800   180.09772279
 C     16  15  14     2.640686050697   119.87218083   359.69540022
 C     18  16  15     2.642880556783   120.21862117     0.34583733
 C      3   2   1     2.647020409789   118.32711751   179.93167146
 H      1   2   3     2.096147970108   109.07744947   179.98287182
 H      1   2   3     2.098455326047   110.11578185    60.80603011
 H      1   2   3     2.098607066395   110.11344607   299.14749909
 H      4   3   2     2.043392526913   121.15457716   359.74709113
 H      5   4   3     2.045553578005   119.90332516   180.51185960
 H      6   5   4     2.046100768612   119.34327218   180.09299105
 H      8   7   6     1.974390377414   117.78866691    20.94173682
 H     11   9   8     2.042835258611   116.70724113   195.64117393
 H     12  11   9     2.045555611825   119.34359572   358.66107661
 H     14  13  12     2.047308405927   120.43212978   359.03239990
 H     15  14  13     2.045641475606   119.70489723   179.55417727
 H     18  16  15     2.046028930698   120.10544148   180.80677442
 H     19  18  16     2.042303349720   118.11302048   181.93562796
 H     20   3   2     2.044913173184   118.79792588   358.35787473

---------------------
BASIS SET INFORMATION
---------------------
There are 5 groups of distinct atoms

 Group   1 Type C   : 10s4p1d contracted to 3s2p1d pattern {631/31/1}
 Group   2 Type O   : 10s4p1d contracted to 3s2p1d pattern {631/31/1}
 Group   3 Type N   : 10s4p1d contracted to 3s2p1d pattern {631/31/1}
 Group   4 Type Cl  : 16s10p1d contracted to 4s3p1d pattern {6631/631/1}
 Group   5 Type H   : 4s contracted to 2s pattern {31}

Atom   0C    basis set group =>   1
Atom   1O    basis set group =>   2
Atom   2C    basis set group =>   1
Atom   3C    basis set group =>   1
Atom   4C    basis set group =>   1
Atom   5C    basis set group =>   1
Atom   6C    basis set group =>   1
Atom   7N    basis set group =>   3
Atom   8C    basis set group =>   1
Atom   9O    basis set group =>   2
Atom  10C    basis set group =>   1
Atom  11C    basis set group =>   1
Atom  12C    basis set group =>   1
Atom  13C    basis set group =>   1
Atom  14C    basis set group =>   1
Atom  15C    basis set group =>   1
Atom  16Cl   basis set group =>   4
Atom  17C    basis set group =>   1
Atom  18C    basis set group =>   1
Atom  19C    basis set group =>   1
Atom  20H    basis set group =>   5
Atom  21H    basis set group =>   5
Atom  22H    basis set group =>   5
Atom  23H    basis set group =>   5
Atom  24H    basis set group =>   5
Atom  25H    basis set group =>   5
Atom  26H    basis set group =>   5
Atom  27H    basis set group =>   5
Atom  28H    basis set group =>   5
Atom  29H    basis set group =>   5
Atom  30H    basis set group =>   5
Atom  31H    basis set group =>   5
Atom  32H    basis set group =>   5
Atom  33H    basis set group =>   5
---------------------------------
AUXILIARY/J BASIS SET INFORMATION
---------------------------------
There are 5 groups of distinct atoms

 Group   1 Type C   : 12s5p4d2f1g contracted to 6s4p3d1f1g pattern {711111/2111/211/2/1}
 Group   2 Type O   : 12s5p4d2f1g contracted to 6s4p3d1f1g pattern {711111/2111/211/2/1}
 Group   3 Type N   : 12s5p4d2f1g contracted to 6s4p3d1f1g pattern {711111/2111/211/2/1}
 Group   4 Type Cl  : 14s5p5d2f1g contracted to 8s4p3d1f1g pattern {71111111/2111/311/2/1}
 Group   5 Type H   : 5s2p1d contracted to 3s1p1d pattern {311/2/1}

Atom   0C    basis set group =>   1
Atom   1O    basis set group =>   2
Atom   2C    basis set group =>   1
Atom   3C    basis set group =>   1
Atom   4C    basis set group =>   1
Atom   5C    basis set group =>   1
Atom   6C    basis set group =>   1
Atom   7N    basis set group =>   3
Atom   8C    basis set group =>   1
Atom   9O    basis set group =>   2
Atom  10C    basis set group =>   1
Atom  11C    basis set group =>   1
Atom  12C    basis set group =>   1
Atom  13C    basis set group =>   1
Atom  14C    basis set group =>   1
Atom  15C    basis set group =>   1
Atom  16Cl   basis set group =>   4
Atom  17C    basis set group =>   1
Atom  18C    basis set group =>   1
Atom  19C    basis set group =>   1
Atom  20H    basis set group =>   5
Atom  21H    basis set group =>   5
Atom  22H    basis set group =>   5
Atom  23H    basis set group =>   5
Atom  24H    basis set group =>   5
Atom  25H    basis set group =>   5
Atom  26H    basis set group =>   5
Atom  27H    basis set group =>   5
Atom  28H    basis set group =>   5
Atom  29H    basis set group =>   5
Atom  30H    basis set group =>   5
Atom  31H    basis set group =>   5
Atom  32H    basis set group =>   5
Atom  33H    basis set group =>   5
------------------------------------------------------------------------------
                             ORCA STARTUP CALCULATIONS
                           -- RI-GTO INTEGRALS CHOSEN --
------------------------------------------------------------------------------
------------------------------------------------------------------------------
                   ___                                                        
                  /   \      - P O W E R E D   B Y -                         
                 /     \                                                     
                 |  |  |   _    _      __       _____    __    __             
                 |  |  |  | |  | |    /  \     |  _  \  |  |  /  |          
                  \  \/   | |  | |   /    \    | | | |  |  | /  /          
                 / \  \   | |__| |  /  /\  \   | |_| |  |  |/  /          
                |  |  |   |  __  | /  /__\  \  |    /   |      \           
                |  |  |   | |  | | |   __   |  |    \   |  |\   \          
                \     /   | |  | | |  |  |  |  | |\  \  |  | \   \       
                 \___/    |_|  |_| |__|  |__|  |_| \__\ |__|  \__/        
                                                                              
                      - O R C A' S   B I G   F R I E N D -                    
                                      &                                       
                       - I N T E G R A L  F E E D E R -                       
                                                                              
 v1 FN, 2020, v2 2021, v3 2022-2024                                           
------------------------------------------------------------------------------


----------------------
SHARK INTEGRAL PACKAGE
----------------------

Number of atoms                             ...     34
Number of basis functions                   ...    312
Number of shells                            ...    150
Maximum angular momentum                    ...      2
Integral batch strategy                     ... SHARK/LIBINT Hybrid
RI-J (if used) integral strategy            ... SPLIT-RIJ (Revised 2003 algorithm where possible)
Printlevel                                  ...      1
Contraction scheme used                     ... SEGMENTED contraction
Prescreening option                         ... SCHWARTZ
   Thresh                                   ... 1.000e-10
   Tcut                                     ... 1.000e-11
   Tpresel                                  ... 1.000e-11 
Coulomb Range Separation                    ... NOT USED
Exchange Range Separation                   ... NOT USED
Multipole approximations                    ... NOT USED
Finite Nucleus Model                        ... NOT USED
CABS basis                                  ... NOT available
Auxiliary Coulomb fitting basis             ... AVAILABLE
   # of basis functions in Aux-J            ...   1136
   # of shells in Aux-J                     ...    372
   Maximum angular momentum in Aux-J        ...      4
Auxiliary J/K fitting basis                 ... NOT available
Auxiliary Correlation fitting basis         ... NOT available
Auxiliary 'external' fitting basis          ... NOT available

Checking pre-screening integrals            ... done (  0.0 sec) Dimension = 150
Check shell pair data                       ... done (  0.0 sec)
Shell pair information
Shell pair cut-off parameter TPreSel        ...   1.0e-11
Total number of shell pairs                 ...     11325
Shell pairs after pre-screening             ...      6744
Total number of primitive shell pairs       ...     68388
Primitive shell pairs kept                  ...     22796
          la=0 lb=0:   2259 shell pairs
          la=1 lb=0:   2324 shell pairs
          la=1 lb=1:    607 shell pairs
          la=2 lb=0:    948 shell pairs
          la=2 lb=1:    499 shell pairs
          la=2 lb=2:    107 shell pairs

Calculating one electron integrals          ... done (  0.1 sec)
Calculating RI/J V-Matrix + Cholesky decomp.... done (  0.2 sec)
Calculating Nuclear repulsion               ... done (  0.0 sec) ENN=   1410.819245585522 Eh

Diagonalization of the overlap matrix:
Smallest eigenvalue                        ... 4.646e-04
Time for diagonalization                   ...    0.011 sec
Threshold for overlap eigenvalues          ... 1.000e-07
Number of eigenvalues below threshold      ... 0
Time for construction of square roots      ...    0.019 sec
Total time needed                          ...    0.040 sec

-------------------
DFT GRID GENERATION
-------------------

General Integration Accuracy     IntAcc      ... 4.388
Radial Grid Type                 RadialGrid  ... OptM3 with GC (2021)
Angular Grid (max. ang.)         AngularGrid ... 4 (Lebedev-302)
Angular grid pruning method      GridPruning ... 4 (adaptive)
Weight generation scheme         WeightScheme... mBecke (2022)
Basis function cutoff            BFCut       ... 1.0000e-10
Integration weight cutoff        WCut        ... 1.0000e-14
Partially contracted basis set               ... off
Rotationally invariant grid construction     ... off
Angular grids for H and He will be reduced by one unit

Total number of grid points                  ...   166228
Total number of batches                      ...     2613
Average number of points per batch           ...       63
Average number of grid points per atom       ...     4889

--------------------
COSX GRID GENERATION
--------------------

GRIDX 1
-------
General Integration Accuracy     IntAcc      ... 3.816
Radial Grid Type                 RadialGrid  ... OptM3 with GC (2021)
Angular Grid (max. ang.)         AngularGrid ... 1 (Lebedev-50)
Angular grid pruning method      GridPruning ... 4 (adaptive)
Weight generation scheme         WeightScheme... mBecke (2022)
Basis function cutoff            BFCut       ... 1.0000e-10
Integration weight cutoff        WCut        ... 1.0000e-14
Partially contracted basis set               ... on
Rotationally invariant grid construction     ... off
Angular grids for H and He will be reduced by one unit

Total number of grid points                  ...    22222
Total number of batches                      ...      192
Average number of points per batch           ...      115
Average number of grid points per atom       ...      654
UseSFitting                                  ... on

GRIDX 2
-------
General Integration Accuracy     IntAcc      ... 4.020
Radial Grid Type                 RadialGrid  ... OptM3 with GC (2021)
Angular Grid (max. ang.)         AngularGrid ... 2 (Lebedev-110)
Angular grid pruning method      GridPruning ... 4 (adaptive)
Weight generation scheme         WeightScheme... mBecke (2022)
Basis function cutoff            BFCut       ... 1.0000e-10
Integration weight cutoff        WCut        ... 1.0000e-14
Partially contracted basis set               ... on
Rotationally invariant grid construction     ... off
Angular grids for H and He will be reduced by one unit

Total number of grid points                  ...    46267
Total number of batches                      ...      377
Average number of points per batch           ...      122
Average number of grid points per atom       ...     1361
UseSFitting                                  ... on

GRIDX 3
-------
General Integration Accuracy     IntAcc      ... 4.338
Radial Grid Type                 RadialGrid  ... OptM3 with GC (2021)
Angular Grid (max. ang.)         AngularGrid ... 3 (Lebedev-194)
Angular grid pruning method      GridPruning ... 4 (adaptive)
Weight generation scheme         WeightScheme... mBecke (2022)
Basis function cutoff            BFCut       ... 1.0000e-10
Integration weight cutoff        WCut        ... 1.0000e-14
Partially contracted basis set               ... on
Rotationally invariant grid construction     ... off
Angular grids for H and He will be reduced by one unit

Total number of grid points                  ...   102002
Total number of batches                      ...      817
Average number of points per batch           ...      124
Average number of grid points per atom       ...     3000
UseSFitting                                  ... on
Initializing property integral containers    ... done (  0.0 sec)

SHARK setup successfully completed in   4.7 seconds

Maximum memory used throughout the entire STARTUP-calculation: 68.1 MB
-------------------------------------------------------------------------------
                                 ORCA GUESS
                   Start orbitals & Density for SCF / CASSCF
-------------------------------------------------------------------------------

------------
SCF SETTINGS
------------
Hamiltonian:
 Density Functional     Method          .... DFT(GTOs)
 Exchange Functional    Exchange        .... B88
   X-Alpha parameter    XAlpha          ....  0.666667
   Becke's b parameter  XBeta           ....  0.004200
 Correlation Functional Correlation     .... LYP
 LDA part of GGA corr.  LDAOpt          .... VWN-5
 Gradients option       PostSCFGGA      .... off
 Hybrid DFT is turned on
   Fraction HF Exchange ScalHFX         ....  0.200000
   Scaling of DF-GGA-X  ScalDFX         ....  0.720000
   Scaling of DF-GGA-C  ScalDFC         ....  0.810000
   Scaling of DF-LDA-C  ScalLDAC        ....  1.000000
   Perturbative correction              ....  0.000000
   NL short-range parameter             ....  4.800000
 RI-approximation to the Coulomb term is turned on
   Number of AuxJ basis functions       .... 1136
   RIJ-COSX (HFX calculated with COS-X)).... on


General Settings:
 Integral files         IntName         .... /home/nmrbox/aojoawo/Documents/ERDOS/inputs/CHEMBL122413
 Hartree-Fock type      HFTyp           .... RHF
 Total Charge           Charge          ....    0
 Multiplicity           Mult            ....    1
 Number of Electrons    NEL             ....  150
 Basis Dimension        Dim             ....  312
 Nuclear Repulsion      ENuc            ....   1410.8192455855 Eh

Convergence Acceleration:
 AO-DIIS                CNVDIIS         .... on
   Start iteration      DIISMaxIt       ....    12
   Startup error        DIISStart       ....  0.200000
   # of expansion vecs  DIISMaxEq       ....     5
   Bias factor          DIISBfac        ....   1.050
   Max. coefficient     DIISMaxC        ....  10.000
 MO-DIIS                CNVKDIIS        .... off
 Trust-Rad. Augm. Hess. CNVTRAH         .... auto
   Auto Start mean grad. ratio tolernc. ....  1.125000
   Auto Start start iteration           ....    50
   Auto Start num. interpolation iter.  ....    10
   Max. Number of Micro iterations      ....    24
   Max. Number of Macro iterations      .... Maxiter - #DIIS iter
   Number of Davidson start vectors     ....     2
   Converg. threshold    (grad. norm)   ....   5.000e-05
   Grad. Scal. Fac. for Micro threshold ....   0.100
   Minimum threshold for Micro iter.    ....   1.000e-02
   NR start threshold (gradient norm)   ....   1.000e-04
   Initial trust radius                 ....   0.400
   Minimum AH scaling param. (alpha)    ....   1.000
   Maximum AH scaling param. (alpha)    .... 1000.000
   Quad. conv. algorithm                .... NR
   White noise on init. David. guess    .... on
   Maximum white noise                  ....   0.010
   Pseudo random numbers                .... off
   Inactive MOs                         .... canonical
   Orbital update algorithm             .... Taylor
   Preconditioner                       .... Diag
   Full preconditioner red. dimension   ....   250
 SOSCF                  CNVSOSCF        .... on
   Start iteration      SOSCFMaxIt      ....   150
   Startup grad/error   SOSCFStart      ....  0.003300
   Hessian update       SOSCFHessUp     .... L-BFGS
 Level Shifting         CNVShift        .... on
   Level shift para.    LevelShift      ....    0.2500
   Turn off err/grad.   ShiftErr        ....    0.0010
 Zerner damping         CNVZerner       .... off
 Static damping         CNVDamp         .... on
   Fraction old density DampFac         ....    0.7000
   Max. Damping (<1)    DampMax         ....    0.9800
   Min. Damping (>=0)   DampMin         ....    0.0000
   Turn off err/grad.   DampErr         ....    0.1000

SCF Procedure:
 Maximum # iterations   MaxIter         ....   125
 SCF integral mode      SCFMode         .... Direct
   Integral package                     .... SHARK and LIBINT hybrid scheme
 Reset frequency        DirectResetFreq ....    20
 Integral Threshold     Thresh          ....  1.000e-10 Eh
 Primitive CutOff       TCut            ....  1.000e-11 Eh

Convergence Tolerance:
 Convergence Check Mode ConvCheckMode   .... Total+1el-Energy
 Convergence forced     ConvForced      .... 0
 Energy Change          TolE            ....  1.000e-06 Eh
 1-El. energy change                    ....  1.000e-03 Eh
 Orbital Gradient       TolG            ....  5.000e-05
 Orbital Rotation angle TolX            ....  5.000e-05
 DIIS Error             TolErr          ....  1.000e-06

------------------------------
INITIAL GUESS: MODEL POTENTIAL
------------------------------
Loading Hartree-Fock densities                     ... done
Calculating cut-offs                               ... done
Initializing the effective Hamiltonian             ... done
Setting up the integral package (SHARK)            ... done
Starting the Coulomb interaction                   ... done (   0.7 sec)
Making the grid                                    ... done (   0.5 sec)
Mapping shells                                     ... done
Starting the XC term evaluation                    ... done (   0.4 sec)
  promolecular density results
     # of electrons  =    149.996645500
     EX              =   -136.847348692
     EC              =     -5.219090555
     EX+EC           =   -142.066439247
Transforming the Hamiltonian                       ... done (   0.0 sec)
Diagonalizing the Hamiltonian                      ... done (   0.0 sec)
Back transforming the eigenvectors                 ... done (   0.0 sec)
Now organizing SCF variables                       ... done
                      ------------------
                      INITIAL GUESS DONE (   1.7 sec)
                      ------------------
             **** ENERGY FILE WAS UPDATED (/home/nmrbox/aojoawo/Documents/ERDOS/inputs/CHEMBL122413.en.tmp) ****
Finished Guess after   2.0 sec
Maximum memory used throughout the entire GUESS-calculation: 34.2 MB

-------------------------------------------------------------------------------------------
                                      ORCA LEAN-SCF
                              memory conserving SCF solver
-------------------------------------------------------------------------------------------

----------------------------------------D-I-I-S--------------------------------------------
Iteration    Energy (Eh)           Delta-E    RMSDP     MaxDP     DIISErr   Damp  Time(sec)
-------------------------------------------------------------------------------------------
               ***  Starting incremental Fock matrix formation  ***
    1    -1282.4772091071042723     0.00e+00  2.49e-03  1.12e-01  2.77e-01  0.700  16.3
    2    -1282.6835334335339667    -2.06e-01  1.68e-03  6.45e-02  1.00e-01  0.700   8.1
                               ***Turning on AO-DIIS***
    3    -1282.7659364638482202    -8.24e-02  7.15e-04  1.59e-02  3.84e-02  0.700   7.9
    4    -1282.8160619008724552    -5.01e-02  1.19e-03  3.20e-02  1.72e-02  0.000   8.8
    5    -1282.9247897858101624    -1.09e-01  2.68e-04  8.72e-03  6.87e-03  0.000   8.2
                              *** Initializing SOSCF ***
---------------------------------------S-O-S-C-F--------------------------------------
Iteration    Energy (Eh)           Delta-E    RMSDP     MaxDP     MaxGrad    Time(sec)
--------------------------------------------------------------------------------------
    6    -1282.9256242521666991    -8.34e-04  7.83e-05  2.61e-03  1.33e-03     6.6
               *** Restarting incremental Fock matrix formation ***
    7    -1282.9256317222018424    -7.47e-06  5.05e-05  1.62e-03  2.59e-04    16.2
    8    -1282.9256319482599338    -2.26e-07  2.25e-05  1.10e-03  2.91e-04     9.9
                 **** Energy Check signals convergence ****

               *****************************************************
               *                     SUCCESS                       *
               *           SCF CONVERGED AFTER   8 CYCLES          *
               *****************************************************

Recomputing exchange energy using gridx3       ... done (   27.852 sec)
Old exchange energy                            :    -27.696140055 Eh
New exchange energy                            :    -27.696133396 Eh
Exchange energy change after final integration :      0.000006659 Eh
Total energy after final integration           :  -1282.925625289 Eh
             **** ENERGY FILE WAS UPDATED (/home/nmrbox/aojoawo/Documents/ERDOS/inputs/CHEMBL122413.en.tmp) ****

----------------
TOTAL SCF ENERGY
----------------

Total Energy       :      -1282.92562528890107 Eh          -34910.18106 eV

Components:
Nuclear Repulsion  :       1410.81924558552168 Eh           38390.34340 eV
Electronic Energy  :      -2693.74487753378162 Eh          -73300.52464 eV
One Electron Energy:      -4554.38260533857920 Eh         -123931.05122 eV
Two Electron Energy:       1860.63772780479735 Eh           50630.52658 eV

Virial components:
Potential Energy   :      -2559.69702133036935 Eh          -69652.89704 eV
Kinetic Energy     :       1276.77139604146828 Eh           34742.71597 eV
Virial Ratio       :          2.00482014968891

DFT components:
N(Alpha)           :       74.999984541193 electrons
N(Beta)            :       74.999984541193 electrons
N(Total)           :      149.999969082387 electrons
E(X)               :     -110.011769064422 Eh       
E(C)               :       -6.145372609785 Eh       
E(XC)              :     -116.157141674207 Eh       

---------------
SCF CONVERGENCE
---------------

  Last Energy change         ...    2.2606e-07  Tolerance :   1.0000e-06
  Last MAX-Density change    ...    1.0959e-03  Tolerance :   1.0000e-05
  Last RMS-Density change    ...    2.2524e-05  Tolerance :   1.0000e-06
  Last DIIS Error            ...    1.3317e-03  Tolerance :   1.0000e-06
  Last Orbital Gradient      ...    2.9050e-04  Tolerance :   5.0000e-05
  Last Orbital Rotation      ...    7.3033e-04  Tolerance :   5.0000e-05


----------------
ORBITAL ENERGIES
----------------

  NO   OCC          E(Eh)            E(eV) 
   0   2.0000    -101.535176     -2762.9126 
   1   2.0000     -19.156757      -521.2819 
   2   2.0000     -19.109204      -519.9879 
   3   2.0000     -14.365856      -390.9148 
   4   2.0000     -10.292412      -280.0708 
   5   2.0000     -10.256289      -279.0878 
   6   2.0000     -10.240080      -278.6467 
   7   2.0000     -10.231825      -278.4221 
   8   2.0000     -10.228709      -278.3373 
   9   2.0000     -10.215860      -277.9877 
  10   2.0000     -10.213760      -277.9305 
  11   2.0000     -10.207642      -277.7641 
  12   2.0000     -10.207423      -277.7581 
  13   2.0000     -10.206920      -277.7444 
  14   2.0000     -10.206584      -277.7353 
  15   2.0000     -10.199146      -277.5329 
  16   2.0000     -10.182055      -277.0678 
  17   2.0000     -10.174583      -276.8645 
  18   2.0000     -10.172282      -276.8019 
  19   2.0000     -10.170791      -276.7613 
  20   2.0000      -9.467064      -257.6119 
  21   2.0000      -7.230096      -196.7409 
  22   2.0000      -7.220698      -196.4852 
  23   2.0000      -7.220317      -196.4748 
  24   2.0000      -1.035010       -28.1640 
  25   2.0000      -1.011109       -27.5137 
  26   2.0000      -0.913462       -24.8566 
  27   2.0000      -0.898039       -24.4369 
  28   2.0000      -0.854136       -23.2422 
  29   2.0000      -0.834842       -22.7172 
  30   2.0000      -0.803889       -21.8749 
  31   2.0000      -0.767640       -20.8885 
  32   2.0000      -0.747928       -20.3522 
  33   2.0000      -0.744620       -20.2621 
  34   2.0000      -0.724733       -19.7210 
  35   2.0000      -0.684615       -18.6293 
  36   2.0000      -0.650450       -17.6996 
  37   2.0000      -0.633161       -17.2292 
  38   2.0000      -0.612802       -16.6752 
  39   2.0000      -0.594136       -16.1672 
  40   2.0000      -0.587987       -16.0000 
  41   2.0000      -0.559631       -15.2283 
  42   2.0000      -0.533593       -14.5198 
  43   2.0000      -0.523775       -14.2527 
  44   2.0000      -0.508153       -13.8276 
  45   2.0000      -0.483276       -13.1506 
  46   2.0000      -0.479516       -13.0483 
  47   2.0000      -0.473880       -12.8949 
  48   2.0000      -0.464274       -12.6335 
  49   2.0000      -0.459149       -12.4941 
  50   2.0000      -0.453479       -12.3398 
  51   2.0000      -0.447054       -12.1649 
  52   2.0000      -0.441345       -12.0096 
  53   2.0000      -0.425196       -11.5702 
  54   2.0000      -0.415101       -11.2955 
  55   2.0000      -0.407551       -11.0900 
  56   2.0000      -0.404438       -11.0053 
  57   2.0000      -0.397819       -10.8252 
  58   2.0000      -0.388341       -10.5673 
  59   2.0000      -0.371782       -10.1167 
  60   2.0000      -0.370280       -10.0758 
  61   2.0000      -0.368219       -10.0198 
  62   2.0000      -0.364595        -9.9211 
  63   2.0000      -0.361958        -9.8494 
  64   2.0000      -0.349490        -9.5101 
  65   2.0000      -0.319509        -8.6943 
  66   2.0000      -0.318275        -8.6607 
  67   2.0000      -0.308282        -8.3888 
  68   2.0000      -0.296327        -8.0635 
  69   2.0000      -0.281765        -7.6672 
  70   2.0000      -0.271276        -7.3818 
  71   2.0000      -0.248059        -6.7500 
  72   2.0000      -0.236416        -6.4332 
  73   2.0000      -0.217977        -5.9315 
  74   2.0000      -0.207315        -5.6413 
  75   0.0000      -0.069509        -1.8914 
  76   0.0000      -0.022631        -0.6158 
  77   0.0000      -0.003499        -0.0952 
  78   0.0000       0.012220         0.3325 
  79   0.0000       0.023223         0.6319 
  80   0.0000       0.024896         0.6775 
  81   0.0000       0.068505         1.8641 
  82   0.0000       0.078875         2.1463 
  83   0.0000       0.093717         2.5502 
  84   0.0000       0.104885         2.8541 
  85   0.0000       0.109647         2.9836 
*Only the first 10 virtual orbitals were printed.

                    ********************************
                    * MULLIKEN POPULATION ANALYSIS *
                    ********************************

-----------------------
MULLIKEN ATOMIC CHARGES
-----------------------
   0 C :   -0.192810
   1 O :   -0.512348
   2 C :    0.365492
   3 C :   -0.208816
   4 C :   -0.126090
   5 C :   -0.196427
   6 C :    0.359295
   7 N :   -0.725054
   8 C :    0.545662
   9 O :   -0.466476
  10 C :   -0.181085
  11 C :   -0.160716
  12 C :    0.146094
  13 C :   -0.171596
  14 C :   -0.133880
  15 C :   -0.060462
  16 Cl:   -0.009328
  17 C :   -0.134276
  18 C :   -0.161240
  19 C :   -0.196928
  20 H :    0.168158
  21 H :    0.146963
  22 H :    0.143789
  23 H :    0.125829
  24 H :    0.130204
  25 H :    0.114460
  26 H :    0.325315
  27 H :    0.162375
  28 H :    0.141365
  29 H :    0.139867
  30 H :    0.156354
  31 H :    0.159027
  32 H :    0.151200
  33 H :    0.156084
Sum of atomic charges:   -0.0000000

--------------------------------
MULLIKEN REDUCED ORBITAL CHARGES
--------------------------------
  0 C s       :     3.253608  s :     3.253608
      pz      :     1.068050  p :     2.880151
      px      :     0.720725
      py      :     1.091376
      dz2     :     0.006390  d :     0.059052
      dxz     :     0.016603
      dyz     :     0.009505
      dx2y2   :     0.016915
      dxy     :     0.009640

  1 O s       :     3.867765  s :     3.867765
      pz      :     1.691076  p :     4.618278
      px      :     1.326216
      py      :     1.600987
      dz2     :     0.004278  d :     0.026304
      dxz     :     0.003950
      dyz     :     0.005318
      dx2y2   :     0.007932
      dxy     :     0.004826

  2 C s       :     3.081994  s :     3.081994
      pz      :     0.882197  p :     2.485685
      px      :     0.831580
      py      :     0.771909
      dz2     :     0.010335  d :     0.066828
      dxz     :     0.011403
      dyz     :     0.011536
      dx2y2   :     0.016535
      dxy     :     0.017019

  3 C s       :     3.176350  s :     3.176350
      pz      :     1.048274  p :     2.998318
      px      :     0.962599
      py      :     0.987445
      dz2     :     0.005423  d :     0.034148
      dxz     :     0.004361
      dyz     :     0.005348
      dx2y2   :     0.011565
      dxy     :     0.007450

  4 C s       :     3.189468  s :     3.189468
      pz      :     0.978158  p :     2.899425
      px      :     0.947637
      py      :     0.973629
      dz2     :     0.004608  d :     0.037198
      dxz     :     0.007519
      dyz     :     0.004788
      dx2y2   :     0.008621
      dxy     :     0.011662

  5 C s       :     3.174891  s :     3.174891
      pz      :     1.029836  p :     2.986761
      px      :     0.978816
      py      :     0.978109
      dz2     :     0.002944  d :     0.034775
      dxz     :     0.007375
      dyz     :     0.005518
      dx2y2   :     0.008041
      dxy     :     0.010898

  6 C s       :     3.060990  s :     3.060990
      pz      :     0.917464  p :     2.524431
      px      :     0.700314
      py      :     0.906653
      dz2     :     0.007780  d :     0.055284
      dxz     :     0.014128
      dyz     :     0.006048
      dx2y2   :     0.016393
      dxy     :     0.010936

  7 N s       :     3.644259  s :     3.644259
      pz      :     1.695223  p :     4.051488
      px      :     1.181145
      py      :     1.175120
      dz2     :     0.003491  d :     0.029307
      dxz     :     0.004457
      dyz     :     0.002506
      dx2y2   :     0.007745
      dxy     :     0.011108

  8 C s       :     3.010702  s :     3.010702
      pz      :     0.817571  p :     2.343900
      px      :     0.821304
      py      :     0.705024
      dz2     :     0.007529  d :     0.099736
      dxz     :     0.009438
      dyz     :     0.020326
      dx2y2   :     0.033012
      dxy     :     0.029431

  9 O s       :     3.892354  s :     3.892354
      pz      :     1.377755  p :     4.548365
      px      :     1.718811
      py      :     1.451800
      dz2     :     0.003462  d :     0.025757
      dxz     :     0.002321
      dyz     :     0.007177
      dx2y2   :     0.006144
      dxy     :     0.006654

 10 C s       :     3.235916  s :     3.235916
      pz      :     0.981274  p :     2.911613
      px      :     0.956967
      py      :     0.973372
      dz2     :     0.004394  d :     0.033556
      dxz     :     0.004859
      dyz     :     0.004551
      dx2y2   :     0.009991
      dxy     :     0.009761

 11 C s       :     3.202544  s :     3.202544
      pz      :     0.953828  p :     2.921681
      px      :     0.980891
      py      :     0.986963
      dz2     :     0.005034  d :     0.036490
      dxz     :     0.006456
      dyz     :     0.004139
      dx2y2   :     0.009626
      dxy     :     0.011235

 12 C s       :     3.130397  s :     3.130397
      pz      :     0.975037  p :     2.683046
      px      :     0.879789
      py      :     0.828220
      dz2     :     0.003466  d :     0.040463
      dxz     :     0.005365
      dyz     :     0.006284
      dx2y2   :     0.012883
      dxy     :     0.012465

 13 C s       :     3.202486  s :     3.202486
      pz      :     0.992008  p :     2.933115
      px      :     0.966727
      py      :     0.974380
      dz2     :     0.003924  d :     0.035995
      dxz     :     0.005146
      dyz     :     0.003314
      dx2y2   :     0.010425
      dxy     :     0.013186

 14 C s       :     3.194537  s :     3.194537
      pz      :     0.991350  p :     2.903988
      px      :     0.939526
      py      :     0.973113
      dz2     :     0.003491  d :     0.035355
      dxz     :     0.005397
      dyz     :     0.003677
      dx2y2   :     0.010125
      dxy     :     0.012665

 15 C s       :     3.176541  s :     3.176541
      pz      :     1.028024  p :     2.835136
      px      :     0.803994
      py      :     1.003118
      dz2     :     0.003946  d :     0.048786
      dxz     :     0.007389
      dyz     :     0.006878
      dx2y2   :     0.016140
      dxy     :     0.014433

 16 Cls       :     5.925801  s :     5.925801
      pz      :     3.902345  p :    11.054057
      px      :     3.199403
      py      :     3.952309
      dz2     :     0.004320  d :     0.029471
      dxz     :     0.007705
      dyz     :     0.000200
      dx2y2   :     0.013294
      dxy     :     0.003951

 17 C s       :     3.195754  s :     3.195754
      pz      :     0.986731  p :     2.903070
      px      :     0.951046
      py      :     0.965293
      dz2     :     0.003936  d :     0.035451
      dxz     :     0.004885
      dyz     :     0.003674
      dx2y2   :     0.009557
      dxy     :     0.013399

 18 C s       :     3.200796  s :     3.200796
      pz      :     0.983400  p :     2.924755
      px      :     0.954833
      py      :     0.986523
      dz2     :     0.003537  d :     0.035689
      dxz     :     0.005397
      dyz     :     0.003188
      dx2y2   :     0.011391
      dxy     :     0.012176

 19 C s       :     3.189380  s :     3.189380
      pz      :     1.010386  p :     2.974703
      px      :     0.962135
      py      :     1.002181
      dz2     :     0.004047  d :     0.032846
      dxz     :     0.006512
      dyz     :     0.005207
      dx2y2   :     0.007979
      dxy     :     0.009101

 20 H s       :     0.831842  s :     0.831842

 21 H s       :     0.853037  s :     0.853037

 22 H s       :     0.856211  s :     0.856211

 23 H s       :     0.874171  s :     0.874171

 24 H s       :     0.869796  s :     0.869796

 25 H s       :     0.885540  s :     0.885540

 26 H s       :     0.674685  s :     0.674685

 27 H s       :     0.837625  s :     0.837625

 28 H s       :     0.858635  s :     0.858635

 29 H s       :     0.860133  s :     0.860133

 30 H s       :     0.843646  s :     0.843646

 31 H s       :     0.840973  s :     0.840973

 32 H s       :     0.848800  s :     0.848800

 33 H s       :     0.843916  s :     0.843916



                     *******************************
                     * LOEWDIN POPULATION ANALYSIS *
                     *******************************

----------------------
LOEWDIN ATOMIC CHARGES
----------------------
   0 C :   -0.198465
   1 O :   -0.192849
   2 C :    0.094324
   3 C :   -0.186797
   4 C :   -0.119477
   5 C :   -0.173268
   6 C :    0.047761
   7 N :   -0.219713
   8 C :    0.135030
   9 O :   -0.262397
  10 C :   -0.150673
  11 C :   -0.100681
  12 C :   -0.022983
  13 C :   -0.116523
  14 C :   -0.130139
  15 C :   -0.082970
  16 Cl:    0.043125
  17 C :   -0.127782
  18 C :   -0.111713
  19 C :   -0.152417
  20 H :    0.134879
  21 H :    0.116218
  22 H :    0.114532
  23 H :    0.132601
  24 H :    0.133383
  25 H :    0.125892
  26 H :    0.255033
  27 H :    0.152409
  28 H :    0.135537
  29 H :    0.137901
  30 H :    0.146567
  31 H :    0.147787
  32 H :    0.143302
  33 H :    0.152569

-------------------------------
LOEWDIN REDUCED ORBITAL CHARGES
-------------------------------
  0 C s       :     2.981753  s :     2.981753
      pz      :     1.123199  p :     3.098766
      px      :     0.836761
      py      :     1.138806
      dz2     :     0.012037  d :     0.117947
      dxz     :     0.033474
      dyz     :     0.017423
      dx2y2   :     0.035111
      dxy     :     0.019902

  1 O s       :     3.464873  s :     3.464873
      pz      :     1.684622  p :     4.667128
      px      :     1.378751
      py      :     1.603755
      dz2     :     0.008621  d :     0.060848
      dxz     :     0.010774
      dyz     :     0.009969
      dx2y2   :     0.018569
      dxy     :     0.012914

  2 C s       :     2.859310  s :     2.859310
      pz      :     0.930071  p :     2.888562
      px      :     1.029247
      py      :     0.929244
      dz2     :     0.021441  d :     0.157804
      dxz     :     0.026217
      dyz     :     0.027125
      dx2y2   :     0.041278
      dxy     :     0.041743

  3 C s       :     2.915007  s :     2.915007
      pz      :     1.063876  p :     3.190603
      px      :     1.069429
      py      :     1.057298
      dz2     :     0.010727  d :     0.081187
      dxz     :     0.009896
      dyz     :     0.014171
      dx2y2   :     0.026455
      dxy     :     0.019938

  4 C s       :     2.913907  s :     2.913907
      pz      :     1.003688  p :     3.117898
      px      :     1.067412
      py      :     1.046798
      dz2     :     0.009658  d :     0.087672
      dxz     :     0.017930
      dyz     :     0.009842
      dx2y2   :     0.022710
      dxy     :     0.027532

  5 C s       :     2.911701  s :     2.911701
      pz      :     1.054518  p :     3.179271
      px      :     1.065950
      py      :     1.058803
      dz2     :     0.006433  d :     0.082296
      dxz     :     0.016583
      dyz     :     0.010311
      dx2y2   :     0.021786
      dxy     :     0.027183

  6 C s       :     2.854598  s :     2.854598
      pz      :     0.990959  p :     2.964602
      px      :     0.917088
      py      :     1.056555
      dz2     :     0.016803  d :     0.133039
      dxz     :     0.031585
      dyz     :     0.014536
      dx2y2   :     0.041634
      dxy     :     0.028481

  7 N s       :     3.148543  s :     3.148543
      pz      :     1.642268  p :     4.002442
      px      :     1.175549
      py      :     1.184625
      dz2     :     0.005419  d :     0.068729
      dxz     :     0.009098
      dyz     :     0.005127
      dx2y2   :     0.021027
      dxy     :     0.028058

  8 C s       :     2.863644  s :     2.863644
      pz      :     0.836383  p :     2.769412
      px      :     0.990212
      py      :     0.942816
      dz2     :     0.016906  d :     0.231914
      dxz     :     0.019492
      dyz     :     0.043081
      dx2y2   :     0.080676
      dxy     :     0.071759

  9 O s       :     3.590424  s :     3.590424
      pz      :     1.380166  p :     4.621766
      px      :     1.722741
      py      :     1.518859
      dz2     :     0.006576  d :     0.050206
      dxz     :     0.003957
      dyz     :     0.012111
      dx2y2   :     0.012511
      dxy     :     0.015052

 10 C s       :     2.934843  s :     2.934843
      pz      :     1.019414  p :     3.134190
      px      :     1.035471
      py      :     1.079306
      dz2     :     0.008670  d :     0.081640
      dxz     :     0.012209
      dyz     :     0.010583
      dx2y2   :     0.026275
      dxy     :     0.023904

 11 C s       :     2.927759  s :     2.927759
      pz      :     0.980671  p :     3.088135
      px      :     1.039196
      py      :     1.068267
      dz2     :     0.009367  d :     0.084788
      dxz     :     0.014951
      dyz     :     0.009677
      dx2y2   :     0.024635
      dxy     :     0.026157

 12 C s       :     2.870821  s :     2.870821
      pz      :     0.967706  p :     3.050880
      px      :     1.021215
      py      :     1.061959
      dz2     :     0.007209  d :     0.101281
      dxz     :     0.010660
      dyz     :     0.013789
      dx2y2   :     0.036100
      dxy     :     0.033523

 13 C s       :     2.917834  s :     2.917834
      pz      :     0.985239  p :     3.114879
      px      :     1.062800
      py      :     1.066839
      dz2     :     0.007014  d :     0.083810
      dxz     :     0.011244
      dyz     :     0.006633
      dx2y2   :     0.027064
      dxy     :     0.031857

 14 C s       :     2.919189  s :     2.919189
      pz      :     0.993273  p :     3.126773
      px      :     1.065686
      py      :     1.067814
      dz2     :     0.006633  d :     0.084176
      dxz     :     0.011789
      dyz     :     0.007034
      dx2y2   :     0.026399
      dxy     :     0.032322

 15 C s       :     2.915096  s :     2.915096
      pz      :     1.017171  p :     3.053907
      px      :     0.926747
      py      :     1.109989
      dz2     :     0.007892  d :     0.113967
      dxz     :     0.014031
      dyz     :     0.014675
      dx2y2   :     0.040411
      dxy     :     0.036957

 16 Cls       :     5.800942  s :     5.800942
      pz      :     3.897424  p :    11.123249
      px      :     3.281480
      py      :     3.944345
      dz2     :     0.004828  d :     0.032684
      dxz     :     0.008295
      dyz     :     0.000195
      dx2y2   :     0.015434
      dxy     :     0.003932

 17 C s       :     2.919409  s :     2.919409
      pz      :     0.989932  p :     3.124117
      px      :     1.068560
      py      :     1.065625
      dz2     :     0.007297  d :     0.084256
      dxz     :     0.010694
      dyz     :     0.007586
      dx2y2   :     0.025330
      dxy     :     0.033350

 18 C s       :     2.917478  s :     2.917478
      pz      :     0.981754  p :     3.111450
      px      :     1.057464
      py      :     1.072232
      dz2     :     0.006367  d :     0.082785
      dxz     :     0.011540
      dyz     :     0.005913
      dx2y2   :     0.028890
      dxy     :     0.030076

 19 C s       :     2.914678  s :     2.914678
      pz      :     1.043277  p :     3.160578
      px      :     1.048660
      py      :     1.068641
      dz2     :     0.008391  d :     0.077162
      dxz     :     0.015153
      dyz     :     0.010424
      dx2y2   :     0.021217
      dxy     :     0.021978

 20 H s       :     0.865121  s :     0.865121

 21 H s       :     0.883782  s :     0.883782

 22 H s       :     0.885468  s :     0.885468

 23 H s       :     0.867399  s :     0.867399

 24 H s       :     0.866617  s :     0.866617

 25 H s       :     0.874108  s :     0.874108

 26 H s       :     0.744967  s :     0.744967

 27 H s       :     0.847591  s :     0.847591

 28 H s       :     0.864463  s :     0.864463

 29 H s       :     0.862099  s :     0.862099

 30 H s       :     0.853433  s :     0.853433

 31 H s       :     0.852213  s :     0.852213

 32 H s       :     0.856698  s :     0.856698

 33 H s       :     0.847431  s :     0.847431



                      *****************************
                      * MAYER POPULATION ANALYSIS *
                      *****************************

  NA   - Mulliken gross atomic population
  ZA   - Total nuclear charge
  QA   - Mulliken gross atomic charge
  VA   - Mayer's total valence
  BVA  - Mayer's bonded valence
  FA   - Mayer's free valence

  ATOM       NA         ZA         QA         VA         BVA        FA
  0 C      6.1928     6.0000    -0.1928     3.7735     3.7735     0.0000
  1 O      8.5123     8.0000    -0.5123     1.9697     1.9697     0.0000
  2 C      5.6345     6.0000     0.3655     3.8447     3.8447     0.0000
  3 C      6.2088     6.0000    -0.2088     3.8828     3.8828    -0.0000
  4 C      6.1261     6.0000    -0.1261     3.9747     3.9747    -0.0000
  5 C      6.1964     6.0000    -0.1964     3.9155     3.9155    -0.0000
  6 C      5.6407     6.0000     0.3593     3.8608     3.8608     0.0000
  7 N      7.7251     7.0000    -0.7251     2.8717     2.8717    -0.0000
  8 C      5.4543     6.0000     0.5457     3.9277     3.9277     0.0000
  9 O      8.4665     8.0000    -0.4665     2.0382     2.0382     0.0000
 10 C      6.1811     6.0000    -0.1811     3.8577     3.8577     0.0000
 11 C      6.1607     6.0000    -0.1607     3.8587     3.8587     0.0000
 12 C      5.8539     6.0000     0.1461     3.9852     3.9852    -0.0000
 13 C      6.1716     6.0000    -0.1716     3.9195     3.9195    -0.0000
 14 C      6.1339     6.0000    -0.1339     3.9208     3.9208     0.0000
 15 C      6.0605     6.0000    -0.0605     3.9612     3.9612     0.0000
 16 Cl    17.0093    17.0000    -0.0093     1.1025     1.1025     0.0000
 17 C      6.1343     6.0000    -0.1343     3.9178     3.9178    -0.0000
 18 C      6.1612     6.0000    -0.1612     3.9151     3.9151    -0.0000
 19 C      6.1969     6.0000    -0.1969     3.8814     3.8814    -0.0000
 20 H      0.8318     1.0000     0.1682     0.9314     0.9314    -0.0000
 21 H      0.8530     1.0000     0.1470     0.9303     0.9303     0.0000
 22 H      0.8562     1.0000     0.1438     0.9308     0.9308     0.0000
 23 H      0.8742     1.0000     0.1258     0.9426     0.9426    -0.0000
 24 H      0.8698     1.0000     0.1302     0.9378     0.9378    -0.0000
 25 H      0.8855     1.0000     0.1145     0.9402     0.9402    -0.0000
 26 H      0.6747     1.0000     0.3253     0.8704     0.8704    -0.0000
 27 H      0.8376     1.0000     0.1624     0.9412     0.9412     0.0000
 28 H      0.8586     1.0000     0.1414     0.9428     0.9428    -0.0000
 29 H      0.8601     1.0000     0.1399     0.9366     0.9366    -0.0000
 30 H      0.8436     1.0000     0.1564     0.9364     0.9364     0.0000
 31 H      0.8410     1.0000     0.1590     0.9360     0.9360    -0.0000
 32 H      0.8488     1.0000     0.1512     0.9372     0.9372     0.0000
 33 H      0.8439     1.0000     0.1561     0.9472     0.9472    -0.0000

  Mayer bond orders larger than 0.100000
B(  0-C ,  1-O ) :   0.9223 B(  0-C , 20-H ) :   0.9453 B(  0-C , 21-H ) :   0.9307 
B(  0-C , 22-H ) :   0.9309 B(  1-O ,  2-C ) :   0.9155 B(  2-C ,  3-C ) :   1.3598 
B(  2-C , 19-C ) :   1.3938 B(  3-C ,  4-C ) :   1.4415 B(  3-C , 23-H ) :   0.9198 
B(  4-C ,  5-C ) :   1.4560 B(  4-C , 24-H ) :   0.9292 B(  5-C ,  6-C ) :   1.3945 
B(  5-C , 25-H ) :   0.9252 B(  6-C ,  7-N ) :   0.8764 B(  6-C , 19-C ) :   1.4125 
B(  7-N ,  8-C ) :   1.0015 B(  7-N , 26-H ) :   0.8253 B(  8-C ,  9-O ) :   1.7770 
B(  8-C , 10-C ) :   1.0618 B( 10-C , 11-C ) :   1.7379 B( 10-C , 27-H ) :   0.9159 
B( 11-C , 12-C ) :   1.0639 B( 11-C , 28-H ) :   0.9135 B( 12-C , 13-C ) :   1.3825 
B( 12-C , 18-C ) :   1.3929 B( 13-C , 14-C ) :   1.4410 B( 13-C , 29-H ) :   0.9245 
B( 14-C , 15-C ) :   1.4153 B( 14-C , 30-H ) :   0.9225 B( 15-C , 16-Cl) :   1.0207 
B( 15-C , 17-C ) :   1.4027 B( 17-C , 18-C ) :   1.4526 B( 17-C , 31-H ) :   0.9219 
B( 18-C , 32-H ) :   0.9160 B( 19-C , 33-H ) :   0.9034 

-------
TIMINGS
-------

Total SCF time: 0 days 0 hours 1 min 50 sec 

Total time                  ....     110.381 sec
Sum of individual times     ....     110.060 sec  ( 99.7%)

SCF preparation             ....       0.212 sec  (  0.2%)
Fock matrix formation       ....     108.965 sec  ( 98.7%)
  Startup                   ....       0.056 sec  (  0.1% of F)
  Split-RI-J                ....      12.562 sec  ( 11.5% of F)
  Chain of spheres X        ....      84.492 sec  ( 77.5% of F)
  XC integration            ....      11.424 sec  ( 10.5% of F)
    Basis function eval.    ....       4.126 sec  ( 36.1% of XC)
    Density eval.           ....       2.325 sec  ( 20.4% of XC)
    XC-Functional eval.     ....       0.632 sec  (  5.5% of XC)
    XC-Potential eval.      ....       3.429 sec  ( 30.0% of XC)
Diagonalization             ....       0.000 sec  (  0.0%)
Density matrix formation    ....       0.154 sec  (  0.1%)
Total Energy calculation    ....       0.043 sec  (  0.0%)
Population analysis         ....       0.039 sec  (  0.0%)
Orbital Transformation      ....       0.121 sec  (  0.1%)
Orbital Orthonormalization  ....       0.000 sec  (  0.0%)
DIIS solution               ....       0.421 sec  (  0.4%)
SOSCF solution              ....       0.105 sec  (  0.1%)
Finished LeanSCF after 110.4 sec

Maximum memory used throughout the entire LEANSCF-calculation: 42.7 MB

-------------------------   --------------------
FINAL SINGLE POINT ENERGY     -1282.925625288901
-------------------------   --------------------


------------------------------------------------------------------------------
                              ORCA PROPERTY CALCULATIONS
------------------------------------------------------------------------------

GBWName                                 ... /home/nmrbox/aojoawo/Documents/ERDOS/inputs/CHEMBL122413.gbw
Number of atoms                         ...     34
Number of basis functions               ...    312
Max core memory                         ...   1024 MB

Electric properties:
Dipole moment                           ... YES
Quadrupole moment                       ...  NO
Static polarizability (Dipole/Dipole)   ...  NO
Static polarizability (Dipole/Quad.)    ...  NO
Static polarizability (Quad./Quad.)     ...  NO
Static polarizability (Velocity)        ...  NO

Atomic electric properties:
Dipole moment                           ...  NO
Quadrupole moment                       ...  NO
Static polarizability                   ...  NO

Choice of electric origin               ... Center of mass
Position of electric origin             ...     1.864947     0.084679     0.098175

General magnetic properties:
Magnetizability                         ...  NO

EPR properties:
g-Tensor (aka g-matrix)                 ...  NO
Zero-Field splitting spin-orbit         ...  NO
Zero-field splitting spin-spin          ...  NO
Hyperfine couplings                     ...  NO (   0 nuclei)
Quadrupole couplings                    ...  NO (   0 nuclei)
Contact density                         ...  NO (   0 nuclei)

NMR properties:
Chemical shifts                         ...  NO (   0 nuclei)
Spin-rotation constants                 ...  NO (   0 nuclei)
Spin-spin couplings                     ...  NO (   0 nuclei,    0 pairs)

Choice of magnetic origin               ... GIAO
Position of magnetic origin             ...     0.000000     0.000000     0.000000

Properties with geometric perturbations:
SCF Hessian                             ...  NO
IR spectrum                             ...  NO
VCD spectrum                            ...  NO
X-ray spectroscopy properties:
SCF XES/XAS/RIXS spectra                ...  NO


-------------
DIPOLE MOMENT
-------------

Method             : SCF
Type of density    : Electron Density
Multiplicity       :   1
Irrep              :   0
Energy             : -1282.9256252889010739 Eh
Relativity type    : 
Basis              : AO
                                X                 Y                 Z
Electronic contribution:     32.245605806      -0.496510990      -1.098701488
Nuclear contribution   :    -32.425609034      -0.762970055       0.776489741
                        -----------------------------------------
Total Dipole Moment    :     -0.180003228      -1.259481045      -0.322211747
                        -----------------------------------------
Magnitude (a.u.)       :      1.312445837
Magnitude (Debye)      :      3.335972205



--------------------
Rotational spectrum 
--------------------
 
Rotational constants in cm-1:             0.034176             0.002648             0.002575 
Rotational constants in MHz :          1024.570987            79.394325            77.189941 

Dipole components along the rotational axes: 
x,y,z [a.u.] :     0.085817     1.111605     0.692448 
x,y,z [Debye]:     0.218129     2.825475     1.760063 

 

Dipole moment calculation done in   0.0 sec 

Maximum memory used throughout the entire PROP-calculation: 20.0 MB

--------------------------------
SUGGESTED CITATIONS FOR THIS RUN
--------------------------------

Below you find a list of papers that are relevant to this ORCA run
We neither can nor want to force you to cite these papers, but we appreciate if you do
You receive ORCA, which is the product of decades of hard work by many enthusiastic individuals, for free
The only thing we kindly ask in return is that you cite our papers,
We deeply appreciate it, if you show your appreciation for ORCA by not just citing the generic ORCA reference.

Please note that relegating all ORCA citations to the supporting information does *not* help us.
SI sections are not indexed - citations you put there will not count into any citation statistics
But we need these citations in order to attract the funding resources that allow us to do what we are doing

Therefore, if you are a happy ORCA user, please consider citing a few of the papers listed below in the main body of your paper

In addition to the list printed below, the program has created the file /home/nmrbox/aojoawo/Documents/ERDOS/inputs/CHEMBL122413.bibtex that contains the list in bibtex format
You can import this file easily into all common literature databanks and citation aid programs


List of essential papers. We consider these as the minimum necessary citations

  1. Neese,F.
     Software update: the ORCA program system, version 5.0
     WIRES Comput. Molec. Sci., 2022 12(1)e1606
     doi.org/10.1002/wcms.1606

List of papers to cite with high priority. The work reported in these papers was absolutely
necessary for this run to complete.
Our perspective: the developers of density functionals and basis sets usually get cited in chemistry papers
Good! But without the algorithms to do something with them, the functionals or basis sets would not do anything.
Hence, in our opinion, the algorithm design and method developments papers are equally worthy of getting cited

  1. Neese,F.
     An improvement of the resolution of the identity approximation for the formation of the Coulomb matrix
     J. Comp. Chem., 2003 24(14)1740-1747
     doi.org/10.1002/jcc.10318
  2. Neese,F.; Wennmohs,F.; Hansen,A.; Becker,U.
     Efficient, approximate and parallel Hartree-Fock and hybrid DFT calculations. A 'chain-of-spheres' algorithm for the Hartree-Fock exchange
     Chem. Phys., 2009 356(1-3)98-109
     doi.org/10.1016/j.chemphys.2008.10.036
  3. Helmich-Paris,B.; de Souza,B.; Neese,F.; Izsák,R.
     An improved chain of spheres for exchange algorithm
     J. Chem. Phys., 2021 155 104109
     doi.org/doi: 10.1063/5.0058766.
  4. Neese,F.
     The SHARK Integral Generation and Digestion System
     J. Comp. Chem., 2022  1-16
     doi.org/10.1002/jcc.26942

List of suggested additional citations. These are papers that are important in the 'surrounding' of 
of this run, or papers that preceded the highly important papers. If you like your results we are grateful for a citation.

  1. Izsak,R.; Neese,F.
     An overlap fitted chain of spheres exchange method
     J. Chem. Phys., 2011 135 144105
     doi.org/10.1063/1.3646921
  2. Izsak,R.; Hansen,A.; Neese,F.
     The resolution of identity and chain of spheres approximations for the LPNO-CCSD singles Fock term
     Molec. Phys., 2012 110 2413-2417
     doi.org/10.1080/00268976.2012.687466
  3. Neese,F.
     The ORCA program system
     WIRES Comput. Molec. Sci., 2012 2(1)73-78
     doi.org/10.1002/wcms.81
  4. Izsak,R.; Neese,F.; Klopper,W.
     Robust fitting techniques in the chain of spheres approximation to the Fock exchange: The role of the complementary space
     J. Chem. Phys., 2013 139 
     doi.org/10.1063/1.4819264
  5. Neese,F.
     Software update: the ORCA program system, version 4.0
     WIRES Comput. Molec. Sci., 2018 8(1)1-6
     doi.org/10.1002/wcms.1327
  6. Neese,F.; Wennmohs,F.; Becker,U.; Riplinger,C.
     The ORCA quantum chemistry program package
     J. Chem. Phys., 2020 152 Art. No. L224108
     doi.org/10.1063/5.0004608

List of optional additional citations

  1. Neese,F.
     Approximate second-order SCF convergence for spin unrestricted wavefunctions
     Chem. Phys. Lett., 2000 325(1-3)93-98
     doi.org/10.1016/s0009-2614(00)00662-x

Timings for individual modules:

Sum of individual times          ...      117.441 sec (=   1.957 min)
Startup calculation              ...        4.779 sec (=   0.080 min)   4.1 %
SCF iterations                   ...      112.518 sec (=   1.875 min)  95.8 %
Property calculations            ...        0.144 sec (=   0.002 min)   0.1 %
                             ****ORCA TERMINATED NORMALLY****
TOTAL RUN TIME: 0 days 0 hours 1 minutes 58 seconds 203 msec
