
                                 *****************
                                 * O   R   C   A *
                                 *****************

                                            #,                                       
                                            ###                                      
                                            ####                                     
                                            #####                                    
                                            ######                                   
                                           ########,                                 
                                     ,,################,,,,,                         
                               ,,#################################,,                 
                          ,,##########################################,,             
                       ,#########################################, ''#####,          
                    ,#############################################,,   '####,        
                  ,##################################################,,,,####,       
                ,###########''''           ''''###############################       
              ,#####''   ,,,,##########,,,,          '''####'''          '####       
            ,##' ,,,,###########################,,,                        '##       
           ' ,,###''''                  '''############,,,                           
         ,,##''                                '''############,,,,        ,,,,,,###''
      ,#''                                            '''#######################'''  
     '                                                          ''''####''''         
             ,#######,   #######,   ,#######,      ##                                
            ,#'     '#,  ##    ##  ,#'     '#,    #''#        ,####,   ,####,        
            ##       ##  ##   ,#'  ##            #'  '#       #'       #'  '#        
            ##       ##  #######   ##           ,######,      #####,   #    #        
            '#,     ,#'  ##    ##  '#,     ,#' ,#      #,     #,   #   #,  ,#        
             '#######'   ##     ##  '#######'  #'      '#     '####' # '####'        



                #########################################################
                #                        -***-                          #
                #          Department of theory and spectroscopy        #
                #                                                       #
                #                      Frank Neese                      #
                #                                                       #
                #     Directorship, Architecture, Infrastructure        #
                #                    SHARK, DRIVERS                     #
                #        Core code/Algorithms in most modules           #
                #                                                       #
                #        Max Planck Institute fuer Kohlenforschung      #
                #                Kaiser Wilhelm Platz 1                 #
                #                 D-45470 Muelheim/Ruhr                 #
                #                      Germany                          #
                #                                                       #
                #                  All rights reserved                  #
                #                        -***-                          #
                #########################################################


                         Program Version 6.0.0  -   RELEASE  -


 With contributions from (in alphabetic order):
   Daniel Aravena         : Magnetic Suceptibility
   Michael Atanasov       : Ab Initio Ligand Field Theory (pilot matlab implementation)
   Alexander A. Auer      : GIAO ZORA, VPT2 properties, NMR spectrum
   Ute Becker             : All parallelization in ORCA, NUMFREQ, NUMCALC
   Giovanni Bistoni       : ED, misc. LED, open-shell LED, HFLD
   Martin Brehm           : Molecular dynamics
   Dmytro Bykov           : pre 5.0 version of the SCF Hessian
   Marcos Casanova-Páez   : Triplet and SCS-CIS(D). UHF-(DLPNO)-IP/EA/STEOM-CCSD. UHF-CVS-IP/STEOM-CCSD
   Vijay G. Chilkuri      : MRCI spin determinant printing, contributions to CSF-ICE
   Pauline Colinet        : FMM embedding
   Dipayan Datta          : RHF DLPNO-CCSD density
   Achintya Kumar Dutta   : EOM-CC, STEOM-CC
   Nicolas Foglia         : Exact transition moments, OPA infrastructure, MCD improvements
   Dmitry Ganyushin       : Spin-Orbit,Spin-Spin,Magnetic field MRCI
   Miquel Garcia          : C-PCM and meta-GGA Hessian, CCSD/C-PCM, Gaussian charge scheme
   Tiago L. C. Gouveia    : GS-ROHF, GS-ROCIS
   Yang Guo               : DLPNO-NEVPT2, F12-NEVPT2, CIM, IAO-localization
   Andreas Hansen         : Spin unrestricted coupled pair/coupled cluster methods
   Ingolf Harden          : AUTO-CI MPn and infrastructure 
   Benjamin Helmich-Paris : MC-RPA, TRAH-(SCF,CASSCF), AVAS, COSX integrals, SCF dyn. polar.
   Lee Huntington         : MR-EOM, pCC
   Robert Izsak           : Overlap fitted RIJCOSX, COSX-SCS-MP3, EOM
   Riya Kayal             : Wick's Theorem for AUTO-CI, AUTO-CI UHF-CCSDT
   Emily Kempfer          : AUTO-CI, RHF CISDT and CCSDT
   Christian Kollmar      : KDIIS, OOCD, Brueckner-CCSD(T), CCSD density, CASPT2, CASPT2-K, improved NEVPT2
   Axel Koslowski         : Symmetry handling
   Simone Kossmann        : Meta GGA functionals, TD-DFT gradient, OOMP2, (MP2 Hessian; deprecated post 5.0)
   Lucas Lang             : DCDCAS
   Marvin Lechner         : AUTO-CI (C++ implementation), FIC-MRCC
   Spencer Leger          : CASSCF response
   Dagmar Lenk            : GEPOL surface, SMD, ORCA-2-JSON
   Dimitrios Liakos       : Extrapolation schemes; Compound Job, initial MDCI parallelization
   Dimitrios Manganas     : Further ROCIS development; embedding schemes. LFT, Crystal Embedding
   Dimitrios Pantazis     : SARC Basis sets
   Anastasios Papadopoulos: AUTO-CI, single reference methods and gradients
   Taras Petrenko         : pre 6.0 DFT Hessian and TD-DFT gradient, (ASA, deprecated), ECA, 1-Electron XAS/XES, NRVS
   Peter Pinski           : DLPNO-MP2, DLPNO-MP2 Gradient
   Christoph Reimann      : Effective Core Potentials
   Marius Retegan         : Local ZFS, SOC
   Christoph Riplinger    : Optimizer, TS searches, QM/MM, DLPNO-CCSD(T), (RO)-DLPNO pert. Triples
   Michael Roemelt        : Original ROCIS implementation
   Masaaki Saitow         : Open-shell DLPNO-CCSD energy and density
   Barbara Sandhoefer     : DKH picture change effects
   Kantharuban Sivalingam : CASSCF convergence/infrastructure, NEVPT2 and variants, FIC-MRCI
   Bernardo de Souza      : ESD, SOC TD-DFT
   Georgi Stoychev        : AutoAux, RI-MP2 NMR, DLPNO-MP2 response, X2C
   Van Anh Tran           : RI-MP2 g-tensors
   Willem Van den Heuvel  : Paramagnetic NMR
   Zikuan Wang            : NOTCH, Electric field optimization 
   Frank Wennmohs         : Technical directorship and infrastructure
   Hang Xu                : AUTO-CI-Response properties 


 We gratefully acknowledge several colleagues who have allowed us to
 interface, adapt or use parts of their codes:
   Stefan Grimme, W. Hujo, H. Kruse, P. Pracht,  : VdW corrections, initial TS optimization,
                  C. Bannwarth, S. Ehlert,         DFT functionals, gCP, sTDA/sTD-DF
                  L. Wittmann, M. Mueller
   Ed Valeev, F. Pavosevic, A. Kumar             : LibInt (2-el integral package), F12 methods
   Garnet Chan, S. Sharma, J. Yang, R. Olivares  : DMRG
   Ulf Ekstrom                                   : XCFun DFT Library
   Mihaly Kallay                                 : mrcc  (arbitrary order and MRCC methods)
   Frank Weinhold                                : gennbo (NPA and NBO analysis)
   Simon Mueller                                 : openCOSMO-RS
   Christopher J. Cramer and Donald G. Truhlar   : smd solvation model
   Lars Goerigk                                  : TD-DFT with DH, B97 family of functionals
   V. Asgeirsson, H. Jonsson                     : NEB implementation
   FAccTs GmbH                                   : IRC, NEB, NEB-TS, DLPNO-Multilevel, CI-OPT
                                                   MM, QMMM, 2- and 3-layer-ONIOM, Crystal-QMMM,
                                                   LR-CPCM, SF, NACMEs, symmetry and pop. for TD-DFT,
                                                   nearIR, NL-DFT gradient (VV10), updates on ESD,
                                                   ML-optimized integration grids, MBIS, APM,
                                                   GOAT, DOCKER, SOLVATOR, interface openCOSMO-RS
   S Lehtola, MJT Oliveira, MAL Marques          : LibXC Library
   Liviu Ungur et al                             : ANISO software


 Your calculation uses the libint2 library for the computation of 2-el integrals
 For citations please refer to: http://libint.valeyev.net

 Your ORCA version has been built with support for libXC version: 6.2.2
 For citations please refer to: https://libxc.gitlab.io

 This ORCA versions uses:
   CBLAS   interface :  Fast vector & matrix operations
   LAPACKE interface :  Fast linear algebra routines
   SCALAPACK package :  Parallel linear algebra routines
   Shared memory     :  Shared parallel matrices
   BLAS/LAPACK       :  OpenBLAS 0.3.27  USE64BITINT DYNAMIC_ARCH NO_AFFINITY SkylakeX SINGLE_THREADED
        Core in use  :  SkylakeX
   Copyright (c) 2011-2014, The OpenBLAS Project


Warning: RI is on but no J-basis has been assigned. Assigning Def2/J (nothing to worry about!)
================================================================================

----- Orbital basis set information -----
Your calculation utilizes the basis: 6-31G*
   H-He, Li-Ne : W. J. Hehre, R. Ditchfield and J.A. Pople, J. Chem. Phys. 56, 2257 (1972).
                 Note: He and Ne are unpublished basis sets taken from the Gaussian program.
                 Note: Li and B from J. D. Dill and J. A. Pople, J. Chem. Phys. 62, 2921 (1975).
   Na - Ar     : M. M. Francl, W. J. Pietro, W. J. Hehre, J. S. Binkley, M. S. Gordon, 
                 D. J. DeFrees and J. A. Pople, J. Chem. Phys. 77, 3654 (1982).
   K - Zn      : V. A. Rassolov, J. A. Pople, M. A. Ratner, and T. L. Windus, J. Chem. Phys. 109, 1223 (1998).

----- AuxJ basis set information -----
Your calculation utilizes the auxiliary basis: def2/J
   F. Weigend, Phys. Chem. Chem. Phys. 8, 1057 (2006).

================================================================================
                                        WARNINGS
                       Please study these warnings very carefully!
================================================================================


================================================================================
                                       INPUT FILE
================================================================================
NAME = /home/nmrbox/aojoawo/Documents/ERDOS/inputs/CHEMBL3931880.inp
|  1> ! B3LYP 6-31G* SP
|  2> 
|  3> * xyz 0 1
|  4> C -2.2397 -1.3033 -3.1797
|  5> C -3.0485 -0.8246 -2.0187
|  6> O -3.8977 0.1823 -2.0911
|  7> C -4.4114 0.3513 -0.8954
|  8> C -3.9012 -0.5483 -0.0097
|  9> C -3.0112 -1.3382 -0.7211
| 10> C -2.1120 -2.4298 -0.2118
| 11> C -0.7330 -1.8954 0.0313
| 12> O 0.1969 -2.2066 -0.7613
| 13> N -0.4859 -1.0213 1.1435
| 14> C 0.7805 -0.4051 1.4081
| 15> N 1.8803 -0.5712 0.6431
| 16> C 2.9469 0.1327 1.1164
| 17> C 4.2617 0.1026 0.4238
| 18> C 4.3519 -0.4088 -0.8795
| 19> C 5.5771 -0.4432 -1.5455
| 20> C 6.7443 0.0358 -0.9401
| 21> O 7.9175 -0.0197 -1.7156
| 22> C 9.0368 0.8618 -1.6530
| 23> F 9.9464 0.4130 -0.7145
| 24> F 8.6308 2.1516 -1.3577
| 25> F 9.6587 0.8707 -2.8863
| 26> C 6.6719 0.5198 0.3917
| 27> Cl 8.0756 1.0007 1.3352
| 28> C 5.4358 0.5534 1.0527
| 29> C 2.6798 0.8738 2.2733
| 30> S 1.0711 0.6254 2.6993
| 31> C -4.3118 -0.5221 1.3189
| 32> O -3.8707 -1.3703 2.1415
| 33> N -5.2113 0.4436 1.7098
| 34> C -5.6789 0.4874 3.1057
| 35> C -5.7299 1.3306 0.7823
| 36> O -6.5794 2.1935 1.1445
| 37> N -5.3323 1.2841 -0.5347
| 38> C -5.8464 2.2489 -1.5148
| 39> H -2.3801 -2.3960 -3.3138
| 40> H -2.5634 -0.7842 -4.1060
| 41> H -1.1662 -1.0863 -3.0016
| 42> H -2.0732 -3.2505 -0.9598
| 43> H -2.5101 -2.8706 0.7236
| 44> H -1.2733 -0.8079 1.7947
| 45> H 3.4717 -0.7746 -1.3935
| 46> H 5.6177 -0.8318 -2.5555
| 47> H 5.4088 0.9060 2.0745
| 48> H 3.3639 1.5198 2.8048
| 49> H -4.9039 0.1082 3.8055
| 50> H -6.5963 -0.1290 3.2101
| 51> H -5.9006 1.5291 3.4215
| 52> H -5.3712 3.2384 -1.3473
| 53> H -6.9483 2.3500 -1.4140
| 54> H -5.6385 1.9244 -2.5568
| 55> *
| 56> 
| 57>                          ****END OF INPUT****
================================================================================

                       ****************************
                       * Single Point Calculation *
                       ****************************

---------------------------------
CARTESIAN COORDINATES (ANGSTROEM)
---------------------------------
  C     -2.239700   -1.303300   -3.179700
  C     -3.048500   -0.824600   -2.018700
  O     -3.897700    0.182300   -2.091100
  C     -4.411400    0.351300   -0.895400
  C     -3.901200   -0.548300   -0.009700
  C     -3.011200   -1.338200   -0.721100
  C     -2.112000   -2.429800   -0.211800
  C     -0.733000   -1.895400    0.031300
  O      0.196900   -2.206600   -0.761300
  N     -0.485900   -1.021300    1.143500
  C      0.780500   -0.405100    1.408100
  N      1.880300   -0.571200    0.643100
  C      2.946900    0.132700    1.116400
  C      4.261700    0.102600    0.423800
  C      4.351900   -0.408800   -0.879500
  C      5.577100   -0.443200   -1.545500
  C      6.744300    0.035800   -0.940100
  O      7.917500   -0.019700   -1.715600
  C      9.036800    0.861800   -1.653000
  F      9.946400    0.413000   -0.714500
  F      8.630800    2.151600   -1.357700
  F      9.658700    0.870700   -2.886300
  C      6.671900    0.519800    0.391700
  Cl     8.075600    1.000700    1.335200
  C      5.435800    0.553400    1.052700
  C      2.679800    0.873800    2.273300
  S      1.071100    0.625400    2.699300
  C     -4.311800   -0.522100    1.318900
  O     -3.870700   -1.370300    2.141500
  N     -5.211300    0.443600    1.709800
  C     -5.678900    0.487400    3.105700
  C     -5.729900    1.330600    0.782300
  O     -6.579400    2.193500    1.144500
  N     -5.332300    1.284100   -0.534700
  C     -5.846400    2.248900   -1.514800
  H     -2.380100   -2.396000   -3.313800
  H     -2.563400   -0.784200   -4.106000
  H     -1.166200   -1.086300   -3.001600
  H     -2.073200   -3.250500   -0.959800
  H     -2.510100   -2.870600    0.723600
  H     -1.273300   -0.807900    1.794700
  H      3.471700   -0.774600   -1.393500
  H      5.617700   -0.831800   -2.555500
  H      5.408800    0.906000    2.074500
  H      3.363900    1.519800    2.804800
  H     -4.903900    0.108200    3.805500
  H     -6.596300   -0.129000    3.210100
  H     -5.900600    1.529100    3.421500
  H     -5.371200    3.238400   -1.347300
  H     -6.948300    2.350000   -1.414000
  H     -5.638500    1.924400   -2.556800

----------------------------
CARTESIAN COORDINATES (A.U.)
----------------------------
  NO LB      ZA    FRAG     MASS         X           Y           Z
   0 C     6.0000    0    12.011   -4.232420   -2.462880   -6.008762
   1 C     6.0000    0    12.011   -5.760830   -1.558268   -3.814790
   2 O     8.0000    0    15.999   -7.365586    0.344497   -3.951606
   3 C     6.0000    0    12.011   -8.336338    0.663861   -1.692061
   4 C     6.0000    0    12.011   -7.372200   -1.036137   -0.018330
   5 C     6.0000    0    12.011   -5.690343   -2.528832   -1.362682
   6 C     6.0000    0    12.011   -3.991102   -4.591657   -0.400244
   7 C     6.0000    0    12.011   -1.385169   -3.581787    0.059148
   8 O     8.0000    0    15.999    0.372087   -4.169870   -1.438649
   9 N     7.0000    0    14.007   -0.918218   -1.929977    2.160902
  10 C     6.0000    0    12.011    1.474931   -0.765528    2.660923
  11 N     7.0000    0    14.007    3.553252   -1.079412    1.215283
  12 C     6.0000    0    12.011    5.568834    0.250767    2.109690
  13 C     6.0000    0    12.011    8.053446    0.193886    0.800866
  14 C     6.0000    0    12.011    8.223899   -0.772520   -1.662014
  15 C     6.0000    0    12.011   10.539192   -0.837527   -2.920572
  16 C     6.0000    0    12.011   12.744880    0.067652   -1.776532
  17 O     8.0000    0    15.999   14.961907   -0.037228   -3.242014
  18 C     6.0000    0    12.011   17.077077    1.628566   -3.123717
  19 F     9.0000    0    18.998   18.795972    0.780457   -1.350209
  20 F     9.0000    0    18.998   16.309848    4.065935   -2.565681
  21 F     9.0000    0    18.998   18.252298    1.645385   -5.454317
  22 C     6.0000    0    12.011   12.608064    0.982280    0.740206
  23 Cl   17.0000    0    35.453   15.260672    1.891049    2.523162
  24 C     6.0000    0    12.011   10.272173    1.045774    1.989315
  25 C     6.0000    0    12.011    5.064088    1.651243    4.295914
  26 S    16.0000    0    32.060    2.024086    1.181835    5.100938
  27 C     6.0000    0    12.011   -8.148121   -0.986626    2.492360
  28 O     8.0000    0    15.999   -7.314563   -2.589492    4.046849
  29 N     7.0000    0    14.007   -9.847930    0.838283    3.231054
  30 C     6.0000    0    12.011  -10.731566    0.921053    5.868922
  31 C     6.0000    0    12.011  -10.827942    2.514470    1.478333
  32 O     8.0000    0    15.999  -12.433264    4.145114    2.162792
  33 N     7.0000    0    14.007  -10.076587    2.426597   -1.010437
  34 C     6.0000    0    12.011  -11.048095    4.249805   -2.862557
  35 H     1.0000    0     1.008   -4.497737   -4.527784   -6.262174
  36 H     1.0000    0     1.008   -4.844124   -1.481923   -7.759216
  37 H     1.0000    0     1.008   -2.203799   -2.052809   -5.672202
  38 H     1.0000    0     1.008   -3.917780   -6.142555   -1.813759
  39 H     1.0000    0     1.008   -4.743402   -5.424648    1.367406
  40 H     1.0000    0     1.008   -2.406188   -1.526710    3.391491
  41 H     1.0000    0     1.008    6.560562   -1.463782   -2.633333
  42 H     1.0000    0     1.008   10.615915   -1.571874   -4.829195
  43 H     1.0000    0     1.008   10.221151    1.712092    3.920237
  44 H     1.0000    0     1.008    6.356850    2.872006    5.300304
  45 H     1.0000    0     1.008   -9.267028    0.204468    7.191353
  46 H     1.0000    0     1.008  -12.465200   -0.243775    6.066210
  47 H     1.0000    0     1.008  -11.150518    2.889580    6.465698
  48 H     1.0000    0     1.008  -10.150097    6.119689   -2.546028
  49 H     1.0000    0     1.008  -13.130384    4.440856   -2.672073
  50 H     1.0000    0     1.008  -10.655221    3.636589   -4.831652

--------------------------------
INTERNAL COORDINATES (ANGSTROEM)
--------------------------------
 C      0   0   0     0.000000000000     0.00000000     0.00000000
 C      1   0   0     1.493730942975     0.00000000     0.00000000
 O      2   1   0     1.319177778012   123.40205934     0.00000000
 C      3   2   1     1.312306054242   107.47432552   181.27673429
 C      4   3   2     1.361634565513   111.15629993     0.12594362
 C      5   4   3     1.386409741022   106.45016978   359.53106401
 C      6   5   4     1.503175867954   128.60178426   175.94514676
 C      7   6   5     1.498773488557   110.26850184   263.09501968
 O      8   7   6     1.260862486554   119.24913487   253.08295781
 N      8   7   6     1.436000717270   120.06537003    72.04761594
 C     10   8   7     1.432998450802   123.83680490   183.63244635
 N     11  10   8     1.349953425123   124.22425405     0.23689333
 C     12  11  10     1.362763244294   112.16479183   179.70048390
 C     13  12  11     1.486371356694   121.33467356   180.37125193
 C     14  13  12     1.402945790115   119.80996344    13.99446091
 C     15  14  13     1.394938851706   120.59649466   179.91276225
 C     16  15  14     1.399394869220   121.17098529   359.61825918
 O     17  16  15     1.407436939973   116.32049476   181.41719140
 C     18  17  16     1.426111321041   127.27762786   149.83674407
 F     19  18  17     1.381874035504   110.22375900    88.30437945
 F     19  18  17     1.384060016762   110.80279952   325.62548035
 F     19  18  17     1.381255845237   108.55211686   206.63155727
 C     17  16  15     1.418868915721   118.70299014     2.15709848
 Cl    23  17  16     1.758360244660   123.79416110   173.65472569
 C     23  17  16     1.402138784144   119.71276659   357.73773470
 C     13  12  11     1.399638964162   114.28086433   359.66452096
 S     11  10   8     1.677371768571   124.01568911   179.53178346
 C      5   4   3     1.390847497032   119.88723903   179.30990677
 O     28   5   4     1.261222902583   120.47194988   178.29445173
 N     28   5   4     1.376400940860   118.51806240   358.58616427
 C     30  28   5     1.472788175536   119.83654778   179.22035939
 C     30  28   5     1.384186118266   120.27469134     2.51721760
 O     32  30  28     1.263896949913   119.82121853   178.31635911
 N      4   3   2     1.359513567420   126.53102576   180.10590865
 C     34   4   3     1.468241758022   120.72624560   359.22667282
 H      1   2   3     1.109814516034   109.93459235   232.68532190
 H      1   2   3     1.110080262864   109.92676935   352.46085192
 H      1   2   3     1.109599414203   109.65883101   112.20633871
 H      7   6   5     1.111106624046   109.21959279   142.22705707
 H      7   6   5     1.108043956709   111.09998965    24.81915100
 H     10   8   7     1.043838953096   118.54316655     2.81209977
 H     15  14  13     1.082939370417   120.78344420     0.59465829
 H     16  15  14     1.082939665909   119.14758132   180.73787485
 H     25  23  17     1.081263612631   118.38052793   178.68194600
 H     26  13  12     1.080648444222   127.03150077   181.58956377
 H     31  30  28     1.110917494686   111.43235407    30.14057808
 H     31  30  28     1.110167140569   109.57146432   269.26196098
 H     31  30  28     1.110864267136   111.14277711   148.47326891
 H     35  34   4     1.110397019088   109.57408787   256.40492725
 H     35  34   4     1.111110012555   110.27194576   136.12050436
 H     35  34   4     1.110984545347   111.63108268    16.95416915

---------------------------
INTERNAL COORDINATES (A.U.)
---------------------------
 C      0   0   0     0.000000000000     0.00000000     0.00000000
 C      1   0   0     2.822742399986     0.00000000     0.00000000
 O      2   1   0     2.492884722397   123.40205934     0.00000000
 C      3   2   1     2.479899046404   107.47432552   181.27673429
 C      4   3   2     2.573116423301   111.15629993     0.12594362
 C      5   4   3     2.619934719932   106.45016978   359.53106401
 C      6   5   4     2.840590721553   128.60178426   175.94514676
 C      7   6   5     2.832271430154   110.26850184   263.09501968
 O      8   7   6     2.382684792123   119.24913487   253.08295781
 N      8   7   6     2.713648083755   120.06537003    72.04761594
 C     10   8   7     2.707974622349   123.83680490   183.63244635
 N     11  10   8     2.551042267031   124.22425405     0.23689333
 C     12  11  10     2.575249317091   112.16479183   179.70048390
 C     13  12  11     2.808834797456   121.33467356   180.37125193
 C     14  13  12     2.651183324054   119.80996344    13.99446091
 C     15  14  13     2.636052403292   120.59649466   179.91276225
 C     16  15  14     2.644473056041   121.17098529   359.61825918
 O     17  16  15     2.659670367313   116.32049476   181.41719140
 C     18  17  16     2.694959833251   127.27762786   149.83674407
 F     19  18  17     2.611363478679   110.22375900    88.30437945
 F     19  18  17     2.615494384591   110.80279952   325.62548035
 F     19  18  17     2.610195268375   108.55211686   206.63155727
 C     17  16  15     2.681273670647   118.70299014     2.15709848
 Cl    23  17  16     3.322819307182   123.79416110   173.65472569
 C     23  17  16     2.649658303781   119.71276659   357.73773470
 C     13  12  11     2.644934328631   114.28086433   359.66452096
 S     11  10   8     3.169773267371   124.01568911   179.53178346
 C      5   4   3     2.628320863440   119.88723903   179.30990677
 O     28   5   4     2.383365879711   120.47194988   178.29445173
 N     28   5   4     2.601020828697   118.51806240   358.58616427
 C     30  28   5     2.783166305041   119.83654778   179.22035939
 C     30  28   5     2.615732681898   120.27469134     2.51721760
 O     32  30  28     2.388419096834   119.82121853   178.31635911
 N      4   3   2     2.569108317775   126.53102576   180.10590865
 C     34   4   3     2.774574821049   120.72624560   359.22667282
 H      1   2   3     2.097245494755   109.93459235   232.68532190
 H      1   2   3     2.097747683484   109.92676935   352.46085192
 H      1   2   3     2.096839011203   109.65883101   112.20633871
 H      7   6   5     2.099687225034   109.21959279   142.22705707
 H      7   6   5     2.093899622527   111.09998965    24.81915100
 H     10   8   7     1.972569749270   118.54316655     2.81209977
 H     15  14  13     2.046458829730   120.78344420     0.59465829
 H     16  15  14     2.046459388129   119.14758132   180.73787485
 H     25  23  17     2.043292106447   118.38052793   178.68194600
 H     26  13  12     2.042129606628   127.03150077   181.58956377
 H     31  30  28     2.099329822339   111.43235407    30.14057808
 H     31  30  28     2.097911858555   109.57146432   269.26196098
 H     31  30  28     2.099229236847   111.14277711   148.47326891
 H     35  34   4     2.098346265999   109.57408787   256.40492725
 H     35  34   4     2.099693628387   110.27194576   136.12050436
 H     35  34   4     2.099456529725   111.63108268    16.95416915

---------------------
BASIS SET INFORMATION
---------------------
There are 7 groups of distinct atoms

 Group   1 Type C   : 10s4p1d contracted to 3s2p1d pattern {631/31/1}
 Group   2 Type O   : 10s4p1d contracted to 3s2p1d pattern {631/31/1}
 Group   3 Type N   : 10s4p1d contracted to 3s2p1d pattern {631/31/1}
 Group   4 Type F   : 10s4p1d contracted to 3s2p1d pattern {631/31/1}
 Group   5 Type Cl  : 16s10p1d contracted to 4s3p1d pattern {6631/631/1}
 Group   6 Type S   : 16s10p1d contracted to 4s3p1d pattern {6631/631/1}
 Group   7 Type H   : 4s contracted to 2s pattern {31}

Atom   0C    basis set group =>   1
Atom   1C    basis set group =>   1
Atom   2O    basis set group =>   2
Atom   3C    basis set group =>   1
Atom   4C    basis set group =>   1
Atom   5C    basis set group =>   1
Atom   6C    basis set group =>   1
Atom   7C    basis set group =>   1
Atom   8O    basis set group =>   2
Atom   9N    basis set group =>   3
Atom  10C    basis set group =>   1
Atom  11N    basis set group =>   3
Atom  12C    basis set group =>   1
Atom  13C    basis set group =>   1
Atom  14C    basis set group =>   1
Atom  15C    basis set group =>   1
Atom  16C    basis set group =>   1
Atom  17O    basis set group =>   2
Atom  18C    basis set group =>   1
Atom  19F    basis set group =>   4
Atom  20F    basis set group =>   4
Atom  21F    basis set group =>   4
Atom  22C    basis set group =>   1
Atom  23Cl   basis set group =>   5
Atom  24C    basis set group =>   1
Atom  25C    basis set group =>   1
Atom  26S    basis set group =>   6
Atom  27C    basis set group =>   1
Atom  28O    basis set group =>   2
Atom  29N    basis set group =>   3
Atom  30C    basis set group =>   1
Atom  31C    basis set group =>   1
Atom  32O    basis set group =>   2
Atom  33N    basis set group =>   3
Atom  34C    basis set group =>   1
Atom  35H    basis set group =>   7
Atom  36H    basis set group =>   7
Atom  37H    basis set group =>   7
Atom  38H    basis set group =>   7
Atom  39H    basis set group =>   7
Atom  40H    basis set group =>   7
Atom  41H    basis set group =>   7
Atom  42H    basis set group =>   7
Atom  43H    basis set group =>   7
Atom  44H    basis set group =>   7
Atom  45H    basis set group =>   7
Atom  46H    basis set group =>   7
Atom  47H    basis set group =>   7
Atom  48H    basis set group =>   7
Atom  49H    basis set group =>   7
Atom  50H    basis set group =>   7
---------------------------------
AUXILIARY/J BASIS SET INFORMATION
---------------------------------
There are 7 groups of distinct atoms

 Group   1 Type C   : 12s5p4d2f1g contracted to 6s4p3d1f1g pattern {711111/2111/211/2/1}
 Group   2 Type O   : 12s5p4d2f1g contracted to 6s4p3d1f1g pattern {711111/2111/211/2/1}
 Group   3 Type N   : 12s5p4d2f1g contracted to 6s4p3d1f1g pattern {711111/2111/211/2/1}
 Group   4 Type F   : 12s5p4d2f1g contracted to 6s4p3d1f1g pattern {711111/2111/211/2/1}
 Group   5 Type Cl  : 14s5p5d2f1g contracted to 8s4p3d1f1g pattern {71111111/2111/311/2/1}
 Group   6 Type S   : 14s5p5d2f1g contracted to 8s4p3d1f1g pattern {71111111/2111/311/2/1}
 Group   7 Type H   : 5s2p1d contracted to 3s1p1d pattern {311/2/1}

Atom   0C    basis set group =>   1
Atom   1C    basis set group =>   1
Atom   2O    basis set group =>   2
Atom   3C    basis set group =>   1
Atom   4C    basis set group =>   1
Atom   5C    basis set group =>   1
Atom   6C    basis set group =>   1
Atom   7C    basis set group =>   1
Atom   8O    basis set group =>   2
Atom   9N    basis set group =>   3
Atom  10C    basis set group =>   1
Atom  11N    basis set group =>   3
Atom  12C    basis set group =>   1
Atom  13C    basis set group =>   1
Atom  14C    basis set group =>   1
Atom  15C    basis set group =>   1
Atom  16C    basis set group =>   1
Atom  17O    basis set group =>   2
Atom  18C    basis set group =>   1
Atom  19F    basis set group =>   4
Atom  20F    basis set group =>   4
Atom  21F    basis set group =>   4
Atom  22C    basis set group =>   1
Atom  23Cl   basis set group =>   5
Atom  24C    basis set group =>   1
Atom  25C    basis set group =>   1
Atom  26S    basis set group =>   6
Atom  27C    basis set group =>   1
Atom  28O    basis set group =>   2
Atom  29N    basis set group =>   3
Atom  30C    basis set group =>   1
Atom  31C    basis set group =>   1
Atom  32O    basis set group =>   2
Atom  33N    basis set group =>   3
Atom  34C    basis set group =>   1
Atom  35H    basis set group =>   7
Atom  36H    basis set group =>   7
Atom  37H    basis set group =>   7
Atom  38H    basis set group =>   7
Atom  39H    basis set group =>   7
Atom  40H    basis set group =>   7
Atom  41H    basis set group =>   7
Atom  42H    basis set group =>   7
Atom  43H    basis set group =>   7
Atom  44H    basis set group =>   7
Atom  45H    basis set group =>   7
Atom  46H    basis set group =>   7
Atom  47H    basis set group =>   7
Atom  48H    basis set group =>   7
Atom  49H    basis set group =>   7
Atom  50H    basis set group =>   7
------------------------------------------------------------------------------
                             ORCA STARTUP CALCULATIONS
                           -- RI-GTO INTEGRALS CHOSEN --
------------------------------------------------------------------------------
------------------------------------------------------------------------------
                   ___                                                        
                  /   \      - P O W E R E D   B Y -                         
                 /     \                                                     
                 |  |  |   _    _      __       _____    __    __             
                 |  |  |  | |  | |    /  \     |  _  \  |  |  /  |          
                  \  \/   | |  | |   /    \    | | | |  |  | /  /          
                 / \  \   | |__| |  /  /\  \   | |_| |  |  |/  /          
                |  |  |   |  __  | /  /__\  \  |    /   |      \           
                |  |  |   | |  | | |   __   |  |    \   |  |\   \          
                \     /   | |  | | |  |  |  |  | |\  \  |  | \   \       
                 \___/    |_|  |_| |__|  |__|  |_| \__\ |__|  \__/        
                                                                              
                      - O R C A' S   B I G   F R I E N D -                    
                                      &                                       
                       - I N T E G R A L  F E E D E R -                       
                                                                              
 v1 FN, 2020, v2 2021, v3 2022-2024                                           
------------------------------------------------------------------------------


----------------------
SHARK INTEGRAL PACKAGE
----------------------

Number of atoms                             ...     51
Number of basis functions                   ...    530
Number of shells                            ...    246
Maximum angular momentum                    ...      2
Integral batch strategy                     ... SHARK/LIBINT Hybrid
RI-J (if used) integral strategy            ... SPLIT-RIJ (Revised 2003 algorithm where possible)
Printlevel                                  ...      1
Contraction scheme used                     ... SEGMENTED contraction
Prescreening option                         ... SCHWARTZ
   Thresh                                   ... 1.000e-10
   Tcut                                     ... 1.000e-11
   Tpresel                                  ... 1.000e-11 
Coulomb Range Separation                    ... NOT USED
Exchange Range Separation                   ... NOT USED
Multipole approximations                    ... NOT USED
Finite Nucleus Model                        ... NOT USED
CABS basis                                  ... NOT available
Auxiliary Coulomb fitting basis             ... AVAILABLE
   # of basis functions in Aux-J            ...   1895
   # of shells in Aux-J                     ...    609
   Maximum angular momentum in Aux-J        ...      4
Auxiliary J/K fitting basis                 ... NOT available
Auxiliary Correlation fitting basis         ... NOT available
Auxiliary 'external' fitting basis          ... NOT available

Checking pre-screening integrals            ... done (  0.0 sec) Dimension = 246
Check shell pair data                       ... done (  0.0 sec)
Shell pair information
Shell pair cut-off parameter TPreSel        ...   1.0e-11
Total number of shell pairs                 ...     30381
Shell pairs after pre-screening             ...     14406
Total number of primitive shell pairs       ...    189034
Primitive shell pairs kept                  ...     46447
          la=0 lb=0:   4340 shell pairs
          la=1 lb=0:   5100 shell pairs
          la=1 lb=1:   1527 shell pairs
          la=2 lb=0:   1969 shell pairs
          la=2 lb=1:   1223 shell pairs
          la=2 lb=2:    247 shell pairs

Calculating one electron integrals          ... done (  0.2 sec)
Calculating RI/J V-Matrix + Cholesky decomp.... done (  0.5 sec)
Calculating Nuclear repulsion               ... done (  0.0 sec) ENN=   3878.396174833847 Eh

Diagonalization of the overlap matrix:
Smallest eigenvalue                        ... 3.899e-04
Time for diagonalization                   ...    0.052 sec
Threshold for overlap eigenvalues          ... 1.000e-07
Number of eigenvalues below threshold      ... 0
Time for construction of square roots      ...    0.081 sec
Total time needed                          ...    0.147 sec

-------------------
DFT GRID GENERATION
-------------------

General Integration Accuracy     IntAcc      ... 4.388
Radial Grid Type                 RadialGrid  ... OptM3 with GC (2021)
Angular Grid (max. ang.)         AngularGrid ... 4 (Lebedev-302)
Angular grid pruning method      GridPruning ... 4 (adaptive)
Weight generation scheme         WeightScheme... mBecke (2022)
Basis function cutoff            BFCut       ... 1.0000e-10
Integration weight cutoff        WCut        ... 1.0000e-14
Partially contracted basis set               ... off
Rotationally invariant grid construction     ... off
Angular grids for H and He will be reduced by one unit

Total number of grid points                  ...   263522
Total number of batches                      ...     4143
Average number of points per batch           ...       63
Average number of grid points per atom       ...     5167

--------------------
COSX GRID GENERATION
--------------------

GRIDX 1
-------
General Integration Accuracy     IntAcc      ... 3.816
Radial Grid Type                 RadialGrid  ... OptM3 with GC (2021)
Angular Grid (max. ang.)         AngularGrid ... 1 (Lebedev-50)
Angular grid pruning method      GridPruning ... 4 (adaptive)
Weight generation scheme         WeightScheme... mBecke (2022)
Basis function cutoff            BFCut       ... 1.0000e-10
Integration weight cutoff        WCut        ... 1.0000e-14
Partially contracted basis set               ... on
Rotationally invariant grid construction     ... off
Angular grids for H and He will be reduced by one unit

Total number of grid points                  ...    35418
Total number of batches                      ...      308
Average number of points per batch           ...      114
Average number of grid points per atom       ...      694
UseSFitting                                  ... on

GRIDX 2
-------
General Integration Accuracy     IntAcc      ... 4.020
Radial Grid Type                 RadialGrid  ... OptM3 with GC (2021)
Angular Grid (max. ang.)         AngularGrid ... 2 (Lebedev-110)
Angular grid pruning method      GridPruning ... 4 (adaptive)
Weight generation scheme         WeightScheme... mBecke (2022)
Basis function cutoff            BFCut       ... 1.0000e-10
Integration weight cutoff        WCut        ... 1.0000e-14
Partially contracted basis set               ... on
Rotationally invariant grid construction     ... off
Angular grids for H and He will be reduced by one unit

Total number of grid points                  ...    73921
Total number of batches                      ...      606
Average number of points per batch           ...      121
Average number of grid points per atom       ...     1449
UseSFitting                                  ... on

GRIDX 3
-------
General Integration Accuracy     IntAcc      ... 4.338
Radial Grid Type                 RadialGrid  ... OptM3 with GC (2021)
Angular Grid (max. ang.)         AngularGrid ... 3 (Lebedev-194)
Angular grid pruning method      GridPruning ... 4 (adaptive)
Weight generation scheme         WeightScheme... mBecke (2022)
Basis function cutoff            BFCut       ... 1.0000e-10
Integration weight cutoff        WCut        ... 1.0000e-14
Partially contracted basis set               ... on
Rotationally invariant grid construction     ... off
Angular grids for H and He will be reduced by one unit

Total number of grid points                  ...   163243
Total number of batches                      ...     1302
Average number of points per batch           ...      125
Average number of grid points per atom       ...     3201
UseSFitting                                  ... on
Initializing property integral containers    ... done (  0.0 sec)

SHARK setup successfully completed in  13.9 seconds

Maximum memory used throughout the entire STARTUP-calculation: 111.9 MB
-------------------------------------------------------------------------------
                                 ORCA GUESS
                   Start orbitals & Density for SCF / CASSCF
-------------------------------------------------------------------------------

------------
SCF SETTINGS
------------
Hamiltonian:
 Density Functional     Method          .... DFT(GTOs)
 Exchange Functional    Exchange        .... B88
   X-Alpha parameter    XAlpha          ....  0.666667
   Becke's b parameter  XBeta           ....  0.004200
 Correlation Functional Correlation     .... LYP
 LDA part of GGA corr.  LDAOpt          .... VWN-5
 Gradients option       PostSCFGGA      .... off
 Hybrid DFT is turned on
   Fraction HF Exchange ScalHFX         ....  0.200000
   Scaling of DF-GGA-X  ScalDFX         ....  0.720000
   Scaling of DF-GGA-C  ScalDFC         ....  0.810000
   Scaling of DF-LDA-C  ScalLDAC        ....  1.000000
   Perturbative correction              ....  0.000000
   NL short-range parameter             ....  4.800000
 RI-approximation to the Coulomb term is turned on
   Number of AuxJ basis functions       .... 1895
   RIJ-COSX (HFX calculated with COS-X)).... on


General Settings:
 Integral files         IntName         .... /home/nmrbox/aojoawo/Documents/ERDOS/inputs/CHEMBL3931880
 Hartree-Fock type      HFTyp           .... RHF
 Total Charge           Charge          ....    0
 Multiplicity           Mult            ....    1
 Number of Electrons    NEL             ....  270
 Basis Dimension        Dim             ....  530
 Nuclear Repulsion      ENuc            ....   3878.3961748338 Eh

Convergence Acceleration:
 AO-DIIS                CNVDIIS         .... on
   Start iteration      DIISMaxIt       ....    12
   Startup error        DIISStart       ....  0.200000
   # of expansion vecs  DIISMaxEq       ....     5
   Bias factor          DIISBfac        ....   1.050
   Max. coefficient     DIISMaxC        ....  10.000
 MO-DIIS                CNVKDIIS        .... off
 Trust-Rad. Augm. Hess. CNVTRAH         .... auto
   Auto Start mean grad. ratio tolernc. ....  1.125000
   Auto Start start iteration           ....    50
   Auto Start num. interpolation iter.  ....    10
   Max. Number of Micro iterations      ....    24
   Max. Number of Macro iterations      .... Maxiter - #DIIS iter
   Number of Davidson start vectors     ....     2
   Converg. threshold    (grad. norm)   ....   5.000e-05
   Grad. Scal. Fac. for Micro threshold ....   0.100
   Minimum threshold for Micro iter.    ....   1.000e-02
   NR start threshold (gradient norm)   ....   1.000e-04
   Initial trust radius                 ....   0.400
   Minimum AH scaling param. (alpha)    ....   1.000
   Maximum AH scaling param. (alpha)    .... 1000.000
   Quad. conv. algorithm                .... NR
   White noise on init. David. guess    .... on
   Maximum white noise                  ....   0.010
   Pseudo random numbers                .... off
   Inactive MOs                         .... canonical
   Orbital update algorithm             .... Taylor
   Preconditioner                       .... Diag
   Full preconditioner red. dimension   ....   250
 SOSCF                  CNVSOSCF        .... on
   Start iteration      SOSCFMaxIt      ....   150
   Startup grad/error   SOSCFStart      ....  0.003300
   Hessian update       SOSCFHessUp     .... L-BFGS
 Level Shifting         CNVShift        .... on
   Level shift para.    LevelShift      ....    0.2500
   Turn off err/grad.   ShiftErr        ....    0.0010
 Zerner damping         CNVZerner       .... off
 Static damping         CNVDamp         .... on
   Fraction old density DampFac         ....    0.7000
   Max. Damping (<1)    DampMax         ....    0.9800
   Min. Damping (>=0)   DampMin         ....    0.0000
   Turn off err/grad.   DampErr         ....    0.1000

SCF Procedure:
 Maximum # iterations   MaxIter         ....   125
 SCF integral mode      SCFMode         .... Direct
   Integral package                     .... SHARK and LIBINT hybrid scheme
 Reset frequency        DirectResetFreq ....    20
 Integral Threshold     Thresh          ....  1.000e-10 Eh
 Primitive CutOff       TCut            ....  1.000e-11 Eh

Convergence Tolerance:
 Convergence Check Mode ConvCheckMode   .... Total+1el-Energy
 Convergence forced     ConvForced      .... 0
 Energy Change          TolE            ....  1.000e-06 Eh
 1-El. energy change                    ....  1.000e-03 Eh
 Orbital Gradient       TolG            ....  5.000e-05
 Orbital Rotation angle TolX            ....  5.000e-05
 DIIS Error             TolErr          ....  1.000e-06

------------------------------
INITIAL GUESS: MODEL POTENTIAL
------------------------------
Loading Hartree-Fock densities                     ... done
Calculating cut-offs                               ... done
Initializing the effective Hamiltonian             ... done
Setting up the integral package (SHARK)            ... done
Starting the Coulomb interaction                   ... done (   3.7 sec)
Making the grid                                    ... done (   1.7 sec)
Mapping shells                                     ... done
Starting the XC term evaluation                    ... done (   1.2 sec)
  promolecular density results
     # of electrons  =    269.990703048
     EX              =   -262.822923934
     EC              =     -9.724031307
     EX+EC           =   -272.546955241
Transforming the Hamiltonian                       ... done (   0.0 sec)
Diagonalizing the Hamiltonian                      ... done (   0.1 sec)
Back transforming the eigenvectors                 ... done (   0.0 sec)
Now organizing SCF variables                       ... done
                      ------------------
                      INITIAL GUESS DONE (   6.7 sec)
                      ------------------
             **** ENERGY FILE WAS UPDATED (/home/nmrbox/aojoawo/Documents/ERDOS/inputs/CHEMBL3931880.en.tmp) ****
Finished Guess after   7.0 sec
Maximum memory used throughout the entire GUESS-calculation: 60.8 MB

-------------------------------------------------------------------------------------------
                                      ORCA LEAN-SCF
                              memory conserving SCF solver
-------------------------------------------------------------------------------------------

----------------------------------------D-I-I-S--------------------------------------------
Iteration    Energy (Eh)           Delta-E    RMSDP     MaxDP     DIISErr   Damp  Time(sec)
-------------------------------------------------------------------------------------------
               ***  Starting incremental Fock matrix formation  ***
    1    -2560.8760132115999113     0.00e+00  2.50e-03  1.17e-01  2.90e-01  0.700  66.6
    2    -2561.3551258907341435    -4.79e-01  1.47e-03  5.76e-02  1.02e-01  0.700  31.3
                               ***Turning on AO-DIIS***
    3    -2561.5049668222159198    -1.50e-01  5.42e-04  2.36e-02  3.45e-02  0.700  30.6
    4    -2561.6068745231109460    -1.02e-01  1.05e-03  6.16e-02  1.69e-02  0.000  28.3
    5    -2561.8428469838340789    -2.36e-01  2.51e-04  1.23e-02  8.92e-03  0.000  28.6
                              *** Initializing SOSCF ***
---------------------------------------S-O-S-C-F--------------------------------------
Iteration    Energy (Eh)           Delta-E    RMSDP     MaxDP     MaxGrad    Time(sec)
--------------------------------------------------------------------------------------
    6    -2561.8448777433854957    -2.03e-03  9.43e-05  4.03e-03  3.00e-03    25.2
               *** Restarting incremental Fock matrix formation ***
    7    -2561.8450300187273569    -1.52e-04  8.03e-05  3.59e-03  5.64e-04    68.8
    8    -2561.8449547470449943     7.53e-05  4.90e-05  2.41e-03  1.44e-03    41.4
    9    -2561.8450767652689137    -1.22e-04  1.03e-05  5.25e-04  9.23e-05    35.7
   10    -2561.8450753617121336     1.40e-06  6.37e-06  3.14e-04  2.19e-04    28.1
   11    -2561.8450774691996230    -2.11e-06  3.13e-06  1.70e-04  2.73e-05    25.8
   12    -2561.8450773678946462     1.01e-07  1.85e-06  1.09e-04  4.13e-05    22.5
                 **** Energy Check signals convergence ****

               *****************************************************
               *                     SUCCESS                       *
               *           SCF CONVERGED AFTER  12 CYCLES          *
               *****************************************************

Recomputing exchange energy using gridx3       ... done (  119.673 sec)
Old exchange energy                            :    -52.988145788 Eh
New exchange energy                            :    -52.988139364 Eh
Exchange energy change after final integration :      0.000006424 Eh
Total energy after final integration           :  -2561.845070944 Eh
             **** ENERGY FILE WAS UPDATED (/home/nmrbox/aojoawo/Documents/ERDOS/inputs/CHEMBL3931880.en.tmp) ****

----------------
TOTAL SCF ENERGY
----------------

Total Energy       :      -2561.84507094372384 Eh          -69711.34844 eV

Components:
Nuclear Repulsion  :       3878.39617483384654 Eh          105536.52529 eV
Electronic Energy  :      -6440.24125220174119 Eh         -175247.87390 eV
One Electron Energy:     -11236.95226380118220 Eh         -305773.01630 eV
Two Electron Energy:       4796.71101159944101 Eh          130525.14240 eV

Virial components:
Potential Energy   :      -5111.81048026098961 Eh         -139099.43485 eV
Kinetic Energy     :       2549.96540931726577 Eh           69388.08641 eV
Virial Ratio       :          2.00465875402978

DFT components:
N(Alpha)           :      135.000023655787 electrons
N(Beta)            :      135.000023655787 electrons
N(Total)           :      270.000047311574 electrons
E(X)               :     -210.684127093502 Eh       
E(C)               :      -11.401495239785 Eh       
E(XC)              :     -222.085622333287 Eh       

---------------
SCF CONVERGENCE
---------------

  Last Energy change         ...   -1.0130e-07  Tolerance :   1.0000e-06
  Last MAX-Density change    ...    1.0899e-04  Tolerance :   1.0000e-05
  Last RMS-Density change    ...    1.8451e-06  Tolerance :   1.0000e-06
  Last DIIS Error            ...    3.0013e-03  Tolerance :   1.0000e-06
  Last Orbital Gradient      ...    4.1296e-05  Tolerance :   5.0000e-05
  Last Orbital Rotation      ...    5.6185e-05  Tolerance :   5.0000e-05


----------------
ORBITAL ENERGIES
----------------

  NO   OCC          E(Eh)            E(eV) 
   0   2.0000    -101.528738     -2762.7374 
   1   2.0000     -88.908537     -2419.3243 
   2   2.0000     -24.731393      -672.9754 
   3   2.0000     -24.730358      -672.9472 
   4   2.0000     -24.725621      -672.8184 
   5   2.0000     -19.259139      -524.0678 
   6   2.0000     -19.209709      -522.7228 
   7   2.0000     -19.122738      -520.3562 
   8   2.0000     -19.121305      -520.3172 
   9   2.0000     -19.118869      -520.2509 
  10   2.0000     -14.422848      -392.4657 
  11   2.0000     -14.407096      -392.0370 
  12   2.0000     -14.391531      -391.6135 
  13   2.0000     -14.326123      -389.8336 
  14   2.0000     -10.496385      -285.6212 
  15   2.0000     -10.339711      -281.3578 
  16   2.0000     -10.307395      -280.4785 
  17   2.0000     -10.303509      -280.3727 
  18   2.0000     -10.301866      -280.3280 
  19   2.0000     -10.290886      -280.0293 
  20   2.0000     -10.275630      -279.6141 
  21   2.0000     -10.257670      -279.1254 
  22   2.0000     -10.256255      -279.0869 
  23   2.0000     -10.247108      -278.8380 
  24   2.0000     -10.228385      -278.3285 
  25   2.0000     -10.227893      -278.3151 
  26   2.0000     -10.211093      -277.8580 
  27   2.0000     -10.206997      -277.7465 
  28   2.0000     -10.205587      -277.7081 
  29   2.0000     -10.205318      -277.7008 
  30   2.0000     -10.203069      -277.6396 
  31   2.0000     -10.200071      -277.5581 
  32   2.0000     -10.198163      -277.5061 
  33   2.0000     -10.196362      -277.4571 
  34   2.0000     -10.191279      -277.3188 
  35   2.0000      -9.460687      -257.4384 
  36   2.0000      -7.986229      -217.3163 
  37   2.0000      -7.224042      -196.5762 
  38   2.0000      -7.214176      -196.3077 
  39   2.0000      -7.213686      -196.2944 
  40   2.0000      -5.949313      -161.8890 
  41   2.0000      -5.945191      -161.7769 
  42   2.0000      -5.943044      -161.7184 
  43   2.0000      -1.294714       -35.2310 
  44   2.0000      -1.215876       -33.0857 
  45   2.0000      -1.213213       -33.0132 
  46   2.0000      -1.189374       -32.3645 
  47   2.0000      -1.078632       -29.3511 
  48   2.0000      -1.077827       -29.3292 
  49   2.0000      -1.031429       -28.0666 
  50   2.0000      -1.022037       -27.8110 
  51   2.0000      -0.984664       -26.7941 
  52   2.0000      -0.975695       -26.5500 
  53   2.0000      -0.949752       -25.8441 
  54   2.0000      -0.914814       -24.8933 
  55   2.0000      -0.890595       -24.2343 
  56   2.0000      -0.860047       -23.4031 
  57   2.0000      -0.842303       -22.9202 
  58   2.0000      -0.813822       -22.1452 
  59   2.0000      -0.813248       -22.1296 
  60   2.0000      -0.788207       -21.4482 
  61   2.0000      -0.773082       -21.0366 
  62   2.0000      -0.752431       -20.4747 
  63   2.0000      -0.739621       -20.1261 
  64   2.0000      -0.733721       -19.9656 
  65   2.0000      -0.730707       -19.8836 
  66   2.0000      -0.714888       -19.4531 
  67   2.0000      -0.693221       -18.8635 
  68   2.0000      -0.671794       -18.2804 
  69   2.0000      -0.641232       -17.4488 
  70   2.0000      -0.636935       -17.3319 
  71   2.0000      -0.630185       -17.1482 
  72   2.0000      -0.619376       -16.8541 
  73   2.0000      -0.614961       -16.7339 
  74   2.0000      -0.598642       -16.2899 
  75   2.0000      -0.587464       -15.9857 
  76   2.0000      -0.586350       -15.9554 
  77   2.0000      -0.583972       -15.8907 
  78   2.0000      -0.573186       -15.5972 
  79   2.0000      -0.545257       -14.8372 
  80   2.0000      -0.541999       -14.7485 
  81   2.0000      -0.537280       -14.6201 
  82   2.0000      -0.523723       -14.2512 
  83   2.0000      -0.514449       -13.9989 
  84   2.0000      -0.502326       -13.6690 
  85   2.0000      -0.495051       -13.4710 
  86   2.0000      -0.484757       -13.1909 
  87   2.0000      -0.481300       -13.0969 
  88   2.0000      -0.469858       -12.7855 
  89   2.0000      -0.468277       -12.7425 
  90   2.0000      -0.467755       -12.7283 
  91   2.0000      -0.459689       -12.5088 
  92   2.0000      -0.458090       -12.4653 
  93   2.0000      -0.457236       -12.4420 
  94   2.0000      -0.453832       -12.3494 
  95   2.0000      -0.451105       -12.2752 
  96   2.0000      -0.440632       -11.9902 
  97   2.0000      -0.439127       -11.9493 
  98   2.0000      -0.434642       -11.8272 
  99   2.0000      -0.432845       -11.7783 
 100   2.0000      -0.430905       -11.7255 
 101   2.0000      -0.428814       -11.6686 
 102   2.0000      -0.425249       -11.5716 
 103   2.0000      -0.423537       -11.5250 
 104   2.0000      -0.420145       -11.4327 
 105   2.0000      -0.414069       -11.2674 
 106   2.0000      -0.411658       -11.2018 
 107   2.0000      -0.409665       -11.1475 
 108   2.0000      -0.407673       -11.0933 
 109   2.0000      -0.405572       -11.0362 
 110   2.0000      -0.403698       -10.9852 
 111   2.0000      -0.397507       -10.8167 
 112   2.0000      -0.394009       -10.7215 
 113   2.0000      -0.392640       -10.6843 
 114   2.0000      -0.384186       -10.4542 
 115   2.0000      -0.376063       -10.2332 
 116   2.0000      -0.368840       -10.0366 
 117   2.0000      -0.364091        -9.9074 
 118   2.0000      -0.359241        -9.7754 
 119   2.0000      -0.348952        -9.4955 
 120   2.0000      -0.336432        -9.1548 
 121   2.0000      -0.334537        -9.1032 
 122   2.0000      -0.308781        -8.4023 
 123   2.0000      -0.305400        -8.3104 
 124   2.0000      -0.295848        -8.0504 
 125   2.0000      -0.290503        -7.9050 
 126   2.0000      -0.285785        -7.7766 
 127   2.0000      -0.280558        -7.6344 
 128   2.0000      -0.277383        -7.5480 
 129   2.0000      -0.260283        -7.0826 
 130   2.0000      -0.256697        -6.9851 
 131   2.0000      -0.244464        -6.6522 
 132   2.0000      -0.236921        -6.4470 
 133   2.0000      -0.213415        -5.8073 
 134   2.0000      -0.210629        -5.7315 
 135   0.0000      -0.041012        -1.1160 
 136   0.0000      -0.031914        -0.8684 
 137   0.0000      -0.023244        -0.6325 
 138   0.0000      -0.015349        -0.4177 
 139   0.0000      -0.010978        -0.2987 
 140   0.0000       0.018364         0.4997 
 141   0.0000       0.019702         0.5361 
 142   0.0000       0.022286         0.6064 
 143   0.0000       0.034933         0.9506 
 144   0.0000       0.068985         1.8772 
 145   0.0000       0.069866         1.9012 
*Only the first 10 virtual orbitals were printed.

                    ********************************
                    * MULLIKEN POPULATION ANALYSIS *
                    ********************************

-----------------------
MULLIKEN ATOMIC CHARGES
-----------------------
   0 C :   -0.530669
   1 C :    0.255203
   2 O :   -0.401527
   3 C :    0.487883
   4 C :    0.027532
   5 C :    0.014081
   6 C :   -0.435262
   7 C :    0.566266
   8 O :   -0.436242
   9 N :   -0.665763
  10 C :    0.254712
  11 N :   -0.378566
  12 C :    0.217744
  13 C :    0.130822
  14 C :   -0.169648
  15 C :   -0.164649
  16 C :    0.347990
  17 O :   -0.545266
  18 C :    1.078476
  19 F :   -0.277465
  20 F :   -0.287237
  21 F :   -0.281805
  22 C :   -0.126768
  23 Cl:    0.002492
  24 C :   -0.184221
  25 C :   -0.397956
  26 S :    0.255110
  27 C :    0.502487
  28 O :   -0.519468
  29 N :   -0.482651
  30 C :   -0.316336
  31 C :    0.676188
  32 O :   -0.503385
  33 N :   -0.501281
  34 C :   -0.329857
  35 H :    0.178889
  36 H :    0.162239
  37 H :    0.205476
  38 H :    0.181243
  39 H :    0.203905
  40 H :    0.359799
  41 H :    0.182921
  42 H :    0.159155
  43 H :    0.152762
  44 H :    0.183957
  45 H :    0.194014
  46 H :    0.181202
  47 H :    0.195928
  48 H :    0.189302
  49 H :    0.203460
  50 H :    0.184785
Sum of atomic charges:    0.0000000

--------------------------------
MULLIKEN REDUCED ORBITAL CHARGES
--------------------------------
  0 C s       :     3.320376  s :     3.320376
      pz      :     1.011919  p :     3.175895
      px      :     1.085878
      py      :     1.078098
      dz2     :     0.007183  d :     0.034398
      dxz     :     0.006803
      dyz     :     0.006400
      dx2y2   :     0.011042
      dxy     :     0.002970

  1 C s       :     3.074691  s :     3.074691
      pz      :     0.924075  p :     2.597626
      px      :     0.857442
      py      :     0.816109
      dz2     :     0.017776  d :     0.072480
      dxz     :     0.012457
      dyz     :     0.012721
      dx2y2   :     0.013216
      dxy     :     0.016310

  2 O s       :     3.831755  s :     3.831755
      pz      :     1.501380  p :     4.528910
      px      :     1.496204
      py      :     1.531326
      dz2     :     0.010513  d :     0.040863
      dxz     :     0.007858
      dyz     :     0.008331
      dx2y2   :     0.009083
      dxy     :     0.005078

  3 C s       :     2.946729  s :     2.946729
      pz      :     0.733843  p :     2.470332
      px      :     0.845907
      py      :     0.890583
      dz2     :     0.023928  d :     0.095057
      dxz     :     0.021688
      dyz     :     0.019978
      dx2y2   :     0.016925
      dxy     :     0.012539

  4 C s       :     3.119884  s :     3.119884
      pz      :     0.795098  p :     2.810082
      px      :     1.032368
      py      :     0.982616
      dz2     :     0.009068  d :     0.042502
      dxz     :     0.009965
      dyz     :     0.010450
      dx2y2   :     0.008762
      dxy     :     0.004257

  5 C s       :     3.160598  s :     3.160598
      pz      :     0.882696  p :     2.781842
      px      :     0.980382
      py      :     0.918763
      dz2     :     0.009165  d :     0.043479
      dxz     :     0.008339
      dyz     :     0.011234
      dx2y2   :     0.007383
      dxy     :     0.007357

  6 C s       :     3.293904  s :     3.293904
      pz      :     1.106650  p :     3.101962
      px      :     0.971171
      py      :     1.024140
      dz2     :     0.006041  d :     0.039396
      dxz     :     0.005965
      dyz     :     0.010315
      dx2y2   :     0.008768
      dxy     :     0.008308

  7 C s       :     3.007519  s :     3.007519
      pz      :     0.735819  p :     2.327269
      px      :     0.819839
      py      :     0.771611
      dz2     :     0.026002  d :     0.098947
      dxz     :     0.019548
      dyz     :     0.017916
      dx2y2   :     0.020375
      dxy     :     0.015106

  8 O s       :     3.893139  s :     3.893139
      pz      :     1.476077  p :     4.517093
      px      :     1.527942
      py      :     1.513074
      dz2     :     0.005667  d :     0.026011
      dxz     :     0.007374
      dyz     :     0.003240
      dx2y2   :     0.004015
      dxy     :     0.005715

  9 N s       :     3.624940  s :     3.624940
      pz      :     1.344522  p :     4.012656
      px      :     1.200419
      py      :     1.467714
      dz2     :     0.003881  d :     0.028166
      dxz     :     0.009389
      dyz     :     0.003886
      dx2y2   :     0.005439
      dxy     :     0.005571

 10 C s       :     3.047173  s :     3.047173
      pz      :     0.904434  p :     2.624177
      px      :     0.780533
      py      :     0.939210
      dz2     :     0.015195  d :     0.073939
      dxz     :     0.016311
      dyz     :     0.009061
      dx2y2   :     0.016807
      dxy     :     0.016564

 11 N s       :     3.733297  s :     3.733297
      pz      :     1.346049  p :     3.605817
      px      :     0.987356
      py      :     1.272412
      dz2     :     0.006974  d :     0.039453
      dxz     :     0.011893
      dyz     :     0.006460
      dx2y2   :     0.005422
      dxy     :     0.008704

 12 C s       :     3.057751  s :     3.057751
      pz      :     0.904450  p :     2.664951
      px      :     0.859502
      py      :     0.900999
      dz2     :     0.012009  d :     0.059554
      dxz     :     0.014440
      dyz     :     0.007967
      dx2y2   :     0.013222
      dxy     :     0.011916

 13 C s       :     3.133820  s :     3.133820
      pz      :     0.858696  p :     2.695304
      px      :     0.876575
      py      :     0.960033
      dz2     :     0.009093  d :     0.040054
      dxz     :     0.012000
      dyz     :     0.005784
      dx2y2   :     0.006730
      dxy     :     0.006446

 14 C s       :     3.208561  s :     3.208561
      pz      :     0.982473  p :     2.925049
      px      :     0.970757
      py      :     0.971819
      dz2     :     0.008212  d :     0.036038
      dxz     :     0.011345
      dyz     :     0.005532
      dx2y2   :     0.005445
      dxy     :     0.005505

 15 C s       :     3.203614  s :     3.203614
      pz      :     0.979079  p :     2.926194
      px      :     0.938716
      py      :     1.008399
      dz2     :     0.008841  d :     0.034840
      dxz     :     0.008966
      dyz     :     0.004166
      dx2y2   :     0.005854
      dxy     :     0.007013

 16 C s       :     3.084371  s :     3.084371
      pz      :     0.810396  p :     2.502983
      px      :     0.691678
      py      :     1.000909
      dz2     :     0.014875  d :     0.064656
      dxz     :     0.020228
      dyz     :     0.007986
      dx2y2   :     0.011396
      dxy     :     0.010171

 17 O s       :     3.882022  s :     3.882022
      pz      :     1.700953  p :     4.637710
      px      :     1.306522
      py      :     1.630236
      dz2     :     0.004249  d :     0.025534
      dxz     :     0.005948
      dyz     :     0.003373
      dx2y2   :     0.004071
      dxy     :     0.007893

 18 C s       :     2.717969  s :     2.717969
      pz      :     0.641582  p :     2.038383
      px      :     0.714096
      py      :     0.682705
      dz2     :     0.035135  d :     0.165172
      dxz     :     0.037299
      dyz     :     0.025726
      dx2y2   :     0.030790
      dxy     :     0.036222

 19 F s       :     3.980972  s :     3.980972
      pz      :     1.699643  p :     5.280105
      px      :     1.722606
      py      :     1.857857
      dz2     :     0.003208  d :     0.016389
      dxz     :     0.005619
      dyz     :     0.002650
      dx2y2   :     0.002254
      dxy     :     0.002658

 20 F s       :     3.981194  s :     3.981194
      pz      :     1.890660  p :     5.289615
      px      :     1.871282
      py      :     1.527673
      dz2     :     0.002345  d :     0.016428
      dxz     :     0.000746
      dyz     :     0.003787
      dx2y2   :     0.005165
      dxy     :     0.004385

 21 F s       :     3.978322  s :     3.978322
      pz      :     1.559647  p :     5.287429
      px      :     1.819046
      py      :     1.908736
      dz2     :     0.005920  d :     0.016054
      dxz     :     0.005443
      dyz     :     0.002850
      dx2y2   :     0.000988
      dxy     :     0.000853

 22 C s       :     3.177234  s :     3.177234
      pz      :     0.933482  p :     2.902545
      px      :     0.907090
      py      :     1.061973
      dz2     :     0.011293  d :     0.046990
      dxz     :     0.013477
      dyz     :     0.006989
      dx2y2   :     0.007526
      dxy     :     0.007705

 23 Cls       :     5.930200  s :     5.930200
      pz      :     3.697180  p :    11.037164
      px      :     3.459257
      py      :     3.880727
      dz2     :     0.002797  d :     0.030145
      dxz     :     0.011859
      dyz     :     0.002856
      dx2y2   :     0.006251
      dxy     :     0.006382

 24 C s       :     3.199997  s :     3.199997
      pz      :     0.996053  p :     2.948945
      px      :     0.948993
      py      :     1.003900
      dz2     :     0.009152  d :     0.035279
      dxz     :     0.009127
      dyz     :     0.004132
      dx2y2   :     0.005998
      dxy     :     0.006870

 25 C s       :     3.267760  s :     3.267760
      pz      :     1.083132  p :     3.096350
      px      :     0.884590
      py      :     1.128628
      dz2     :     0.006457  d :     0.033846
      dxz     :     0.007456
      dyz     :     0.006532
      dx2y2   :     0.006392
      dxy     :     0.007009

 26 S s       :     5.796346  s :     5.796346
      pz      :     3.343114  p :     9.841747
      px      :     3.107459
      py      :     3.391173
      dz2     :     0.018631  d :     0.106797
      dxz     :     0.021623
      dyz     :     0.022488
      dx2y2   :     0.029160
      dxy     :     0.014895

 27 C s       :     2.965798  s :     2.965798
      pz      :     0.888978  p :     2.422823
      px      :     0.789611
      py      :     0.744235
      dz2     :     0.030752  d :     0.108892
      dxz     :     0.016978
      dyz     :     0.021386
      dx2y2   :     0.019647
      dxy     :     0.020129

 28 O s       :     3.888128  s :     3.888128
      pz      :     1.597839  p :     4.606410
      px      :     1.553960
      py      :     1.454611
      dz2     :     0.004647  d :     0.024929
      dxz     :     0.004624
      dyz     :     0.006897
      dx2y2   :     0.004875
      dxy     :     0.003886

 29 N s       :     3.610624  s :     3.610624
      pz      :     1.154554  p :     3.834594
      px      :     1.382379
      py      :     1.297661
      dz2     :     0.007802  d :     0.037433
      dxz     :     0.008435
      dyz     :     0.010020
      dx2y2   :     0.005574
      dxy     :     0.005602

 30 C s       :     3.269817  s :     3.269817
      pz      :     0.804835  p :     3.001341
      px      :     1.074211
      py      :     1.122295
      dz2     :     0.013933  d :     0.045178
      dxz     :     0.011264
      dyz     :     0.006157
      dx2y2   :     0.006297
      dxy     :     0.007527

 31 C s       :     2.846856  s :     2.846856
      pz      :     0.759964  p :     2.355065
      px      :     0.803969
      py      :     0.791133
      dz2     :     0.025475  d :     0.121890
      dxz     :     0.028521
      dyz     :     0.028067
      dx2y2   :     0.024276
      dxy     :     0.015551

 32 O s       :     3.888401  s :     3.888401
      pz      :     1.729848  p :     4.589297
      px      :     1.411235
      py      :     1.448214
      dz2     :     0.003054  d :     0.025686
      dxz     :     0.003444
      dyz     :     0.003923
      dx2y2   :     0.008203
      dxy     :     0.007063

 33 N s       :     3.613189  s :     3.613189
      pz      :     1.142173  p :     3.847969
      px      :     1.383806
      py      :     1.321990
      dz2     :     0.010569  d :     0.040122
      dxz     :     0.006978
      dyz     :     0.008060
      dx2y2   :     0.007913
      dxy     :     0.006602

 34 C s       :     3.278512  s :     3.278512
      pz      :     0.949022  p :     3.005227
      px      :     1.097543
      py      :     0.958662
      dz2     :     0.010848  d :     0.046118
      dxz     :     0.005146
      dyz     :     0.010673
      dx2y2   :     0.012015
      dxy     :     0.007436

 35 H s       :     0.821111  s :     0.821111

 36 H s       :     0.837761  s :     0.837761

 37 H s       :     0.794524  s :     0.794524

 38 H s       :     0.818757  s :     0.818757

 39 H s       :     0.796095  s :     0.796095

 40 H s       :     0.640201  s :     0.640201

 41 H s       :     0.817079  s :     0.817079

 42 H s       :     0.840845  s :     0.840845

 43 H s       :     0.847238  s :     0.847238

 44 H s       :     0.816043  s :     0.816043

 45 H s       :     0.805986  s :     0.805986

 46 H s       :     0.818798  s :     0.818798

 47 H s       :     0.804072  s :     0.804072

 48 H s       :     0.810698  s :     0.810698

 49 H s       :     0.796540  s :     0.796540

 50 H s       :     0.815215  s :     0.815215



                     *******************************
                     * LOEWDIN POPULATION ANALYSIS *
                     *******************************

----------------------
LOEWDIN ATOMIC CHARGES
----------------------
   0 C :   -0.362697
   1 C :    0.027822
   2 O :    0.001214
   3 C :    0.094098
   4 C :   -0.117174
   5 C :   -0.050255
   6 C :   -0.241973
   7 C :    0.157441
   8 O :   -0.253911
   9 N :   -0.208216
  10 C :   -0.079223
  11 N :   -0.155469
  12 C :   -0.003305
  13 C :   -0.017168
  14 C :   -0.104803
  15 C :   -0.130892
  16 C :    0.076608
  17 O :   -0.160974
  18 C :    0.358046
  19 F :   -0.096218
  20 F :   -0.102194
  21 F :   -0.092286
  22 C :   -0.110602
  23 Cl:    0.045281
  24 C :   -0.124494
  25 C :   -0.348558
  26 S :    0.392103
  27 C :    0.108189
  28 O :   -0.317668
  29 N :   -0.027530
  30 C :   -0.260276
  31 C :    0.142454
  32 O :   -0.311889
  33 N :   -0.021401
  34 C :   -0.259780
  35 H :    0.148998
  36 H :    0.141730
  37 H :    0.160352
  38 H :    0.155675
  39 H :    0.163710
  40 H :    0.272640
  41 H :    0.160158
  42 H :    0.151350
  43 H :    0.145535
  44 H :    0.161061
  45 H :    0.152316
  46 H :    0.142115
  47 H :    0.152793
  48 H :    0.144797
  49 H :    0.156118
  50 H :    0.146354

-------------------------------
LOEWDIN REDUCED ORBITAL CHARGES
-------------------------------
  0 C s       :     2.970100  s :     2.970100
      pz      :     1.075167  p :     3.324960
      px      :     1.124147
      py      :     1.125645
      dz2     :     0.014829  d :     0.067638
      dxz     :     0.013888
      dyz     :     0.012698
      dx2y2   :     0.021103
      dxy     :     0.005119

  1 C s       :     2.853665  s :     2.853665
      pz      :     1.056213  p :     2.949915
      px      :     0.964139
      py      :     0.929563
      dz2     :     0.040492  d :     0.168599
      dxz     :     0.028901
      dyz     :     0.032462
      dx2y2   :     0.028877
      dxy     :     0.037866

  2 O s       :     3.390071  s :     3.390071
      pz      :     1.512744  p :     4.514733
      px      :     1.480878
      py      :     1.521112
      dz2     :     0.024017  d :     0.093982
      dxz     :     0.017575
      dyz     :     0.017725
      dx2y2   :     0.021137
      dxy     :     0.013528

  3 C s       :     2.799663  s :     2.799663
      pz      :     0.916815  p :     2.882136
      px      :     0.970783
      py      :     0.994539
      dz2     :     0.058017  d :     0.224103
      dxz     :     0.052048
      dyz     :     0.049016
      dx2y2   :     0.036036
      dxy     :     0.028987

  4 C s       :     2.837493  s :     2.837493
      pz      :     1.029898  p :     3.162065
      px      :     1.073959
      py      :     1.058208
      dz2     :     0.026685  d :     0.117616
      dxz     :     0.027501
      dyz     :     0.031240
      dx2y2   :     0.019913
      dxy     :     0.012277

  5 C s       :     2.860542  s :     2.860542
      pz      :     1.034206  p :     3.081871
      px      :     1.018154
      py      :     1.029510
      dz2     :     0.026102  d :     0.107842
      dxz     :     0.020865
      dyz     :     0.028782
      dx2y2   :     0.014642
      dxy     :     0.017452

  6 C s       :     2.927730  s :     2.927730
      pz      :     1.124643  p :     3.230329
      px      :     1.032543
      py      :     1.073144
      dz2     :     0.011937  d :     0.083914
      dxz     :     0.012393
      dyz     :     0.020634
      dx2y2   :     0.019864
      dxy     :     0.019087

  7 C s       :     2.868200  s :     2.868200
      pz      :     0.889810  p :     2.745698
      px      :     1.000657
      py      :     0.855231
      dz2     :     0.058832  d :     0.228661
      dxz     :     0.046110
      dyz     :     0.044021
      dx2y2   :     0.047870
      dxy     :     0.031827

  8 O s       :     3.593676  s :     3.593676
      pz      :     1.510095  p :     4.609444
      px      :     1.585766
      py      :     1.513583
      dz2     :     0.008729  d :     0.050791
      dxz     :     0.018231
      dyz     :     0.005940
      dx2y2   :     0.008785
      dxy     :     0.009107

  9 N s       :     3.150579  s :     3.150579
      pz      :     1.331872  p :     3.988629
      px      :     1.203815
      py      :     1.452942
      dz2     :     0.010491  d :     0.069008
      dxz     :     0.021470
      dyz     :     0.010120
      dx2y2   :     0.012680
      dxy     :     0.014247

 10 C s       :     2.896677  s :     2.896677
      pz      :     1.028315  p :     3.012056
      px      :     0.969812
      py      :     1.013929
      dz2     :     0.034717  d :     0.170490
      dxz     :     0.039128
      dyz     :     0.022265
      dx2y2   :     0.038564
      dxy     :     0.035817

 11 N s       :     3.252977  s :     3.252977
      pz      :     1.417243  p :     3.817499
      px      :     1.096725
      py      :     1.303531
      dz2     :     0.010896  d :     0.084993
      dxz     :     0.029975
      dyz     :     0.009349
      dx2y2   :     0.013925
      dxy     :     0.020848

 12 C s       :     2.861511  s :     2.861511
      pz      :     1.012839  p :     2.998421
      px      :     0.994760
      py      :     0.990822
      dz2     :     0.029181  d :     0.143373
      dxz     :     0.034827
      dyz     :     0.021387
      dx2y2   :     0.030023
      dxy     :     0.027955

 13 C s       :     2.867947  s :     2.867947
      pz      :     1.043474  p :     3.047940
      px      :     1.020214
      py      :     0.984252
      dz2     :     0.024084  d :     0.101280
      dxz     :     0.032789
      dyz     :     0.013692
      dx2y2   :     0.016329
      dxy     :     0.014386

 14 C s       :     2.915917  s :     2.915917
      pz      :     1.049399  p :     3.104846
      px      :     1.075132
      py      :     0.980315
      dz2     :     0.020565  d :     0.084039
      dxz     :     0.028510
      dyz     :     0.012052
      dx2y2   :     0.011797
      dxy     :     0.011116

 15 C s       :     2.917241  s :     2.917241
      pz      :     1.068092  p :     3.131071
      px      :     1.047979
      py      :     1.015000
      dz2     :     0.019178  d :     0.082580
      dxz     :     0.024170
      dyz     :     0.007136
      dx2y2   :     0.015601
      dxy     :     0.016495

 16 C s       :     2.861342  s :     2.861342
      pz      :     0.997974  p :     2.908151
      px      :     0.887589
      py      :     1.022588
      dz2     :     0.036857  d :     0.153899
      dxz     :     0.050336
      dyz     :     0.018100
      dx2y2   :     0.026501
      dxy     :     0.022105

 17 O s       :     3.469581  s :     3.469581
      pz      :     1.683388  p :     4.634697
      px      :     1.320825
      py      :     1.630483
      dz2     :     0.009032  d :     0.056696
      dxz     :     0.012959
      dyz     :     0.004954
      dx2y2   :     0.009547
      dxy     :     0.020204

 18 C s       :     2.818992  s :     2.818992
      pz      :     0.797955  p :     2.443791
      px      :     0.829683
      py      :     0.816153
      dz2     :     0.082381  d :     0.379171
      dxz     :     0.088800
      dyz     :     0.054914
      dx2y2   :     0.067506
      dxy     :     0.085570

 19 F s       :     3.765006  s :     3.765006
      pz      :     1.710869  p :     5.299516
      px      :     1.731724
      py      :     1.856924
      dz2     :     0.005233  d :     0.031696
      dxz     :     0.012370
      dyz     :     0.004930
      dx2y2   :     0.004289
      dxy     :     0.004873

 20 F s       :     3.765243  s :     3.765243
      pz      :     1.884000  p :     5.305362
      px      :     1.868324
      py      :     1.553037
      dz2     :     0.004694  d :     0.031590
      dxz     :     0.001244
      dyz     :     0.006428
      dx2y2   :     0.011021
      dxy     :     0.008202

 21 F s       :     3.760650  s :     3.760650
      pz      :     1.578902  p :     5.300910
      px      :     1.819866
      py      :     1.902141
      dz2     :     0.012088  d :     0.030726
      dxz     :     0.011100
      dyz     :     0.004415
      dx2y2   :     0.001728
      dxy     :     0.001395

 22 C s       :     2.917801  s :     2.917801
      pz      :     1.037991  p :     3.082980
      px      :     0.990011
      py      :     1.054978
      dz2     :     0.027791  d :     0.109821
      dxz     :     0.034173
      dyz     :     0.015270
      dx2y2   :     0.016910
      dxy     :     0.015678

 23 Cls       :     5.805285  s :     5.805285
      pz      :     3.726105  p :    11.115603
      px      :     3.510540
      py      :     3.878957
      dz2     :     0.002922  d :     0.033831
      dxz     :     0.013773
      dyz     :     0.003147
      dx2y2   :     0.006894
      dxy     :     0.007095

 24 C s       :     2.917356  s :     2.917356
      pz      :     1.069232  p :     3.124032
      px      :     1.043531
      py      :     1.011269
      dz2     :     0.020018  d :     0.083105
      dxz     :     0.024031
      dyz     :     0.007167
      dx2y2   :     0.016126
      dxy     :     0.015763

 25 C s       :     2.981771  s :     2.981771
      pz      :     1.108770  p :     3.286993
      px      :     1.034231
      py      :     1.143992
      dz2     :     0.015783  d :     0.079794
      dxz     :     0.018277
      dyz     :     0.014518
      dx2y2   :     0.016551
      dxy     :     0.014664

 26 S s       :     5.520472  s :     5.520472
      pz      :     3.395670  p :     9.961174
      px      :     3.166274
      py      :     3.399231
      dz2     :     0.021299  d :     0.126251
      dxz     :     0.024829
      dyz     :     0.027809
      dx2y2   :     0.034851
      dxy     :     0.017462

 27 C s       :     2.820649  s :     2.820649
      pz      :     1.013566  p :     2.811689
      px      :     0.887481
      py      :     0.910642
      dz2     :     0.074281  d :     0.259473
      dxz     :     0.038922
      dyz     :     0.053329
      dx2y2   :     0.042323
      dxy     :     0.050617

 28 O s       :     3.579960  s :     3.579960
      pz      :     1.630078  p :     4.687644
      px      :     1.563029
      py      :     1.494537
      dz2     :     0.008806  d :     0.050065
      dxz     :     0.008438
      dyz     :     0.016626
      dx2y2   :     0.007994
      dxy     :     0.008201

 29 N s       :     3.085187  s :     3.085187
      pz      :     1.181635  p :     3.844747
      px      :     1.362010
      py      :     1.301102
      dz2     :     0.021700  d :     0.097597
      dxz     :     0.021183
      dyz     :     0.026179
      dx2y2   :     0.012663
      dxy     :     0.015870

 30 C s       :     2.971026  s :     2.971026
      pz      :     0.912836  p :     3.199802
      px      :     1.125379
      py      :     1.161587
      dz2     :     0.029236  d :     0.089448
      dxz     :     0.023164
      dyz     :     0.012833
      dx2y2   :     0.010911
      dxy     :     0.013304

 31 C s       :     2.802435  s :     2.802435
      pz      :     0.922799  p :     2.772375
      px      :     0.920704
      py      :     0.928873
      dz2     :     0.061963  d :     0.282735
      dxz     :     0.066608
      dyz     :     0.065704
      dx2y2   :     0.050241
      dxy     :     0.038219

 32 O s       :     3.586942  s :     3.586942
      pz      :     1.735594  p :     4.674433
      px      :     1.450337
      py      :     1.488501
      dz2     :     0.006476  d :     0.050514
      dxz     :     0.006809
      dyz     :     0.007461
      dx2y2   :     0.012201
      dxy     :     0.017567

 33 N s       :     3.061364  s :     3.061364
      pz      :     1.177729  p :     3.856427
      px      :     1.365466
      py      :     1.313233
      dz2     :     0.028810  d :     0.103610
      dxz     :     0.019566
      dyz     :     0.022515
      dx2y2   :     0.016893
      dxy     :     0.015827

 34 C s       :     2.970994  s :     2.970994
      pz      :     1.028256  p :     3.197574
      px      :     1.135057
      py      :     1.034260
      dz2     :     0.021270  d :     0.091212
      dxz     :     0.010457
      dyz     :     0.021819
      dx2y2   :     0.023558
      dxy     :     0.014108

 35 H s       :     0.851002  s :     0.851002

 36 H s       :     0.858270  s :     0.858270

 37 H s       :     0.839648  s :     0.839648

 38 H s       :     0.844325  s :     0.844325

 39 H s       :     0.836290  s :     0.836290

 40 H s       :     0.727360  s :     0.727360

 41 H s       :     0.839842  s :     0.839842

 42 H s       :     0.848650  s :     0.848650

 43 H s       :     0.854465  s :     0.854465

 44 H s       :     0.838939  s :     0.838939

 45 H s       :     0.847684  s :     0.847684

 46 H s       :     0.857885  s :     0.857885

 47 H s       :     0.847207  s :     0.847207

 48 H s       :     0.855203  s :     0.855203

 49 H s       :     0.843882  s :     0.843882

 50 H s       :     0.853646  s :     0.853646



                      *****************************
                      * MAYER POPULATION ANALYSIS *
                      *****************************

  NA   - Mulliken gross atomic population
  ZA   - Total nuclear charge
  QA   - Mulliken gross atomic charge
  VA   - Mayer's total valence
  BVA  - Mayer's bonded valence
  FA   - Mayer's free valence

  ATOM       NA         ZA         QA         VA         BVA        FA
  0 C      6.5307     6.0000    -0.5307     3.8296     3.8296     0.0000
  1 C      5.7448     6.0000     0.2552     3.7371     3.7371    -0.0000
  2 O      8.4015     8.0000    -0.4015     2.2361     2.2361     0.0000
  3 C      5.5121     6.0000     0.4879     3.6152     3.6152     0.0000
  4 C      5.9725     6.0000     0.0275     3.8998     3.8998    -0.0000
  5 C      5.9859     6.0000     0.0141     3.9466     3.9466    -0.0000
  6 C      6.4353     6.0000    -0.4353     3.7731     3.7731     0.0000
  7 C      5.4337     6.0000     0.5663     3.8965     3.8965     0.0000
  8 O      8.4362     8.0000    -0.4362     2.0743     2.0743     0.0000
  9 N      7.6658     7.0000    -0.6658     2.8976     2.8976    -0.0000
 10 C      5.7453     6.0000     0.2547     3.8175     3.8175    -0.0000
 11 N      7.3786     7.0000    -0.3786     2.9784     2.9784    -0.0000
 12 C      5.7823     6.0000     0.2177     3.9887     3.9887     0.0000
 13 C      5.8692     6.0000     0.1308     3.9829     3.9829     0.0000
 14 C      6.1696     6.0000    -0.1696     3.8971     3.8971     0.0000
 15 C      6.1646     6.0000    -0.1646     3.8879     3.8879    -0.0000
 16 C      5.6520     6.0000     0.3480     3.7768     3.7768    -0.0000
 17 O      8.5453     8.0000    -0.5453     1.9589     1.9589     0.0000
 18 C      4.9215     6.0000     1.0785     4.0027     4.0027     0.0000
 19 F      9.2775     9.0000    -0.2775     1.0803     1.0803    -0.0000
 20 F      9.2872     9.0000    -0.2872     1.0680     1.0680    -0.0000
 21 F      9.2818     9.0000    -0.2818     1.0838     1.0838    -0.0000
 22 C      6.1268     6.0000    -0.1268     3.9098     3.9098     0.0000
 23 Cl    16.9975    17.0000     0.0025     1.1583     1.1583    -0.0000
 24 C      6.1842     6.0000    -0.1842     3.8906     3.8906     0.0000
 25 C      6.3980     6.0000    -0.3980     3.7572     3.7572     0.0000
 26 S     15.7449    16.0000     0.2551     2.4651     2.4651     0.0000
 27 C      5.4975     6.0000     0.5025     3.8588     3.8588     0.0000
 28 O      8.5195     8.0000    -0.5195     2.0162     2.0162    -0.0000
 29 N      7.4827     7.0000    -0.4827     3.0555     3.0555    -0.0000
 30 C      6.3163     6.0000    -0.3163     3.7679     3.7679    -0.0000
 31 C      5.3238     6.0000     0.6762     3.9554     3.9554     0.0000
 32 O      8.5034     8.0000    -0.5034     2.0360     2.0360     0.0000
 33 N      7.5013     7.0000    -0.5013     3.0797     3.0797    -0.0000
 34 C      6.3299     6.0000    -0.3299     3.7717     3.7717    -0.0000
 35 H      0.8211     1.0000     0.1789     0.9292     0.9292    -0.0000
 36 H      0.8378     1.0000     0.1622     0.9346     0.9346     0.0000
 37 H      0.7945     1.0000     0.2055     0.9267     0.9267    -0.0000
 38 H      0.8188     1.0000     0.1812     0.9351     0.9351     0.0000
 39 H      0.7961     1.0000     0.2039     0.9347     0.9347    -0.0000
 40 H      0.6402     1.0000     0.3598     0.8611     0.8611    -0.0000
 41 H      0.8171     1.0000     0.1829     0.9375     0.9375    -0.0000
 42 H      0.8408     1.0000     0.1592     0.9356     0.9356    -0.0000
 43 H      0.8472     1.0000     0.1528     0.9417     0.9417    -0.0000
 44 H      0.8160     1.0000     0.1840     0.9368     0.9368    -0.0000
 45 H      0.8060     1.0000     0.1940     0.9359     0.9359    -0.0000
 46 H      0.8188     1.0000     0.1812     0.9270     0.9270    -0.0000
 47 H      0.8041     1.0000     0.1959     0.9334     0.9334    -0.0000
 48 H      0.8107     1.0000     0.1893     0.9232     0.9232     0.0000
 49 H      0.7965     1.0000     0.2035     0.9289     0.9289    -0.0000
 50 H      0.8152     1.0000     0.1848     0.9314     0.9314    -0.0000

  Mayer bond orders larger than 0.100000
B(  0-C ,  1-C ) :   1.0397 B(  0-C , 35-H ) :   0.9299 B(  0-C , 36-H ) :   0.9352 
B(  0-C , 37-H ) :   0.9141 B(  1-C ,  2-O ) :   0.9865 B(  1-C ,  5-C ) :   1.5494 
B(  2-O ,  3-C ) :   1.0753 B(  3-C ,  4-C ) :   1.3623 B(  3-C , 33-N ) :   0.9792 
B(  4-C ,  5-C ) :   1.2793 B(  4-C , 27-C ) :   1.0895 B(  5-C ,  6-C ) :   0.9942 
B(  6-C ,  7-C ) :   0.9614 B(  6-C , 38-H ) :   0.9135 B(  6-C , 39-H ) :   0.8919 
B(  7-C ,  8-O ) :   1.8753 B(  7-C ,  9-N ) :   0.9949 B(  9-N , 10-C ) :   0.9580 
B(  9-N , 40-H ) :   0.7915 B( 10-C , 11-N ) :   1.5092 B( 10-C , 25-C ) :   0.1068 
B( 10-C , 26-S ) :   1.1407 B( 11-N , 12-C ) :   1.2667 B( 12-C , 13-C ) :   1.0513 
B( 12-C , 25-C ) :   1.5117 B( 13-C , 14-C ) :   1.3969 B( 13-C , 24-C ) :   1.4034 
B( 14-C , 15-C ) :   1.4202 B( 14-C , 41-H ) :   0.9049 B( 15-C , 16-C ) :   1.4078 
B( 15-C , 42-H ) :   0.9171 B( 16-C , 17-O ) :   0.8349 B( 16-C , 22-C ) :   1.3263 
B( 17-O , 18-C ) :   0.9789 B( 18-C , 19-F ) :   0.9846 B( 18-C , 20-F ) :   0.9711 
B( 18-C , 21-F ) :   1.0042 B( 22-C , 23-Cl) :   1.0409 B( 22-C , 24-C ) :   1.3969 
B( 24-C , 43-H ) :   0.9117 B( 25-C , 26-S ) :   1.1156 B( 25-C , 44-H ) :   0.9016 
B( 27-C , 28-O ) :   1.7287 B( 27-C , 29-N ) :   0.9785 B( 29-N , 30-C ) :   0.9168 
B( 29-N , 31-C ) :   1.0385 B( 30-C , 45-H ) :   0.9239 B( 30-C , 46-H ) :   0.9399 
B( 30-C , 47-H ) :   0.9261 B( 31-C , 32-O ) :   1.7932 B( 31-C , 33-N ) :   1.0487 
B( 33-N , 34-C ) :   0.9244 B( 34-C , 48-H ) :   0.9341 B( 34-C , 49-H ) :   0.9269 
B( 34-C , 50-H ) :   0.9297 

-------
TIMINGS
-------

Total SCF time: 0 days 0 hours 9 min 13 sec 

Total time                  ....     553.573 sec
Sum of individual times     ....     552.946 sec  ( 99.9%)

SCF preparation             ....       0.535 sec  (  0.1%)
Fock matrix formation       ....     549.339 sec  ( 99.2%)
  Startup                   ....       0.125 sec  (  0.0% of F)
  Split-RI-J                ....      77.070 sec  ( 14.0% of F)
  Chain of spheres X        ....     424.599 sec  ( 77.3% of F)
  XC integration            ....      46.232 sec  (  8.4% of F)
    Basis function eval.    ....      18.124 sec  ( 39.2% of XC)
    Density eval.           ....      11.154 sec  ( 24.1% of XC)
    XC-Functional eval.     ....       2.452 sec  (  5.3% of XC)
    XC-Potential eval.      ....      12.455 sec  ( 26.9% of XC)
Diagonalization             ....       0.000 sec  (  0.0%)
Density matrix formation    ....       0.599 sec  (  0.1%)
Total Energy calculation    ....       0.090 sec  (  0.0%)
Population analysis         ....       0.111 sec  (  0.0%)
Orbital Transformation      ....       0.257 sec  (  0.0%)
Orbital Orthonormalization  ....       0.000 sec  (  0.0%)
DIIS solution               ....       1.158 sec  (  0.2%)
SOSCF solution              ....       0.858 sec  (  0.2%)
Finished LeanSCF after 553.7 sec

Maximum memory used throughout the entire LEANSCF-calculation: 84.2 MB

-------------------------   --------------------
FINAL SINGLE POINT ENERGY     -2561.845070943724
-------------------------   --------------------


------------------------------------------------------------------------------
                              ORCA PROPERTY CALCULATIONS
------------------------------------------------------------------------------

GBWName                                 ... /home/nmrbox/aojoawo/Documents/ERDOS/inputs/CHEMBL3931880.gbw
Number of atoms                         ...     51
Number of basis functions               ...    530
Max core memory                         ...   1024 MB

Electric properties:
Dipole moment                           ... YES
Quadrupole moment                       ...  NO
Static polarizability (Dipole/Dipole)   ...  NO
Static polarizability (Dipole/Quad.)    ...  NO
Static polarizability (Quad./Quad.)     ...  NO
Static polarizability (Velocity)        ...  NO

Atomic electric properties:
Dipole moment                           ...  NO
Quadrupole moment                       ...  NO
Static polarizability                   ...  NO

Choice of electric origin               ... Center of mass
Position of electric origin             ...     2.462248     0.251222     0.135106

General magnetic properties:
Magnetizability                         ...  NO

EPR properties:
g-Tensor (aka g-matrix)                 ...  NO
Zero-Field splitting spin-orbit         ...  NO
Zero-field splitting spin-spin          ...  NO
Hyperfine couplings                     ...  NO (   0 nuclei)
Quadrupole couplings                    ...  NO (   0 nuclei)
Contact density                         ...  NO (   0 nuclei)

NMR properties:
Chemical shifts                         ...  NO (   0 nuclei)
Spin-rotation constants                 ...  NO (   0 nuclei)
Spin-spin couplings                     ...  NO (   0 nuclei,    0 pairs)

Choice of magnetic origin               ... GIAO
Position of magnetic origin             ...     0.000000     0.000000     0.000000

Properties with geometric perturbations:
SCF Hessian                             ...  NO
IR spectrum                             ...  NO
VCD spectrum                            ...  NO
X-ray spectroscopy properties:
SCF XES/XAS/RIXS spectra                ...  NO


-------------
DIPOLE MOMENT
-------------

Method             : SCF
Type of density    : Electron Density
Multiplicity       :   1
Irrep              :   0
Energy             : -2561.8450709437238402 Eh
Relativity type    : 
Basis              : AO
                                X                 Y                 Z
Electronic contribution:     76.679231008       7.931308448       0.165608153
Nuclear contribution   :    -79.091053016      -7.289220054      -0.701648177
                        -----------------------------------------
Total Dipole Moment    :     -2.411822008       0.642088394      -0.536040024
                        -----------------------------------------
Magnitude (a.u.)       :      2.552743977
Magnitude (Debye)      :      6.488559534



--------------------
Rotational spectrum 
--------------------
 
Rotational constants in cm-1:             0.008125             0.001039             0.000994 
Rotational constants in MHz :           243.584822            31.139910            29.800499 

Dipole components along the rotational axes: 
x,y,z [a.u.] :    -2.339976    -0.568194     0.847449 
x,y,z [Debye]:    -5.947746    -1.444235     2.154045 

 

Dipole moment calculation done in   0.0 sec 

Maximum memory used throughout the entire PROP-calculation: 41.6 MB

--------------------------------
SUGGESTED CITATIONS FOR THIS RUN
--------------------------------

Below you find a list of papers that are relevant to this ORCA run
We neither can nor want to force you to cite these papers, but we appreciate if you do
You receive ORCA, which is the product of decades of hard work by many enthusiastic individuals, for free
The only thing we kindly ask in return is that you cite our papers,
We deeply appreciate it, if you show your appreciation for ORCA by not just citing the generic ORCA reference.

Please note that relegating all ORCA citations to the supporting information does *not* help us.
SI sections are not indexed - citations you put there will not count into any citation statistics
But we need these citations in order to attract the funding resources that allow us to do what we are doing

Therefore, if you are a happy ORCA user, please consider citing a few of the papers listed below in the main body of your paper

In addition to the list printed below, the program has created the file /home/nmrbox/aojoawo/Documents/ERDOS/inputs/CHEMBL3931880.bibtex that contains the list in bibtex format
You can import this file easily into all common literature databanks and citation aid programs


List of essential papers. We consider these as the minimum necessary citations

  1. Neese,F.
     Software update: the ORCA program system, version 5.0
     WIRES Comput. Molec. Sci., 2022 12(1)e1606
     doi.org/10.1002/wcms.1606

List of papers to cite with high priority. The work reported in these papers was absolutely
necessary for this run to complete.
Our perspective: the developers of density functionals and basis sets usually get cited in chemistry papers
Good! But without the algorithms to do something with them, the functionals or basis sets would not do anything.
Hence, in our opinion, the algorithm design and method developments papers are equally worthy of getting cited

  1. Neese,F.
     An improvement of the resolution of the identity approximation for the formation of the Coulomb matrix
     J. Comp. Chem., 2003 24(14)1740-1747
     doi.org/10.1002/jcc.10318
  2. Neese,F.; Wennmohs,F.; Hansen,A.; Becker,U.
     Efficient, approximate and parallel Hartree-Fock and hybrid DFT calculations. A 'chain-of-spheres' algorithm for the Hartree-Fock exchange
     Chem. Phys., 2009 356(1-3)98-109
     doi.org/10.1016/j.chemphys.2008.10.036
  3. Helmich-Paris,B.; de Souza,B.; Neese,F.; Izsák,R.
     An improved chain of spheres for exchange algorithm
     J. Chem. Phys., 2021 155 104109
     doi.org/doi: 10.1063/5.0058766.
  4. Neese,F.
     The SHARK Integral Generation and Digestion System
     J. Comp. Chem., 2022  1-16
     doi.org/10.1002/jcc.26942

List of suggested additional citations. These are papers that are important in the 'surrounding' of 
of this run, or papers that preceded the highly important papers. If you like your results we are grateful for a citation.

  1. Izsak,R.; Neese,F.
     An overlap fitted chain of spheres exchange method
     J. Chem. Phys., 2011 135 144105
     doi.org/10.1063/1.3646921
  2. Izsak,R.; Hansen,A.; Neese,F.
     The resolution of identity and chain of spheres approximations for the LPNO-CCSD singles Fock term
     Molec. Phys., 2012 110 2413-2417
     doi.org/10.1080/00268976.2012.687466
  3. Neese,F.
     The ORCA program system
     WIRES Comput. Molec. Sci., 2012 2(1)73-78
     doi.org/10.1002/wcms.81
  4. Izsak,R.; Neese,F.; Klopper,W.
     Robust fitting techniques in the chain of spheres approximation to the Fock exchange: The role of the complementary space
     J. Chem. Phys., 2013 139 
     doi.org/10.1063/1.4819264
  5. Neese,F.
     Software update: the ORCA program system, version 4.0
     WIRES Comput. Molec. Sci., 2018 8(1)1-6
     doi.org/10.1002/wcms.1327
  6. Neese,F.; Wennmohs,F.; Becker,U.; Riplinger,C.
     The ORCA quantum chemistry program package
     J. Chem. Phys., 2020 152 Art. No. L224108
     doi.org/10.1063/5.0004608

List of optional additional citations

  1. Neese,F.
     Approximate second-order SCF convergence for spin unrestricted wavefunctions
     Chem. Phys. Lett., 2000 325(1-3)93-98
     doi.org/10.1016/s0009-2614(00)00662-x

Timings for individual modules:

Sum of individual times          ...      575.020 sec (=   9.584 min)
Startup calculation              ...       14.001 sec (=   0.233 min)   2.4 %
SCF iterations                   ...      560.792 sec (=   9.347 min)  97.5 %
Property calculations            ...        0.227 sec (=   0.004 min)   0.0 %
                             ****ORCA TERMINATED NORMALLY****
TOTAL RUN TIME: 0 days 0 hours 9 minutes 35 seconds 794 msec
