
                                 *****************
                                 * O   R   C   A *
                                 *****************

                                            #,                                       
                                            ###                                      
                                            ####                                     
                                            #####                                    
                                            ######                                   
                                           ########,                                 
                                     ,,################,,,,,                         
                               ,,#################################,,                 
                          ,,##########################################,,             
                       ,#########################################, ''#####,          
                    ,#############################################,,   '####,        
                  ,##################################################,,,,####,       
                ,###########''''           ''''###############################       
              ,#####''   ,,,,##########,,,,          '''####'''          '####       
            ,##' ,,,,###########################,,,                        '##       
           ' ,,###''''                  '''############,,,                           
         ,,##''                                '''############,,,,        ,,,,,,###''
      ,#''                                            '''#######################'''  
     '                                                          ''''####''''         
             ,#######,   #######,   ,#######,      ##                                
            ,#'     '#,  ##    ##  ,#'     '#,    #''#        ,####,   ,####,        
            ##       ##  ##   ,#'  ##            #'  '#       #'       #'  '#        
            ##       ##  #######   ##           ,######,      #####,   #    #        
            '#,     ,#'  ##    ##  '#,     ,#' ,#      #,     #,   #   #,  ,#        
             '#######'   ##     ##  '#######'  #'      '#     '####' # '####'        



                #########################################################
                #                        -***-                          #
                #          Department of theory and spectroscopy        #
                #                                                       #
                #                      Frank Neese                      #
                #                                                       #
                #     Directorship, Architecture, Infrastructure        #
                #                    SHARK, DRIVERS                     #
                #        Core code/Algorithms in most modules           #
                #                                                       #
                #        Max Planck Institute fuer Kohlenforschung      #
                #                Kaiser Wilhelm Platz 1                 #
                #                 D-45470 Muelheim/Ruhr                 #
                #                      Germany                          #
                #                                                       #
                #                  All rights reserved                  #
                #                        -***-                          #
                #########################################################


                         Program Version 6.0.0  -   RELEASE  -


 With contributions from (in alphabetic order):
   Daniel Aravena         : Magnetic Suceptibility
   Michael Atanasov       : Ab Initio Ligand Field Theory (pilot matlab implementation)
   Alexander A. Auer      : GIAO ZORA, VPT2 properties, NMR spectrum
   Ute Becker             : All parallelization in ORCA, NUMFREQ, NUMCALC
   Giovanni Bistoni       : ED, misc. LED, open-shell LED, HFLD
   Martin Brehm           : Molecular dynamics
   Dmytro Bykov           : pre 5.0 version of the SCF Hessian
   Marcos Casanova-Páez   : Triplet and SCS-CIS(D). UHF-(DLPNO)-IP/EA/STEOM-CCSD. UHF-CVS-IP/STEOM-CCSD
   Vijay G. Chilkuri      : MRCI spin determinant printing, contributions to CSF-ICE
   Pauline Colinet        : FMM embedding
   Dipayan Datta          : RHF DLPNO-CCSD density
   Achintya Kumar Dutta   : EOM-CC, STEOM-CC
   Nicolas Foglia         : Exact transition moments, OPA infrastructure, MCD improvements
   Dmitry Ganyushin       : Spin-Orbit,Spin-Spin,Magnetic field MRCI
   Miquel Garcia          : C-PCM and meta-GGA Hessian, CCSD/C-PCM, Gaussian charge scheme
   Tiago L. C. Gouveia    : GS-ROHF, GS-ROCIS
   Yang Guo               : DLPNO-NEVPT2, F12-NEVPT2, CIM, IAO-localization
   Andreas Hansen         : Spin unrestricted coupled pair/coupled cluster methods
   Ingolf Harden          : AUTO-CI MPn and infrastructure 
   Benjamin Helmich-Paris : MC-RPA, TRAH-(SCF,CASSCF), AVAS, COSX integrals, SCF dyn. polar.
   Lee Huntington         : MR-EOM, pCC
   Robert Izsak           : Overlap fitted RIJCOSX, COSX-SCS-MP3, EOM
   Riya Kayal             : Wick's Theorem for AUTO-CI, AUTO-CI UHF-CCSDT
   Emily Kempfer          : AUTO-CI, RHF CISDT and CCSDT
   Christian Kollmar      : KDIIS, OOCD, Brueckner-CCSD(T), CCSD density, CASPT2, CASPT2-K, improved NEVPT2
   Axel Koslowski         : Symmetry handling
   Simone Kossmann        : Meta GGA functionals, TD-DFT gradient, OOMP2, (MP2 Hessian; deprecated post 5.0)
   Lucas Lang             : DCDCAS
   Marvin Lechner         : AUTO-CI (C++ implementation), FIC-MRCC
   Spencer Leger          : CASSCF response
   Dagmar Lenk            : GEPOL surface, SMD, ORCA-2-JSON
   Dimitrios Liakos       : Extrapolation schemes; Compound Job, initial MDCI parallelization
   Dimitrios Manganas     : Further ROCIS development; embedding schemes. LFT, Crystal Embedding
   Dimitrios Pantazis     : SARC Basis sets
   Anastasios Papadopoulos: AUTO-CI, single reference methods and gradients
   Taras Petrenko         : pre 6.0 DFT Hessian and TD-DFT gradient, (ASA, deprecated), ECA, 1-Electron XAS/XES, NRVS
   Peter Pinski           : DLPNO-MP2, DLPNO-MP2 Gradient
   Christoph Reimann      : Effective Core Potentials
   Marius Retegan         : Local ZFS, SOC
   Christoph Riplinger    : Optimizer, TS searches, QM/MM, DLPNO-CCSD(T), (RO)-DLPNO pert. Triples
   Michael Roemelt        : Original ROCIS implementation
   Masaaki Saitow         : Open-shell DLPNO-CCSD energy and density
   Barbara Sandhoefer     : DKH picture change effects
   Kantharuban Sivalingam : CASSCF convergence/infrastructure, NEVPT2 and variants, FIC-MRCI
   Bernardo de Souza      : ESD, SOC TD-DFT
   Georgi Stoychev        : AutoAux, RI-MP2 NMR, DLPNO-MP2 response, X2C
   Van Anh Tran           : RI-MP2 g-tensors
   Willem Van den Heuvel  : Paramagnetic NMR
   Zikuan Wang            : NOTCH, Electric field optimization 
   Frank Wennmohs         : Technical directorship and infrastructure
   Hang Xu                : AUTO-CI-Response properties 


 We gratefully acknowledge several colleagues who have allowed us to
 interface, adapt or use parts of their codes:
   Stefan Grimme, W. Hujo, H. Kruse, P. Pracht,  : VdW corrections, initial TS optimization,
                  C. Bannwarth, S. Ehlert,         DFT functionals, gCP, sTDA/sTD-DF
                  L. Wittmann, M. Mueller
   Ed Valeev, F. Pavosevic, A. Kumar             : LibInt (2-el integral package), F12 methods
   Garnet Chan, S. Sharma, J. Yang, R. Olivares  : DMRG
   Ulf Ekstrom                                   : XCFun DFT Library
   Mihaly Kallay                                 : mrcc  (arbitrary order and MRCC methods)
   Frank Weinhold                                : gennbo (NPA and NBO analysis)
   Simon Mueller                                 : openCOSMO-RS
   Christopher J. Cramer and Donald G. Truhlar   : smd solvation model
   Lars Goerigk                                  : TD-DFT with DH, B97 family of functionals
   V. Asgeirsson, H. Jonsson                     : NEB implementation
   FAccTs GmbH                                   : IRC, NEB, NEB-TS, DLPNO-Multilevel, CI-OPT
                                                   MM, QMMM, 2- and 3-layer-ONIOM, Crystal-QMMM,
                                                   LR-CPCM, SF, NACMEs, symmetry and pop. for TD-DFT,
                                                   nearIR, NL-DFT gradient (VV10), updates on ESD,
                                                   ML-optimized integration grids, MBIS, APM,
                                                   GOAT, DOCKER, SOLVATOR, interface openCOSMO-RS
   S Lehtola, MJT Oliveira, MAL Marques          : LibXC Library
   Liviu Ungur et al                             : ANISO software


 Your calculation uses the libint2 library for the computation of 2-el integrals
 For citations please refer to: http://libint.valeyev.net

 Your ORCA version has been built with support for libXC version: 6.2.2
 For citations please refer to: https://libxc.gitlab.io

 This ORCA versions uses:
   CBLAS   interface :  Fast vector & matrix operations
   LAPACKE interface :  Fast linear algebra routines
   SCALAPACK package :  Parallel linear algebra routines
   Shared memory     :  Shared parallel matrices
   BLAS/LAPACK       :  OpenBLAS 0.3.27  USE64BITINT DYNAMIC_ARCH NO_AFFINITY SkylakeX SINGLE_THREADED
        Core in use  :  SkylakeX
   Copyright (c) 2011-2014, The OpenBLAS Project


Warning: RI is on but no J-basis has been assigned. Assigning Def2/J (nothing to worry about!)
================================================================================

----- Orbital basis set information -----
Your calculation utilizes the basis: 6-31G*
   H-He, Li-Ne : W. J. Hehre, R. Ditchfield and J.A. Pople, J. Chem. Phys. 56, 2257 (1972).
                 Note: He and Ne are unpublished basis sets taken from the Gaussian program.
                 Note: Li and B from J. D. Dill and J. A. Pople, J. Chem. Phys. 62, 2921 (1975).
   Na - Ar     : M. M. Francl, W. J. Pietro, W. J. Hehre, J. S. Binkley, M. S. Gordon, 
                 D. J. DeFrees and J. A. Pople, J. Chem. Phys. 77, 3654 (1982).
   K - Zn      : V. A. Rassolov, J. A. Pople, M. A. Ratner, and T. L. Windus, J. Chem. Phys. 109, 1223 (1998).

----- AuxJ basis set information -----
Your calculation utilizes the auxiliary basis: def2/J
   F. Weigend, Phys. Chem. Chem. Phys. 8, 1057 (2006).

================================================================================
                                        WARNINGS
                       Please study these warnings very carefully!
================================================================================


================================================================================
                                       INPUT FILE
================================================================================
NAME = /home/nmrbox/aojoawo/Documents/ERDOS/inputs/CHEMBL3682574.inp
|  1> ! B3LYP 6-31G* SP
|  2> 
|  3> * xyz -1 1
|  4> C 0.5393 -3.4400 -0.0746
|  5> C -0.8891 -3.0057 0.1591
|  6> C -1.1932 -1.6635 0.5030
|  7> N -0.1811 -0.6408 0.5437
|  8> C 0.3172 -0.1423 -0.7476
|  9> C 1.7287 0.3880 -0.6721
| 10> C 2.7546 -0.1606 0.0983
| 11> C 3.8610 0.6151 -0.1613
| 12> C 5.1473 0.5474 0.3692
| 13> C 6.0888 1.4996 -0.0651
| 14> Cl 7.7231 1.4638 0.5708
| 15> C 5.7219 2.4859 -1.0079
| 16> C 4.4139 2.5292 -1.5243
| 17> C 3.4988 1.5685 -1.0787
| 18> N 2.2017 1.4210 -1.4244
| 19> C 1.4411 2.2495 -2.3614
| 20> S -0.2029 0.4431 1.9131
| 21> O -0.9584 -0.1878 3.0521
| 22> O 1.1964 0.7219 2.3887
| 23> C -0.9925 1.9522 1.4600
| 24> C -0.2372 3.0180 0.9500
| 25> C -0.8664 4.2042 0.5555
| 26> C -2.2629 4.3430 0.6734
| 27> C -2.9339 5.6003 0.2673
| 28> O -2.2661 6.5553 -0.2201
| 29> O -4.3097 5.7475 0.4229
| 30> C -3.0159 3.2678 1.1844
| 31> C -2.3843 2.0807 1.5720
| 32> N -2.4827 -1.3065 0.7525
| 33> C -3.5129 -2.1820 0.6857
| 34> C -3.2810 -3.5105 0.3247
| 35> C -4.3510 -4.4131 0.2277
| 36> C -4.1199 -5.7374 -0.1459
| 37> C -2.8247 -6.1689 -0.4271
| 38> C -1.7492 -5.2802 -0.3384
| 39> C -1.9571 -3.9361 0.0469
| 40> H 1.2682 -2.6676 0.2214
| 41> H 0.7712 -4.3345 0.5405
| 42> H 0.6877 -3.6719 -1.1499
| 43> H 0.3032 -0.9506 -1.5094
| 44> H -0.3715 0.6538 -1.0969
| 45> H 2.6963 -0.9879 0.7919
| 46> H 5.4105 -0.2116 1.0954
| 47> H 6.4485 3.2177 -1.3359
| 48> H 4.1376 3.2935 -2.2371
| 49> H 0.6955 1.6348 -2.9083
| 50> H 0.9216 3.0591 -1.8091
| 51> H 2.1108 2.6992 -3.1244
| 52> H 0.8379 2.9295 0.8486
| 53> H -0.2605 5.0119 0.1595
| 54> H -4.0936 3.3413 1.2823
| 55> H -2.9822 1.2615 1.9562
| 56> H -4.5166 -1.8273 0.8842
| 57> H -5.3639 -4.0914 0.4323
| 58> H -4.9473 -6.4304 -0.2202
| 59> H -2.6513 -7.1969 -0.7188
| 60> H -0.7641 -5.6587 -0.5744
| 61> *
| 62> 
| 63>                          ****END OF INPUT****
================================================================================

                       ****************************
                       * Single Point Calculation *
                       ****************************

---------------------------------
CARTESIAN COORDINATES (ANGSTROEM)
---------------------------------
  C      0.539300   -3.440000   -0.074600
  C     -0.889100   -3.005700    0.159100
  C     -1.193200   -1.663500    0.503000
  N     -0.181100   -0.640800    0.543700
  C      0.317200   -0.142300   -0.747600
  C      1.728700    0.388000   -0.672100
  C      2.754600   -0.160600    0.098300
  C      3.861000    0.615100   -0.161300
  C      5.147300    0.547400    0.369200
  C      6.088800    1.499600   -0.065100
  Cl     7.723100    1.463800    0.570800
  C      5.721900    2.485900   -1.007900
  C      4.413900    2.529200   -1.524300
  C      3.498800    1.568500   -1.078700
  N      2.201700    1.421000   -1.424400
  C      1.441100    2.249500   -2.361400
  S     -0.202900    0.443100    1.913100
  O     -0.958400   -0.187800    3.052100
  O      1.196400    0.721900    2.388700
  C     -0.992500    1.952200    1.460000
  C     -0.237200    3.018000    0.950000
  C     -0.866400    4.204200    0.555500
  C     -2.262900    4.343000    0.673400
  C     -2.933900    5.600300    0.267300
  O     -2.266100    6.555300   -0.220100
  O     -4.309700    5.747500    0.422900
  C     -3.015900    3.267800    1.184400
  C     -2.384300    2.080700    1.572000
  N     -2.482700   -1.306500    0.752500
  C     -3.512900   -2.182000    0.685700
  C     -3.281000   -3.510500    0.324700
  C     -4.351000   -4.413100    0.227700
  C     -4.119900   -5.737400   -0.145900
  C     -2.824700   -6.168900   -0.427100
  C     -1.749200   -5.280200   -0.338400
  C     -1.957100   -3.936100    0.046900
  H      1.268200   -2.667600    0.221400
  H      0.771200   -4.334500    0.540500
  H      0.687700   -3.671900   -1.149900
  H      0.303200   -0.950600   -1.509400
  H     -0.371500    0.653800   -1.096900
  H      2.696300   -0.987900    0.791900
  H      5.410500   -0.211600    1.095400
  H      6.448500    3.217700   -1.335900
  H      4.137600    3.293500   -2.237100
  H      0.695500    1.634800   -2.908300
  H      0.921600    3.059100   -1.809100
  H      2.110800    2.699200   -3.124400
  H      0.837900    2.929500    0.848600
  H     -0.260500    5.011900    0.159500
  H     -4.093600    3.341300    1.282300
  H     -2.982200    1.261500    1.956200
  H     -4.516600   -1.827300    0.884200
  H     -5.363900   -4.091400    0.432300
  H     -4.947300   -6.430400   -0.220200
  H     -2.651300   -7.196900   -0.718800
  H     -0.764100   -5.658700   -0.574400

----------------------------
CARTESIAN COORDINATES (A.U.)
----------------------------
  NO LB      ZA    FRAG     MASS         X           Y           Z
   0 C     6.0000    0    12.011    1.019129   -6.500658   -0.140974
   1 C     6.0000    0    12.011   -1.680156   -5.679950    0.300655
   2 C     6.0000    0    12.011   -2.254821   -3.143559    0.950532
   3 N     7.0000    0    14.007   -0.342229   -1.210937    1.027444
   4 C     6.0000    0    12.011    0.599421   -0.268908   -1.412759
   5 C     6.0000    0    12.011    3.266770    0.733214   -1.270085
   6 C     6.0000    0    12.011    5.205440   -0.303490    0.185760
   7 C     6.0000    0    12.011    7.296233    1.162371   -0.304813
   8 C     6.0000    0    12.011    9.726987    1.034436    0.697687
   9 C     6.0000    0    12.011   11.506164    2.833833   -0.123021
  10 Cl   17.0000    0    35.453   14.594544    2.766181    1.078656
  11 C     6.0000    0    12.011   10.812824    4.697670   -1.904655
  12 C     6.0000    0    12.011    8.341062    4.779495   -2.880510
  13 C     6.0000    0    12.011    6.611774    2.964035   -2.038448
  14 N     7.0000    0    14.007    4.160610    2.685301   -2.691726
  15 C     6.0000    0    12.011    2.723284    4.250939   -4.462399
  16 S    16.0000    0    32.060   -0.383425    0.837338    3.615235
  17 O     8.0000    0    15.999   -1.811114   -0.354891    5.767633
  18 O     8.0000    0    15.999    2.260868    1.364193    4.513989
  19 C     6.0000    0    12.011   -1.875553    3.689123    2.759000
  20 C     6.0000    0    12.011   -0.448243    5.703193    1.795240
  21 C     6.0000    0    12.011   -1.637259    7.944787    1.049743
  22 C     6.0000    0    12.011   -4.276261    8.207081    1.272542
  23 C     6.0000    0    12.011   -5.544268   10.583033    0.505124
  24 O     8.0000    0    15.999   -4.282308   12.387722   -0.415929
  25 O     8.0000    0    15.999   -8.144153   10.861201    0.799165
  26 C     6.0000    0    12.011   -5.699225    6.175247    2.238192
  27 C     6.0000    0    12.011   -4.505674    3.931953    2.970649
  28 N     7.0000    0    14.007   -4.691623   -2.468927    1.422019
  29 C     6.0000    0    12.011   -6.638419   -4.123382    1.295785
  30 C     6.0000    0    12.011   -6.200191   -6.633884    0.613594
  31 C     6.0000    0    12.011   -8.222198   -8.339550    0.430291
  32 C     6.0000    0    12.011   -7.785483  -10.842115   -0.275711
  33 C     6.0000    0    12.011   -5.337909  -11.657532   -0.807102
  34 C     6.0000    0    12.011   -3.305509   -9.978132   -0.639483
  35 C     6.0000    0    12.011   -3.698383   -7.438151    0.088628
  36 H     1.0000    0     1.008    2.396551   -5.041033    0.418385
  37 H     1.0000    0     1.008    1.457357   -8.191018    1.021397
  38 H     1.0000    0     1.008    1.299565   -6.938885   -2.172996
  39 H     1.0000    0     1.008    0.572965   -1.796374   -2.852353
  40 H     1.0000    0     1.008   -0.702033    1.235503   -2.072841
  41 H     1.0000    0     1.008    5.095269   -1.866860    1.496474
  42 H     1.0000    0     1.008   10.224363   -0.399866    2.070006
  43 H     1.0000    0     1.008   12.185899    6.080572   -2.524485
  44 H     1.0000    0     1.008    7.818931    6.223813   -4.227506
  45 H     1.0000    0     1.008    1.314305    3.089324   -5.495891
  46 H     1.0000    0     1.008    1.741572    5.780861   -3.418704
  47 H     1.0000    0     1.008    3.988834    5.100749   -5.904260
  48 H     1.0000    0     1.008    1.583402    5.535953    1.603622
  49 H     1.0000    0     1.008   -0.492274    9.471118    0.301411
  50 H     1.0000    0     1.008   -7.735783    6.314142    2.423196
  51 H     1.0000    0     1.008   -5.635541    2.383890    3.696682
  52 H     1.0000    0     1.008   -8.535137   -3.453097    1.670896
  53 H     1.0000    0     1.008  -10.136302   -7.731626    0.816929
  54 H     1.0000    0     1.008   -9.349042  -12.151695   -0.416118
  55 H     1.0000    0     1.008   -5.010231  -13.600170   -1.358335
  56 H     1.0000    0     1.008   -1.443940  -10.693393   -1.085459

--------------------------------
INTERNAL COORDINATES (ANGSTROEM)
--------------------------------
 C      0   0   0     0.000000000000     0.00000000     0.00000000
 C      1   0   0     1.511144844150     0.00000000     0.00000000
 C      2   1   0     1.418536168027   120.80128430     0.00000000
 N      3   2   1     1.439415919740   121.89623507     4.86259313
 C      4   3   2     1.471142695322   117.00684630    74.29687991
 C      5   4   3     1.509718712211   113.06709341   206.98820745
 C      6   5   4     1.395331118409   125.23371324    37.66809038
 C      7   6   5     1.375944624612   105.38978982   178.57759908
 C      8   7   6     1.393047461503   130.03366478   177.59272295
 C      9   8   7     1.407737042206   117.85241004   181.25773451
 Cl    10   9   8     1.754020222232   119.83491788   179.91291698
 C     10   9   8     1.412896011743   120.28926208     0.08964536
 C     12  10   9     1.406914300873   120.51930957     0.00000000
 C      8   7   6     1.371781017510   107.79914133   358.68548901
 N     14   8   7     1.350456644991   110.41939905   359.41169797
 C     15  14   8     1.463862565270   126.94825153   179.23982856
 S      4   3   2     1.746588334439   117.02079092   224.45297877
 O     17   4   3     1.505369077668   109.84062705    20.77982846
 O     17   4   3     1.503983141528   110.57068270   139.60612274
 C     17   4   3     1.762427468011   109.59709128   260.83259892
 C     20  17   4     1.402322263248   120.19692853   269.21940058
 C     21  20  17     1.399497527686   120.30180084   178.25857624
 C     22  21  20     1.408324571965   120.38130293     0.35994709
 C     23  22  21     1.481877694009   120.64256002   179.52140806
 O     24  23  22     1.263147101489   120.51902745     1.66030833
 O     24  23  22     1.392373814749   120.43006570   181.92326151
 C     23  22  21     1.408611032187   119.02699181   359.54058686
 C     27  23  22     1.399413709380   120.44482990     0.15392990
 N      3   2   1     1.361069248789   119.71744175   182.19885831
 C     29   3   2     1.353615355262   122.84437015   359.84815283
 C     30  29   3     1.396069790519   120.12059169   358.79548619
 C     31  30  29     1.403209093471   120.21973725   181.33028877
 C     32  31  30     1.395261502372   120.18107324   179.37073794
 C     33  32  31     1.393846738347   120.11648628   359.87162142
 C     34  33  32     1.397982700179   120.34979899   359.94770309
 C     35  34  33     1.413606490506   120.57019448     0.48701604
 H      1   2   3     1.102503047615   112.46150274     9.93413776
 H      1   2   3     1.110070209491   110.08171547   128.03597483
 H      1   2   3     1.109986603523   109.64774161   249.06634682
 H      5   4   3     1.110803371439   110.55642434   327.64502619
 H      5   4   3     1.109095753305   108.01934200    84.85353076
 H      7   6   5     1.081159164971   127.98191487   355.88886798
 H      9   8   7     1.082922748861   120.92117493     0.99340768
 H     12  10   9     1.082156550597   119.99722479   179.78779839
 H     13  12  10     1.081008797374   120.09318472   179.32338674
 H     16  15  14     1.110349071238   110.53926356   146.02694021
 H     16  15  14     1.109219410216   109.73836663   266.97789535
 H     16  15  14     1.110359032025   110.83537947    27.67994009
 H     21  20  17     1.083491679710   120.42377579   358.81072412
 H     22  21  20     1.084578305149   118.87957354   180.31000840
 H     27  23  22     1.084630789716   120.80860071   180.35095101
 H     28  27  23     1.084519566444   119.34429484   180.45173350
 H     30  29   3     1.082879508533   118.98109793   180.77883954
 H     32  31  30     1.082274669389   120.62326593   359.90373563
 H     33  32  31     1.081831895444   119.98102505   180.03402620
 H     34  33  32     1.082561984369   119.81308618   180.14487082
 H     35  34  33     1.081378869777   117.67622052   180.52446299

---------------------------
INTERNAL COORDINATES (A.U.)
---------------------------
 C      0   0   0     0.000000000000     0.00000000     0.00000000
 C      1   0   0     2.855649904130     0.00000000     0.00000000
 C      2   1   0     2.680644868633   120.80128430     0.00000000
 N      3   2   1     2.720101881114   121.89623507     4.86259313
 C      4   3   2     2.780056798078   117.00684630    74.29687991
 C      5   4   3     2.852954905335   113.06709341   206.98820745
 C      6   5   4     2.636793679931   125.23371324    37.66809038
 C      7   6   5     2.600158515959   105.38978982   178.57759908
 C      8   7   6     2.632478193795   130.03366478   177.59272295
 C      9   8   7     2.660237478346   117.85241004   181.25773451
 Cl    10   9   8     3.314617853379   119.83491788   179.91291698
 C     10   9   8     2.669986517904   120.28926208     0.08964536
 C     12  10   9     2.658682722547   120.51930957     0.00000000
 C      8   7   6     2.592290438805   107.79914133   358.68548901
 N     14   8   7     2.551993214767   110.41939905   359.41169797
 C     15  14   8     2.766299346060   126.94825153   179.23982856
 S      4   3   2     3.300573620792   117.02079092   224.45297877
 O     17   4   3     2.844735287267   109.84062705    20.77982846
 O     17   4   3     2.842116247522   110.57068270   139.60612274
 C     17   4   3     3.330505245441   109.59709128   260.83259892
 C     20  17   4     2.650005029039   120.19692853   269.21940058
 C     21  20  17     2.644667052427   120.30180084   178.25857624
 C     22  21  20     2.661347748685   120.38130293     0.35994709
 C     23  22  21     2.800343005643   120.64256002   179.52140806
 O     24  23  22     2.387002088671   120.51902745     1.66030833
 O     24  23  22     2.631205185920   120.43006570   181.92326151
 C     23  22  21     2.661889080054   119.02699181   359.54058686
 C     27  23  22     2.644508658783   120.44482990     0.15392990
 N      3   2   1     2.572048129514   119.71744175   182.19885831
 C     29   3   2     2.557962312115   122.84437015   359.84815283
 C     30  29   3     2.638189567922   120.12059169   358.79548619
 C     31  30  29     2.651680895288   120.21973725   181.33028877
 C     32  31  30     2.636662124686   120.18107324   179.37073794
 C     33  32  31     2.633988608135   120.11648628   359.87162142
 C     34  33  32     2.641804443298   120.34979899   359.94770309
 C     35  34  33     2.671329128189   120.57019448     0.48701604
 H      1   2   3     2.083428821806   112.46150274     9.93413776
 H      1   2   3     2.097728685363   110.08171547   128.03597483
 H      1   2   3     2.097570692979   109.64774161   249.06634682
 H      5   4   3     2.099114160656   110.55642434   327.64502619
 H      5   4   3     2.095887230042   108.01934200    84.85353076
 H      7   6   5     2.043094728973   127.98191487   355.88886798
 H      9   8   7     2.046427419540   120.92117493     0.99340768
 H     12  10   9     2.044979514657   119.99722479   179.78779839
 H     13  12  10     2.042810575396   120.09318472   179.32338674
 H     16  15  14     2.098255657694   110.53926356   146.02694021
 H     16  15  14     2.096120907738   109.73836663   266.97789535
 H     16  15  14     2.098274480854   110.83537947    27.67994009
 H     21  20  17     2.047502543034   120.42377579   358.81072412
 H     22  21  20     2.049555967524   118.87957354   180.31000840
 H     27  23  22     2.049655148982   120.80860071   180.35095101
 H     28  27  23     2.049444967458   119.34429484   180.45173350
 H     30  29   3     2.046345707162   118.98109793   180.77883954
 H     32  31  30     2.045202726824   120.62326593   359.90373563
 H     33  32  31     2.044366005330   119.98102505   180.03402620
 H     34  33  32     2.045745673451   119.81308618   180.14487082
 H     35  34  33     2.043509910888   117.67622052   180.52446299

---------------------
BASIS SET INFORMATION
---------------------
There are 6 groups of distinct atoms

 Group   1 Type C   : 10s4p1d contracted to 3s2p1d pattern {631/31/1}
 Group   2 Type N   : 10s4p1d contracted to 3s2p1d pattern {631/31/1}
 Group   3 Type Cl  : 16s10p1d contracted to 4s3p1d pattern {6631/631/1}
 Group   4 Type S   : 16s10p1d contracted to 4s3p1d pattern {6631/631/1}
 Group   5 Type O   : 10s4p1d contracted to 3s2p1d pattern {631/31/1}
 Group   6 Type H   : 4s contracted to 2s pattern {31}

Atom   0C    basis set group =>   1
Atom   1C    basis set group =>   1
Atom   2C    basis set group =>   1
Atom   3N    basis set group =>   2
Atom   4C    basis set group =>   1
Atom   5C    basis set group =>   1
Atom   6C    basis set group =>   1
Atom   7C    basis set group =>   1
Atom   8C    basis set group =>   1
Atom   9C    basis set group =>   1
Atom  10Cl   basis set group =>   3
Atom  11C    basis set group =>   1
Atom  12C    basis set group =>   1
Atom  13C    basis set group =>   1
Atom  14N    basis set group =>   2
Atom  15C    basis set group =>   1
Atom  16S    basis set group =>   4
Atom  17O    basis set group =>   5
Atom  18O    basis set group =>   5
Atom  19C    basis set group =>   1
Atom  20C    basis set group =>   1
Atom  21C    basis set group =>   1
Atom  22C    basis set group =>   1
Atom  23C    basis set group =>   1
Atom  24O    basis set group =>   5
Atom  25O    basis set group =>   5
Atom  26C    basis set group =>   1
Atom  27C    basis set group =>   1
Atom  28N    basis set group =>   2
Atom  29C    basis set group =>   1
Atom  30C    basis set group =>   1
Atom  31C    basis set group =>   1
Atom  32C    basis set group =>   1
Atom  33C    basis set group =>   1
Atom  34C    basis set group =>   1
Atom  35C    basis set group =>   1
Atom  36H    basis set group =>   6
Atom  37H    basis set group =>   6
Atom  38H    basis set group =>   6
Atom  39H    basis set group =>   6
Atom  40H    basis set group =>   6
Atom  41H    basis set group =>   6
Atom  42H    basis set group =>   6
Atom  43H    basis set group =>   6
Atom  44H    basis set group =>   6
Atom  45H    basis set group =>   6
Atom  46H    basis set group =>   6
Atom  47H    basis set group =>   6
Atom  48H    basis set group =>   6
Atom  49H    basis set group =>   6
Atom  50H    basis set group =>   6
Atom  51H    basis set group =>   6
Atom  52H    basis set group =>   6
Atom  53H    basis set group =>   6
Atom  54H    basis set group =>   6
Atom  55H    basis set group =>   6
Atom  56H    basis set group =>   6
---------------------------------
AUXILIARY/J BASIS SET INFORMATION
---------------------------------
There are 6 groups of distinct atoms

 Group   1 Type C   : 12s5p4d2f1g contracted to 6s4p3d1f1g pattern {711111/2111/211/2/1}
 Group   2 Type N   : 12s5p4d2f1g contracted to 6s4p3d1f1g pattern {711111/2111/211/2/1}
 Group   3 Type Cl  : 14s5p5d2f1g contracted to 8s4p3d1f1g pattern {71111111/2111/311/2/1}
 Group   4 Type S   : 14s5p5d2f1g contracted to 8s4p3d1f1g pattern {71111111/2111/311/2/1}
 Group   5 Type O   : 12s5p4d2f1g contracted to 6s4p3d1f1g pattern {711111/2111/211/2/1}
 Group   6 Type H   : 5s2p1d contracted to 3s1p1d pattern {311/2/1}

Atom   0C    basis set group =>   1
Atom   1C    basis set group =>   1
Atom   2C    basis set group =>   1
Atom   3N    basis set group =>   2
Atom   4C    basis set group =>   1
Atom   5C    basis set group =>   1
Atom   6C    basis set group =>   1
Atom   7C    basis set group =>   1
Atom   8C    basis set group =>   1
Atom   9C    basis set group =>   1
Atom  10Cl   basis set group =>   3
Atom  11C    basis set group =>   1
Atom  12C    basis set group =>   1
Atom  13C    basis set group =>   1
Atom  14N    basis set group =>   2
Atom  15C    basis set group =>   1
Atom  16S    basis set group =>   4
Atom  17O    basis set group =>   5
Atom  18O    basis set group =>   5
Atom  19C    basis set group =>   1
Atom  20C    basis set group =>   1
Atom  21C    basis set group =>   1
Atom  22C    basis set group =>   1
Atom  23C    basis set group =>   1
Atom  24O    basis set group =>   5
Atom  25O    basis set group =>   5
Atom  26C    basis set group =>   1
Atom  27C    basis set group =>   1
Atom  28N    basis set group =>   2
Atom  29C    basis set group =>   1
Atom  30C    basis set group =>   1
Atom  31C    basis set group =>   1
Atom  32C    basis set group =>   1
Atom  33C    basis set group =>   1
Atom  34C    basis set group =>   1
Atom  35C    basis set group =>   1
Atom  36H    basis set group =>   6
Atom  37H    basis set group =>   6
Atom  38H    basis set group =>   6
Atom  39H    basis set group =>   6
Atom  40H    basis set group =>   6
Atom  41H    basis set group =>   6
Atom  42H    basis set group =>   6
Atom  43H    basis set group =>   6
Atom  44H    basis set group =>   6
Atom  45H    basis set group =>   6
Atom  46H    basis set group =>   6
Atom  47H    basis set group =>   6
Atom  48H    basis set group =>   6
Atom  49H    basis set group =>   6
Atom  50H    basis set group =>   6
Atom  51H    basis set group =>   6
Atom  52H    basis set group =>   6
Atom  53H    basis set group =>   6
Atom  54H    basis set group =>   6
Atom  55H    basis set group =>   6
Atom  56H    basis set group =>   6
------------------------------------------------------------------------------
                             ORCA STARTUP CALCULATIONS
                           -- RI-GTO INTEGRALS CHOSEN --
------------------------------------------------------------------------------
------------------------------------------------------------------------------
                   ___                                                        
                  /   \      - P O W E R E D   B Y -                         
                 /     \                                                     
                 |  |  |   _    _      __       _____    __    __             
                 |  |  |  | |  | |    /  \     |  _  \  |  |  /  |          
                  \  \/   | |  | |   /    \    | | | |  |  | /  /          
                 / \  \   | |__| |  /  /\  \   | |_| |  |  |/  /          
                |  |  |   |  __  | /  /__\  \  |    /   |      \           
                |  |  |   | |  | | |   __   |  |    \   |  |\   \          
                \     /   | |  | | |  |  |  |  | |\  \  |  | \   \       
                 \___/    |_|  |_| |__|  |__|  |_| \__\ |__|  \__/        
                                                                              
                      - O R C A' S   B I G   F R I E N D -                    
                                      &                                       
                       - I N T E G R A L  F E E D E R -                       
                                                                              
 v1 FN, 2020, v2 2021, v3 2022-2024                                           
------------------------------------------------------------------------------


----------------------
SHARK INTEGRAL PACKAGE
----------------------

Number of atoms                             ...     57
Number of basis functions                   ...    554
Number of shells                            ...    262
Maximum angular momentum                    ...      2
Integral batch strategy                     ... SHARK/LIBINT Hybrid
RI-J (if used) integral strategy            ... SPLIT-RIJ (Revised 2003 algorithm where possible)
Printlevel                                  ...      1
Contraction scheme used                     ... SEGMENTED contraction
Prescreening option                         ... SCHWARTZ
   Thresh                                   ... 1.000e-10
   Tcut                                     ... 1.000e-11
   Tpresel                                  ... 1.000e-11 
Coulomb Range Separation                    ... NOT USED
Exchange Range Separation                   ... NOT USED
Multipole approximations                    ... NOT USED
Finite Nucleus Model                        ... NOT USED
CABS basis                                  ... NOT available
Auxiliary Coulomb fitting basis             ... AVAILABLE
   # of basis functions in Aux-J            ...   1999
   # of shells in Aux-J                     ...    649
   Maximum angular momentum in Aux-J        ...      4
Auxiliary J/K fitting basis                 ... NOT available
Auxiliary Correlation fitting basis         ... NOT available
Auxiliary 'external' fitting basis          ... NOT available

Checking pre-screening integrals            ... done (  0.0 sec) Dimension = 262
Check shell pair data                       ... done (  0.0 sec)
Shell pair information
Shell pair cut-off parameter TPreSel        ...   1.0e-11
Total number of shell pairs                 ...     34453
Shell pairs after pre-screening             ...     18697
Total number of primitive shell pairs       ...    211155
Primitive shell pairs kept                  ...     57623
          la=0 lb=0:   5963 shell pairs
          la=1 lb=0:   6660 shell pairs
          la=1 lb=1:   1868 shell pairs
          la=2 lb=0:   2474 shell pairs
          la=2 lb=1:   1462 shell pairs
          la=2 lb=2:    270 shell pairs

Calculating one electron integrals          ... done (  0.3 sec)
Calculating RI/J V-Matrix + Cholesky decomp.... done (  0.6 sec)
Calculating Nuclear repulsion               ... done (  0.0 sec) ENN=   4097.548815707517 Eh

Diagonalization of the overlap matrix:
Smallest eigenvalue                        ... 3.523e-04
Time for diagonalization                   ...    0.054 sec
Threshold for overlap eigenvalues          ... 1.000e-07
Number of eigenvalues below threshold      ... 0
Time for construction of square roots      ...    0.226 sec
Total time needed                          ...    0.362 sec

-------------------
DFT GRID GENERATION
-------------------

General Integration Accuracy     IntAcc      ... 4.388
Radial Grid Type                 RadialGrid  ... OptM3 with GC (2021)
Angular Grid (max. ang.)         AngularGrid ... 4 (Lebedev-302)
Angular grid pruning method      GridPruning ... 4 (adaptive)
Weight generation scheme         WeightScheme... mBecke (2022)
Basis function cutoff            BFCut       ... 1.0000e-10
Integration weight cutoff        WCut        ... 1.0000e-14
Partially contracted basis set               ... off
Rotationally invariant grid construction     ... off
Angular grids for H and He will be reduced by one unit

Total number of grid points                  ...   283623
Total number of batches                      ...     4461
Average number of points per batch           ...       63
Average number of grid points per atom       ...     4976

--------------------
COSX GRID GENERATION
--------------------

GRIDX 1
-------
General Integration Accuracy     IntAcc      ... 3.816
Radial Grid Type                 RadialGrid  ... OptM3 with GC (2021)
Angular Grid (max. ang.)         AngularGrid ... 1 (Lebedev-50)
Angular grid pruning method      GridPruning ... 4 (adaptive)
Weight generation scheme         WeightScheme... mBecke (2022)
Basis function cutoff            BFCut       ... 1.0000e-10
Integration weight cutoff        WCut        ... 1.0000e-14
Partially contracted basis set               ... on
Rotationally invariant grid construction     ... off
Angular grids for H and He will be reduced by one unit

Total number of grid points                  ...    37898
Total number of batches                      ...      327
Average number of points per batch           ...      115
Average number of grid points per atom       ...      665
UseSFitting                                  ... on

GRIDX 2
-------
General Integration Accuracy     IntAcc      ... 4.020
Radial Grid Type                 RadialGrid  ... OptM3 with GC (2021)
Angular Grid (max. ang.)         AngularGrid ... 2 (Lebedev-110)
Angular grid pruning method      GridPruning ... 4 (adaptive)
Weight generation scheme         WeightScheme... mBecke (2022)
Basis function cutoff            BFCut       ... 1.0000e-10
Integration weight cutoff        WCut        ... 1.0000e-14
Partially contracted basis set               ... on
Rotationally invariant grid construction     ... off
Angular grids for H and He will be reduced by one unit

Total number of grid points                  ...    78338
Total number of batches                      ...      644
Average number of points per batch           ...      121
Average number of grid points per atom       ...     1374
UseSFitting                                  ... on

GRIDX 3
-------
General Integration Accuracy     IntAcc      ... 4.338
Radial Grid Type                 RadialGrid  ... OptM3 with GC (2021)
Angular Grid (max. ang.)         AngularGrid ... 3 (Lebedev-194)
Angular grid pruning method      GridPruning ... 4 (adaptive)
Weight generation scheme         WeightScheme... mBecke (2022)
Basis function cutoff            BFCut       ... 1.0000e-10
Integration weight cutoff        WCut        ... 1.0000e-14
Partially contracted basis set               ... on
Rotationally invariant grid construction     ... off
Angular grids for H and He will be reduced by one unit

Total number of grid points                  ...   172282
Total number of batches                      ...     1377
Average number of points per batch           ...      125
Average number of grid points per atom       ...     3022
UseSFitting                                  ... on
Initializing property integral containers    ... done (  0.0 sec)

SHARK setup successfully completed in  17.3 seconds

Maximum memory used throughout the entire STARTUP-calculation: 126.1 MB
-------------------------------------------------------------------------------
                                 ORCA GUESS
                   Start orbitals & Density for SCF / CASSCF
-------------------------------------------------------------------------------

------------
SCF SETTINGS
------------
Hamiltonian:
 Density Functional     Method          .... DFT(GTOs)
 Exchange Functional    Exchange        .... B88
   X-Alpha parameter    XAlpha          ....  0.666667
   Becke's b parameter  XBeta           ....  0.004200
 Correlation Functional Correlation     .... LYP
 LDA part of GGA corr.  LDAOpt          .... VWN-5
 Gradients option       PostSCFGGA      .... off
 Hybrid DFT is turned on
   Fraction HF Exchange ScalHFX         ....  0.200000
   Scaling of DF-GGA-X  ScalDFX         ....  0.720000
   Scaling of DF-GGA-C  ScalDFC         ....  0.810000
   Scaling of DF-LDA-C  ScalLDAC        ....  1.000000
   Perturbative correction              ....  0.000000
   NL short-range parameter             ....  4.800000
 RI-approximation to the Coulomb term is turned on
   Number of AuxJ basis functions       .... 1999
   RIJ-COSX (HFX calculated with COS-X)).... on


General Settings:
 Integral files         IntName         .... /home/nmrbox/aojoawo/Documents/ERDOS/inputs/CHEMBL3682574
 Hartree-Fock type      HFTyp           .... RHF
 Total Charge           Charge          ....   -1
 Multiplicity           Mult            ....    1
 Number of Electrons    NEL             ....  270
 Basis Dimension        Dim             ....  554
 Nuclear Repulsion      ENuc            ....   4097.5488157075 Eh

Convergence Acceleration:
 AO-DIIS                CNVDIIS         .... on
   Start iteration      DIISMaxIt       ....    12
   Startup error        DIISStart       ....  0.200000
   # of expansion vecs  DIISMaxEq       ....     5
   Bias factor          DIISBfac        ....   1.050
   Max. coefficient     DIISMaxC        ....  10.000
 MO-DIIS                CNVKDIIS        .... off
 Trust-Rad. Augm. Hess. CNVTRAH         .... auto
   Auto Start mean grad. ratio tolernc. ....  1.125000
   Auto Start start iteration           ....    50
   Auto Start num. interpolation iter.  ....    10
   Max. Number of Micro iterations      ....    24
   Max. Number of Macro iterations      .... Maxiter - #DIIS iter
   Number of Davidson start vectors     ....     2
   Converg. threshold    (grad. norm)   ....   5.000e-05
   Grad. Scal. Fac. for Micro threshold ....   0.100
   Minimum threshold for Micro iter.    ....   1.000e-02
   NR start threshold (gradient norm)   ....   1.000e-04
   Initial trust radius                 ....   0.400
   Minimum AH scaling param. (alpha)    ....   1.000
   Maximum AH scaling param. (alpha)    .... 1000.000
   Quad. conv. algorithm                .... NR
   White noise on init. David. guess    .... on
   Maximum white noise                  ....   0.010
   Pseudo random numbers                .... off
   Inactive MOs                         .... canonical
   Orbital update algorithm             .... Taylor
   Preconditioner                       .... Diag
   Full preconditioner red. dimension   ....   250
 SOSCF                  CNVSOSCF        .... on
   Start iteration      SOSCFMaxIt      ....   150
   Startup grad/error   SOSCFStart      ....  0.003300
   Hessian update       SOSCFHessUp     .... L-BFGS
 Level Shifting         CNVShift        .... on
   Level shift para.    LevelShift      ....    0.2500
   Turn off err/grad.   ShiftErr        ....    0.0010
 Zerner damping         CNVZerner       .... off
 Static damping         CNVDamp         .... on
   Fraction old density DampFac         ....    0.7000
   Max. Damping (<1)    DampMax         ....    0.9800
   Min. Damping (>=0)   DampMin         ....    0.0000
   Turn off err/grad.   DampErr         ....    0.1000

SCF Procedure:
 Maximum # iterations   MaxIter         ....   125
 SCF integral mode      SCFMode         .... Direct
   Integral package                     .... SHARK and LIBINT hybrid scheme
 Reset frequency        DirectResetFreq ....    20
 Integral Threshold     Thresh          ....  1.000e-10 Eh
 Primitive CutOff       TCut            ....  1.000e-11 Eh

Convergence Tolerance:
 Convergence Check Mode ConvCheckMode   .... Total+1el-Energy
 Convergence forced     ConvForced      .... 0
 Energy Change          TolE            ....  1.000e-06 Eh
 1-El. energy change                    ....  1.000e-03 Eh
 Orbital Gradient       TolG            ....  5.000e-05
 Orbital Rotation angle TolX            ....  5.000e-05
 DIIS Error             TolErr          ....  1.000e-06

------------------------------
INITIAL GUESS: MODEL POTENTIAL
------------------------------
Loading Hartree-Fock densities                     ... done
Calculating cut-offs                               ... done
Initializing the effective Hamiltonian             ... done
Setting up the integral package (SHARK)            ... done
Starting the Coulomb interaction                   ... done (   5.0 sec)
Making the grid                                    ... done (   2.2 sec)
Mapping shells                                     ... done
Starting the XC term evaluation                    ... done (   1.5 sec)
  promolecular density results
     # of electrons  =    268.990790000
     EX              =   -250.173720142
     EC              =     -9.492057035
     EX+EC           =   -259.665777177
Transforming the Hamiltonian                       ... done (   0.0 sec)
Diagonalizing the Hamiltonian                      ... done (   0.1 sec)
Back transforming the eigenvectors                 ... done (   0.0 sec)
Now organizing SCF variables                       ... done
                      ------------------
                      INITIAL GUESS DONE (   8.9 sec)
                      ------------------
             **** ENERGY FILE WAS UPDATED (/home/nmrbox/aojoawo/Documents/ERDOS/inputs/CHEMBL3682574.en.tmp) ****
Finished Guess after   9.5 sec
Maximum memory used throughout the entire GUESS-calculation: 69.5 MB

-------------------------------------------------------------------------------------------
                                      ORCA LEAN-SCF
                              memory conserving SCF solver
-------------------------------------------------------------------------------------------

----------------------------------------D-I-I-S--------------------------------------------
Iteration    Energy (Eh)           Delta-E    RMSDP     MaxDP     DIISErr   Damp  Time(sec)
-------------------------------------------------------------------------------------------
               ***  Starting incremental Fock matrix formation  ***
    1    -2362.8856428487015364     0.00e+00  2.67e-03  1.91e-01  3.25e-01  0.700  89.3
Warning: op=0 Small HOMO/LUMO gap (  -0.052) - skipping pre-diagonalization
         Will do a full diagonalization
    2    -2363.3979143766837296    -5.12e-01  1.63e-03  9.68e-02  1.23e-01  0.700  40.6
                               ***Turning on AO-DIIS***
    3    -2363.5852058153977850    -1.87e-01  6.74e-04  1.93e-02  3.68e-02  0.700  39.8
    4    -2363.7010726156395322    -1.16e-01  1.18e-03  4.06e-02  1.74e-02  0.000  36.9
    5    -2363.9594071802694089    -2.58e-01  2.72e-04  1.14e-02  8.33e-03  0.000  38.9
                              *** Initializing SOSCF ***
---------------------------------------S-O-S-C-F--------------------------------------
Iteration    Energy (Eh)           Delta-E    RMSDP     MaxDP     MaxGrad    Time(sec)
--------------------------------------------------------------------------------------
    6    -2363.9612788836257096    -1.87e-03  9.57e-05  3.78e-03  2.50e-03    33.0
               *** Restarting incremental Fock matrix formation ***
    7    -2363.9614303009730065    -1.51e-04  7.89e-05  3.08e-03  1.07e-03    90.3
    8    -2363.9614228052023464     7.50e-06  4.36e-05  2.09e-03  1.01e-03    51.7
    9    -2363.9614981464437733    -7.53e-05  1.95e-05  1.33e-03  3.28e-04    46.4
   10    -2363.9614951594130616     2.99e-06  1.13e-05  8.71e-04  3.55e-04    41.0
   11    -2363.9615020795590681    -6.92e-06  5.21e-06  2.84e-04  6.55e-05    34.9
   12    -2363.9615020088249366     7.07e-08  3.02e-06  1.56e-04  7.77e-05    32.4
                 **** Energy Check signals convergence ****

               *****************************************************
               *                     SUCCESS                       *
               *           SCF CONVERGED AFTER  12 CYCLES          *
               *****************************************************

Recomputing exchange energy using gridx3       ... done (  158.138 sec)
Old exchange energy                            :    -50.627596060 Eh
New exchange energy                            :    -50.627659980 Eh
Exchange energy change after final integration :     -0.000063920 Eh
Total energy after final integration           :  -2363.961565929 Eh
             **** ENERGY FILE WAS UPDATED (/home/nmrbox/aojoawo/Documents/ERDOS/inputs/CHEMBL3682574.en.tmp) ****

----------------
TOTAL SCF ENERGY
----------------

Total Energy       :      -2363.96156592891884 Eh          -64326.66451 eV

Components:
Nuclear Repulsion  :       4097.54881570751695 Eh          111499.97182 eV
Electronic Energy  :      -6461.51031771634189 Eh         -175826.63460 eV
One Electron Energy:     -11414.52377301707565 Eh         -310604.98272 eV
Two Electron Energy:       4953.01345530073377 Eh          134778.34812 eV

Virial components:
Potential Energy   :      -4716.94171386177004 Eh         -128354.50945 eV
Kinetic Energy     :       2352.98014793285074 Eh           64027.84494 eV
Virial Ratio       :          2.00466702534899

DFT components:
N(Alpha)           :      135.000049744983 electrons
N(Beta)            :      135.000049744983 electrons
N(Total)           :      270.000099489965 electrons
E(X)               :     -201.159799337901 Eh       
E(C)               :      -11.184500527391 Eh       
E(XC)              :     -212.344299865292 Eh       

---------------
SCF CONVERGENCE
---------------

  Last Energy change         ...   -7.0734e-08  Tolerance :   1.0000e-06
  Last MAX-Density change    ...    1.5609e-04  Tolerance :   1.0000e-05
  Last RMS-Density change    ...    3.0201e-06  Tolerance :   1.0000e-06
  Last DIIS Error            ...    2.4951e-03  Tolerance :   1.0000e-06
  Last Orbital Gradient      ...    7.7683e-05  Tolerance :   5.0000e-05
  Last Orbital Rotation      ...    1.2038e-04  Tolerance :   5.0000e-05


----------------
ORBITAL ENERGIES
----------------

  NO   OCC          E(Eh)            E(eV) 
   0   2.0000    -101.454280     -2760.7113 
   1   2.0000     -89.000699     -2421.8321 
   2   2.0000     -19.030336      -517.8418 
   3   2.0000     -19.028743      -517.7984 
   4   2.0000     -18.907743      -514.5058 
   5   2.0000     -18.887169      -513.9460 
   6   2.0000     -14.315457      -389.5434 
   7   2.0000     -14.297436      -389.0530 
   8   2.0000     -14.265182      -388.1753 
   9   2.0000     -10.196680      -277.4658 
  10   2.0000     -10.172016      -276.7946 
  11   2.0000     -10.166120      -276.6342 
  12   2.0000     -10.165108      -276.6066 
  13   2.0000     -10.161048      -276.4962 
  14   2.0000     -10.148068      -276.1430 
  15   2.0000     -10.146797      -276.1084 
  16   2.0000     -10.145166      -276.0640 
  17   2.0000     -10.142013      -275.9782 
  18   2.0000     -10.140355      -275.9331 
  19   2.0000     -10.138866      -275.8926 
  20   2.0000     -10.138617      -275.8858 
  21   2.0000     -10.138561      -275.8843 
  22   2.0000     -10.138334      -275.8781 
  23   2.0000     -10.124408      -275.4991 
  24   2.0000     -10.120460      -275.3917 
  25   2.0000     -10.118293      -275.3328 
  26   2.0000     -10.115436      -275.2550 
  27   2.0000     -10.114921      -275.2410 
  28   2.0000     -10.100744      -274.8552 
  29   2.0000     -10.095850      -274.7221 
  30   2.0000     -10.093582      -274.6603 
  31   2.0000     -10.090213      -274.5687 
  32   2.0000     -10.088785      -274.5298 
  33   2.0000     -10.076561      -274.1972 
  34   2.0000     -10.075162      -274.1591 
  35   2.0000     -10.072463      -274.0857 
  36   2.0000      -9.386228      -255.4122 
  37   2.0000      -8.036621      -218.6876 
  38   2.0000      -7.149048      -194.5355 
  39   2.0000      -7.139883      -194.2861 
  40   2.0000      -7.139729      -194.2819 
  41   2.0000      -6.002141      -163.3266 
  42   2.0000      -5.999632      -163.2583 
  43   2.0000      -5.998656      -163.2317 
  44   2.0000      -0.988091       -26.8873 
  45   2.0000      -0.937707       -25.5163 
  46   2.0000      -0.892677       -24.2910 
  47   2.0000      -0.865421       -23.5493 
  48   2.0000      -0.844275       -22.9739 
  49   2.0000      -0.815282       -22.1850 
  50   2.0000      -0.807952       -21.9855 
  51   2.0000      -0.804322       -21.8867 
  52   2.0000      -0.764506       -20.8033 
  53   2.0000      -0.755488       -20.5579 
  54   2.0000      -0.746717       -20.3192 
  55   2.0000      -0.732692       -19.9376 
  56   2.0000      -0.716546       -19.4982 
  57   2.0000      -0.697237       -18.9728 
  58   2.0000      -0.689848       -18.7717 
  59   2.0000      -0.680295       -18.5118 
  60   2.0000      -0.673401       -18.3242 
  61   2.0000      -0.662803       -18.0358 
  62   2.0000      -0.642419       -17.4811 
  63   2.0000      -0.637230       -17.3399 
  64   2.0000      -0.623978       -16.9793 
  65   2.0000      -0.615143       -16.7389 
  66   2.0000      -0.589213       -16.0333 
  67   2.0000      -0.585087       -15.9210 
  68   2.0000      -0.552823       -15.0431 
  69   2.0000      -0.537372       -14.6226 
  70   2.0000      -0.535769       -14.5790 
  71   2.0000      -0.517866       -14.0918 
  72   2.0000      -0.507596       -13.8124 
  73   2.0000      -0.500433       -13.6175 
  74   2.0000      -0.493889       -13.4394 
  75   2.0000      -0.472003       -12.8438 
  76   2.0000      -0.459144       -12.4939 
  77   2.0000      -0.456910       -12.4331 
  78   2.0000      -0.442594       -12.0436 
  79   2.0000      -0.436591       -11.8802 
  80   2.0000      -0.423204       -11.5160 
  81   2.0000      -0.421143       -11.4599 
  82   2.0000      -0.414026       -11.2662 
  83   2.0000      -0.403463       -10.9788 
  84   2.0000      -0.393574       -10.7097 
  85   2.0000      -0.391332       -10.6487 
  86   2.0000      -0.386701       -10.5227 
  87   2.0000      -0.384568       -10.4646 
  88   2.0000      -0.378239       -10.2924 
  89   2.0000      -0.375854       -10.2275 
  90   2.0000      -0.372230       -10.1289 
  91   2.0000      -0.368117       -10.0170 
  92   2.0000      -0.356407        -9.6983 
  93   2.0000      -0.355437        -9.6719 
  94   2.0000      -0.349041        -9.4979 
  95   2.0000      -0.344458        -9.3732 
  96   2.0000      -0.337937        -9.1957 
  97   2.0000      -0.335648        -9.1334 
  98   2.0000      -0.335042        -9.1170 
  99   2.0000      -0.332937        -9.0597 
 100   2.0000      -0.324975        -8.8430 
 101   2.0000      -0.323111        -8.7923 
 102   2.0000      -0.320844        -8.7306 
 103   2.0000      -0.315906        -8.5962 
 104   2.0000      -0.309710        -8.4276 
 105   2.0000      -0.301374        -8.2008 
 106   2.0000      -0.295209        -8.0331 
 107   2.0000      -0.293299        -7.9811 
 108   2.0000      -0.291609        -7.9351 
 109   2.0000      -0.290226        -7.8974 
 110   2.0000      -0.281800        -7.6682 
 111   2.0000      -0.272346        -7.4109 
 112   2.0000      -0.244266        -6.6468 
 113   2.0000      -0.240480        -6.5438 
 114   2.0000      -0.237791        -6.4706 
 115   2.0000      -0.234850        -6.3906 
 116   2.0000      -0.229566        -6.2468 
 117   2.0000      -0.228927        -6.2294 
 118   2.0000      -0.219672        -5.9776 
 119   2.0000      -0.212080        -5.7710 
 120   2.0000      -0.208774        -5.6810 
 121   2.0000      -0.199884        -5.4391 
 122   2.0000      -0.195008        -5.3064 
 123   2.0000      -0.190425        -5.1817 
 124   2.0000      -0.186495        -5.0748 
 125   2.0000      -0.185132        -5.0377 
 126   2.0000      -0.169842        -4.6216 
 127   2.0000      -0.155790        -4.2393 
 128   2.0000      -0.149296        -4.0625 
 129   2.0000      -0.147918        -4.0250 
 130   2.0000      -0.131109        -3.5677 
 131   2.0000      -0.124052        -3.3756 
 132   2.0000      -0.061582        -1.6757 
 133   2.0000      -0.040025        -1.0891 
 134   2.0000      -0.023524        -0.6401 
 135   0.0000      -0.000168        -0.0046 
 136   0.0000       0.035466         0.9651 
 137   0.0000       0.050451         1.3728 
 138   0.0000       0.063386         1.7248 
 139   0.0000       0.080315         2.1855 
 140   0.0000       0.090353         2.4586 
 141   0.0000       0.099774         2.7150 
 142   0.0000       0.108570         2.9543 
 143   0.0000       0.119012         3.2385 
 144   0.0000       0.125232         3.4077 
 145   0.0000       0.132136         3.5956 
*Only the first 10 virtual orbitals were printed.

                    ********************************
                    * MULLIKEN POPULATION ANALYSIS *
                    ********************************

-----------------------
MULLIKEN ATOMIC CHARGES
-----------------------
   0 C :   -0.554382
   1 C :    0.082035
   2 C :    0.340120
   3 N :   -0.615113
   4 C :   -0.226415
   5 C :    0.240911
   6 C :   -0.207106
   7 C :    0.144176
   8 C :   -0.202167
   9 C :   -0.085785
  10 Cl:   -0.061711
  11 C :   -0.153762
  12 C :   -0.176392
  13 C :    0.288461
  14 N :   -0.476745
  15 C :   -0.341947
  16 S :    1.225649
  17 O :   -0.560833
  18 O :   -0.548341
  19 C :   -0.164597
  20 C :   -0.170374
  21 C :   -0.166819
  22 C :    0.104555
  23 C :    0.412371
  24 O :   -0.555900
  25 O :   -0.657362
  26 C :   -0.154402
  27 C :   -0.139121
  28 N :   -0.376840
  29 C :   -0.044609
  30 C :    0.128847
  31 C :   -0.200979
  32 C :   -0.131410
  33 C :   -0.122137
  34 C :   -0.201493
  35 C :    0.127132
  36 H :    0.197521
  37 H :    0.158191
  38 H :    0.149987
  39 H :    0.173341
  40 H :    0.175610
  41 H :    0.148042
  42 H :    0.137106
  43 H :    0.128444
  44 H :    0.125436
  45 H :    0.167572
  46 H :    0.205630
  47 H :    0.167786
  48 H :    0.152949
  49 H :    0.143248
  50 H :    0.151990
  51 H :    0.159151
  52 H :    0.152250
  53 H :    0.133561
  54 H :    0.121701
  55 H :    0.122944
  56 H :    0.130024
Sum of atomic charges:   -1.0000000

--------------------------------
MULLIKEN REDUCED ORBITAL CHARGES
--------------------------------
  0 C s       :     3.317842  s :     3.317842
      pz      :     1.054786  p :     3.202106
      px      :     1.036429
      py      :     1.110891
      dz2     :     0.009016  d :     0.034435
      dxz     :     0.004269
      dyz     :     0.006357
      dx2y2   :     0.006435
      dxy     :     0.008358

  1 C s       :     3.177414  s :     3.177414
      pz      :     0.987003  p :     2.701267
      px      :     0.841490
      py      :     0.872774
      dz2     :     0.003610  d :     0.039285
      dxz     :     0.005664
      dyz     :     0.005751
      dx2y2   :     0.012152
      dxy     :     0.012108

  2 C s       :     3.032497  s :     3.032497
      pz      :     0.983479  p :     2.554312
      px      :     0.720344
      py      :     0.850490
      dz2     :     0.005351  d :     0.073071
      dxz     :     0.009196
      dyz     :     0.007271
      dx2y2   :     0.025749
      dxy     :     0.025504

  3 N s       :     3.642319  s :     3.642319
      pz      :     1.142188  p :     3.939813
      px      :     1.511189
      py      :     1.286436
      dz2     :     0.007408  d :     0.032981
      dxz     :     0.005178
      dyz     :     0.010421
      dx2y2   :     0.004069
      dxy     :     0.005905

  4 C s       :     3.227391  s :     3.227391
      pz      :     0.863686  p :     2.943902
      px      :     1.004410
      py      :     1.075807
      dz2     :     0.010326  d :     0.055121
      dxz     :     0.010944
      dyz     :     0.014974
      dx2y2   :     0.008137
      dxy     :     0.010741

  5 C s       :     3.068042  s :     3.068042
      pz      :     0.942500  p :     2.633344
      px      :     0.853373
      py      :     0.837472
      dz2     :     0.011898  d :     0.057703
      dxz     :     0.009405
      dyz     :     0.008978
      dx2y2   :     0.014609
      dxy     :     0.012812

  6 C s       :     3.182325  s :     3.182325
      pz      :     1.019767  p :     2.987254
      px      :     0.950270
      py      :     1.017217
      dz2     :     0.004744  d :     0.037527
      dxz     :     0.007952
      dyz     :     0.007621
      dx2y2   :     0.007834
      dxy     :     0.009375

  7 C s       :     3.091367  s :     3.091367
      pz      :     0.942322  p :     2.717402
      px      :     0.860034
      py      :     0.915046
      dz2     :     0.007539  d :     0.047055
      dxz     :     0.010162
      dyz     :     0.006622
      dx2y2   :     0.012032
      dxy     :     0.010699

  8 C s       :     3.199659  s :     3.199659
      pz      :     1.003415  p :     2.966637
      px      :     0.991223
      py      :     0.972000
      dz2     :     0.003714  d :     0.035871
      dxz     :     0.008254
      dyz     :     0.006917
      dx2y2   :     0.008400
      dxy     :     0.008586

  9 C s       :     3.196250  s :     3.196250
      pz      :     1.008647  p :     2.841667
      px      :     0.809752
      py      :     1.023268
      dz2     :     0.007960  d :     0.047869
      dxz     :     0.010315
      dyz     :     0.006341
      dx2y2   :     0.012754
      dxy     :     0.010499

 10 Cls       :     5.924625  s :     5.924625
      pz      :     3.852087  p :    11.107515
      px      :     3.301861
      py      :     3.953567
      dz2     :     0.003736  d :     0.029571
      dxz     :     0.009587
      dyz     :     0.000758
      dx2y2   :     0.010836
      dxy     :     0.004654

 11 C s       :     3.199244  s :     3.199244
      pz      :     0.979318  p :     2.919514
      px      :     0.964029
      py      :     0.976167
      dz2     :     0.006586  d :     0.035004
      dxz     :     0.006610
      dyz     :     0.005143
      dx2y2   :     0.006203
      dxy     :     0.010462

 12 C s       :     3.169087  s :     3.169087
      pz      :     1.006312  p :     2.971473
      px      :     0.973876
      py      :     0.991285
      dz2     :     0.003570  d :     0.035832
      dxz     :     0.007911
      dyz     :     0.007085
      dx2y2   :     0.008106
      dxy     :     0.009160

 13 C s       :     3.018929  s :     3.018929
      pz      :     0.960358  p :     2.630415
      px      :     0.736687
      py      :     0.933370
      dz2     :     0.009658  d :     0.062195
      dxz     :     0.013563
      dyz     :     0.007657
      dx2y2   :     0.016774
      dxy     :     0.014542

 14 N s       :     3.598618  s :     3.598618
      pz      :     1.349464  p :     3.831531
      px      :     1.185672
      py      :     1.296395
      dz2     :     0.007319  d :     0.046596
      dxz     :     0.010999
      dyz     :     0.007492
      dx2y2   :     0.011136
      dxy     :     0.009651

 15 C s       :     3.280939  s :     3.280939
      pz      :     0.976463  p :     3.014052
      px      :     1.018568
      py      :     1.019020
      dz2     :     0.005517  d :     0.046956
      dxz     :     0.013095
      dyz     :     0.012242
      dx2y2   :     0.003084
      dxy     :     0.013017

 16 S s       :     5.227930  s :     5.227930
      pz      :     2.991360  p :     9.019415
      px      :     2.960130
      py      :     3.067925
      dz2     :     0.095494  d :     0.527005
      dxz     :     0.109970
      dyz     :     0.109741
      dx2y2   :     0.102240
      dxy     :     0.109560

 17 O s       :     3.924840  s :     3.924840
      pz      :     1.345071  p :     4.609551
      px      :     1.630363
      py      :     1.634118
      dz2     :     0.007654  d :     0.026441
      dxz     :     0.006685
      dyz     :     0.005982
      dx2y2   :     0.002997
      dxy     :     0.003122

 18 O s       :     3.925990  s :     3.925990
      pz      :     1.593232  p :     4.595973
      px      :     1.307628
      py      :     1.695113
      dz2     :     0.003701  d :     0.026378
      dxz     :     0.007949
      dyz     :     0.001345
      dx2y2   :     0.006759
      dxy     :     0.006625

 19 C s       :     3.221308  s :     3.221308
      pz      :     1.097213  p :     2.905009
      px      :     0.959305
      py      :     0.848490
      dz2     :     0.004100  d :     0.038280
      dxz     :     0.006967
      dyz     :     0.003924
      dx2y2   :     0.010695
      dxy     :     0.012594

 20 C s       :     3.207083  s :     3.207083
      pz      :     0.974794  p :     2.926567
      px      :     1.009802
      py      :     0.941970
      dz2     :     0.005099  d :     0.036725
      dxz     :     0.003120
      dyz     :     0.006482
      dx2y2   :     0.012855
      dxy     :     0.009170

 21 C s       :     3.218285  s :     3.218285
      pz      :     0.973365  p :     2.913261
      px      :     1.016778
      py      :     0.923118
      dz2     :     0.002970  d :     0.035273
      dxz     :     0.005611
      dyz     :     0.004645
      dx2y2   :     0.009632
      dxy     :     0.012415

 22 C s       :     3.212169  s :     3.212169
      pz      :     0.883476  p :     2.643489
      px      :     0.838560
      py      :     0.921454
      dz2     :     0.003984  d :     0.039787
      dxz     :     0.006331
      dyz     :     0.005583
      dx2y2   :     0.012002
      dxy     :     0.011886

 23 C s       :     3.005976  s :     3.005976
      pz      :     0.860159  p :     2.470154
      px      :     0.758312
      py      :     0.851683
      dz2     :     0.010118  d :     0.111498
      dxz     :     0.020690
      dyz     :     0.011097
      dx2y2   :     0.034920
      dxy     :     0.034673

 24 O s       :     3.845189  s :     3.845189
      pz      :     1.486708  p :     4.687889
      px      :     1.697302
      py      :     1.503878
      dz2     :     0.003647  d :     0.022823
      dxz     :     0.002654
      dyz     :     0.005549
      dx2y2   :     0.004984
      dxy     :     0.005988

 25 O s       :     3.911758  s :     3.911758
      pz      :     1.596878  p :     4.728566
      px      :     1.344032
      py      :     1.787655
      dz2     :     0.002120  d :     0.017039
      dxz     :     0.004549
      dyz     :     0.000289
      dx2y2   :     0.006486
      dxy     :     0.003595

 26 C s       :     3.222284  s :     3.222284
      pz      :     0.959520  p :     2.896758
      px      :     0.992809
      py      :     0.944428
      dz2     :     0.004119  d :     0.035360
      dxz     :     0.003528
      dyz     :     0.005272
      dx2y2   :     0.013011
      dxy     :     0.009430

 27 C s       :     3.205069  s :     3.205069
      pz      :     0.968688  p :     2.897680
      px      :     0.926497
      py      :     1.002495
      dz2     :     0.003177  d :     0.036372
      dxz     :     0.006538
      dyz     :     0.004892
      dx2y2   :     0.010476
      dxy     :     0.011289

 28 N s       :     3.694522  s :     3.694522
      pz      :     1.138352  p :     3.647257
      px      :     0.986821
      py      :     1.522084
      dz2     :     0.004487  d :     0.035060
      dxz     :     0.007024
      dyz     :     0.005375
      dx2y2   :     0.006901
      dxy     :     0.011274

 29 C s       :     3.157521  s :     3.157521
      pz      :     0.955000  p :     2.833022
      px      :     0.925408
      py      :     0.952614
      dz2     :     0.004361  d :     0.054066
      dxz     :     0.005187
      dyz     :     0.007352
      dx2y2   :     0.021076
      dxy     :     0.016089

 30 C s       :     3.139245  s :     3.139245
      pz      :     0.965388  p :     2.690181
      px      :     0.859641
      py      :     0.865152
      dz2     :     0.003746  d :     0.041727
      dxz     :     0.006390
      dyz     :     0.006124
      dx2y2   :     0.013048
      dxy     :     0.012419

 31 C s       :     3.210289  s :     3.210289
      pz      :     0.984198  p :     2.954220
      px      :     0.996426
      py      :     0.973596
      dz2     :     0.003717  d :     0.036470
      dxz     :     0.003290
      dyz     :     0.005967
      dx2y2   :     0.012131
      dxy     :     0.011364

 32 C s       :     3.189054  s :     3.189054
      pz      :     0.996597  p :     2.905986
      px      :     0.943987
      py      :     0.965401
      dz2     :     0.004079  d :     0.036371
      dxz     :     0.004279
      dyz     :     0.004334
      dx2y2   :     0.009544
      dxy     :     0.014136

 33 C s       :     3.192580  s :     3.192580
      pz      :     0.983020  p :     2.892864
      px      :     0.934440
      py      :     0.975404
      dz2     :     0.003119  d :     0.036694
      dxz     :     0.006607
      dyz     :     0.003475
      dx2y2   :     0.013482
      dxy     :     0.010011

 34 C s       :     3.206957  s :     3.206957
      pz      :     1.005509  p :     2.958985
      px      :     0.962644
      py      :     0.990832
      dz2     :     0.003432  d :     0.035551
      dxz     :     0.003691
      dyz     :     0.005539
      dx2y2   :     0.012007
      dxy     :     0.010882

 35 C s       :     3.136263  s :     3.136263
      pz      :     0.955038  p :     2.695037
      px      :     0.885060
      py      :     0.854939
      dz2     :     0.003852  d :     0.041568
      dxz     :     0.006126
      dyz     :     0.006623
      dx2y2   :     0.012573
      dxy     :     0.012394

 36 H s       :     0.802479  s :     0.802479

 37 H s       :     0.841809  s :     0.841809

 38 H s       :     0.850013  s :     0.850013

 39 H s       :     0.826659  s :     0.826659

 40 H s       :     0.824390  s :     0.824390

 41 H s       :     0.851958  s :     0.851958

 42 H s       :     0.862894  s :     0.862894

 43 H s       :     0.871556  s :     0.871556

 44 H s       :     0.874564  s :     0.874564

 45 H s       :     0.832428  s :     0.832428

 46 H s       :     0.794370  s :     0.794370

 47 H s       :     0.832214  s :     0.832214

 48 H s       :     0.847051  s :     0.847051

 49 H s       :     0.856752  s :     0.856752

 50 H s       :     0.848010  s :     0.848010

 51 H s       :     0.840849  s :     0.840849

 52 H s       :     0.847750  s :     0.847750

 53 H s       :     0.866439  s :     0.866439

 54 H s       :     0.878299  s :     0.878299

 55 H s       :     0.877056  s :     0.877056

 56 H s       :     0.869976  s :     0.869976



                     *******************************
                     * LOEWDIN POPULATION ANALYSIS *
                     *******************************

----------------------
LOEWDIN ATOMIC CHARGES
----------------------
   0 C :   -0.363559
   1 C :   -0.028113
   2 C :    0.051240
   3 N :   -0.285573
   4 C :   -0.155386
   5 C :   -0.007556
   6 C :   -0.169029
   7 C :   -0.034877
   8 C :   -0.134133
   9 C :   -0.106870
  10 Cl:    0.004599
  11 C :   -0.156603
  12 C :   -0.150680
  13 C :    0.005941
  14 N :    0.011604
  15 C :   -0.268877
  16 S :    1.268186
  17 O :   -0.580954
  18 O :   -0.570985
  19 C :   -0.219089
  20 C :   -0.134928
  21 C :   -0.124573
  22 C :   -0.003558
  23 C :    0.073752
  24 O :   -0.381752
  25 O :   -0.506186
  26 C :   -0.108864
  27 C :   -0.114750
  28 N :   -0.116474
  29 C :   -0.057323
  30 C :   -0.032990
  31 C :   -0.111945
  32 C :   -0.138295
  33 C :   -0.125324
  34 C :   -0.129549
  35 C :   -0.005753
  36 H :    0.147994
  37 H :    0.134947
  38 H :    0.130664
  39 H :    0.143149
  40 H :    0.134094
  41 H :    0.141371
  42 H :    0.139989
  43 H :    0.134757
  44 H :    0.131196
  45 H :    0.136457
  46 H :    0.150170
  47 H :    0.137682
  48 H :    0.140361
  49 H :    0.143960
  50 H :    0.150029
  51 H :    0.147184
  52 H :    0.137300
  53 H :    0.134706
  54 H :    0.128817
  55 H :    0.129627
  56 H :    0.134776

-------------------------------
LOEWDIN REDUCED ORBITAL CHARGES
-------------------------------
  0 C s       :     2.970637  s :     2.970637
      pz      :     1.115728  p :     3.325849
      px      :     1.073050
      py      :     1.137071
      dz2     :     0.016883  d :     0.067073
      dxz     :     0.008860
      dyz     :     0.011337
      dx2y2   :     0.013130
      dxy     :     0.016863

  1 C s       :     2.885529  s :     2.885529
      pz      :     0.982562  p :     3.045930
      px      :     1.029737
      py      :     1.033631
      dz2     :     0.007495  d :     0.096654
      dxz     :     0.011390
      dyz     :     0.012328
      dx2y2   :     0.033187
      dxy     :     0.032254

  2 C s       :     2.850189  s :     2.850189
      pz      :     0.973710  p :     2.924251
      px      :     0.954765
      py      :     0.995775
      dz2     :     0.012046  d :     0.174320
      dxz     :     0.018743
      dyz     :     0.015613
      dx2y2   :     0.062896
      dxy     :     0.065022

  3 N s       :     3.195883  s :     3.195883
      pz      :     1.208502  p :     4.007472
      px      :     1.487271
      py      :     1.311699
      dz2     :     0.019451  d :     0.082217
      dxz     :     0.012698
      dyz     :     0.027847
      dx2y2   :     0.009056
      dxy     :     0.013166

  4 C s       :     2.919821  s :     2.919821
      pz      :     0.962648  p :     3.119231
      px      :     1.058051
      py      :     1.098532
      dz2     :     0.023466  d :     0.116334
      dxz     :     0.023519
      dyz     :     0.030734
      dx2y2   :     0.016894
      dxy     :     0.021720

  5 C s       :     2.860701  s :     2.860701
      pz      :     1.013004  p :     3.010100
      px      :     1.024722
      py      :     0.972374
      dz2     :     0.026799  d :     0.136755
      dxz     :     0.022425
      dyz     :     0.022389
      dx2y2   :     0.034022
      dxy     :     0.031119

  6 C s       :     2.900673  s :     2.900673
      pz      :     1.070641  p :     3.180949
      px      :     1.033109
      py      :     1.077198
      dz2     :     0.009647  d :     0.087407
      dxz     :     0.020637
      dyz     :     0.013939
      dx2y2   :     0.018781
      dxy     :     0.024404

  7 C s       :     2.832494  s :     2.832494
      pz      :     1.013473  p :     3.079881
      px      :     1.040459
      py      :     1.025949
      dz2     :     0.018124  d :     0.122502
      dxz     :     0.025993
      dyz     :     0.017534
      dx2y2   :     0.031473
      dxy     :     0.029379

  8 C s       :     2.913694  s :     2.913694
      pz      :     1.041757  p :     3.136522
      px      :     1.048558
      py      :     1.046206
      dz2     :     0.008581  d :     0.083917
      dxz     :     0.019063
      dyz     :     0.012726
      dx2y2   :     0.020459
      dxy     :     0.023088

  9 C s       :     2.917330  s :     2.917330
      pz      :     1.058102  p :     3.077940
      px      :     0.928929
      py      :     1.090909
      dz2     :     0.017258  d :     0.111600
      dxz     :     0.023478
      dyz     :     0.015351
      dx2y2   :     0.030044
      dxy     :     0.025467

 10 Cls       :     5.799217  s :     5.799217
      pz      :     3.852998  p :    11.163554
      px      :     3.367506
      py      :     3.943049
      dz2     :     0.004057  d :     0.032630
      dxz     :     0.010647
      dyz     :     0.000770
      dx2y2   :     0.012318
      dxy     :     0.004838

 11 C s       :     2.918783  s :     2.918783
      pz      :     1.042050  p :     3.155171
      px      :     1.063578
      py      :     1.049543
      dz2     :     0.014383  d :     0.082649
      dxz     :     0.016966
      dyz     :     0.011941
      dx2y2   :     0.016023
      dxy     :     0.023336

 12 C s       :     2.911193  s :     2.911193
      pz      :     1.049209  p :     3.155766
      px      :     1.056523
      py      :     1.050035
      dz2     :     0.007975  d :     0.083721
      dxz     :     0.018772
      dyz     :     0.013294
      dx2y2   :     0.021317
      dxy     :     0.022363

 13 C s       :     2.822637  s :     2.822637
      pz      :     1.024788  p :     3.018046
      px      :     0.945871
      py      :     1.047388
      dz2     :     0.022373  d :     0.153376
      dxz     :     0.032855
      dyz     :     0.018679
      dx2y2   :     0.042892
      dxy     :     0.036576

 14 N s       :     3.043855  s :     3.043855
      pz      :     1.340189  p :     3.829984
      px      :     1.193061
      py      :     1.296734
      dz2     :     0.016153  d :     0.114557
      dxz     :     0.027000
      dyz     :     0.016834
      dx2y2   :     0.029146
      dxy     :     0.025424

 15 C s       :     2.969396  s :     2.969396
      pz      :     1.048295  p :     3.207199
      px      :     1.081041
      py      :     1.077862
      dz2     :     0.011287  d :     0.092283
      dxz     :     0.025510
      dyz     :     0.023814
      dx2y2   :     0.006143
      dxy     :     0.025529

 16 S s       :     5.112360  s :     5.112360
      pz      :     2.963543  p :     8.952259
      px      :     2.971403
      py      :     3.017312
      dz2     :     0.117692  d :     0.667196
      dxz     :     0.139791
      dyz     :     0.143346
      dx2y2   :     0.130291
      dxy     :     0.136075

 17 O s       :     3.710347  s :     3.710347
      pz      :     1.454629  p :     4.815582
      px      :     1.680091
      py      :     1.680862
      dz2     :     0.013206  d :     0.055026
      dxz     :     0.016757
      dyz     :     0.013554
      dx2y2   :     0.004668
      dxy     :     0.006841

 18 O s       :     3.710662  s :     3.710662
      pz      :     1.635000  p :     4.805106
      px      :     1.445798
      py      :     1.724308
[...]
      pz      :     0.977995  p :     3.107648
      px      :     1.052598
      py      :     1.077055
      dz2     :     0.006422  d :     0.086308
      dxz     :     0.014481
      dyz     :     0.009269
      dx2y2   :     0.027268
      dxy     :     0.028868

 28 N s       :     3.237642  s :     3.237642
      pz      :     1.133004  p :     3.799761
      px      :     1.125760
      py      :     1.540997
      dz2     :     0.008594  d :     0.079071
      dxz     :     0.017033
      dyz     :     0.006576
      dx2y2   :     0.019263
      dxy     :     0.027605

 29 C s       :     2.911218  s :     2.911218
      pz      :     0.949470  p :     3.022145
      px      :     1.044465
      py      :     1.028210
      dz2     :     0.008889  d :     0.123960
      dxz     :     0.008986
      dyz     :     0.015892
      dx2y2   :     0.051122
      dxy     :     0.039072

 30 C s       :     2.858127  s :     2.858127
      pz      :     0.969734  p :     3.066156
      px      :     1.046939
      py      :     1.049483
      dz2     :     0.008316  d :     0.108708
      dxz     :     0.013962
      dyz     :     0.013670
      dx2y2   :     0.036892
      dxy     :     0.035868

 31 C s       :     2.915942  s :     2.915942
      pz      :     0.981427  p :     3.111008
      px      :     1.069202
      py      :     1.060378
      dz2     :     0.006788  d :     0.084996
      dxz     :     0.006278
      dyz     :     0.013300
      dx2y2   :     0.030481
      dxy     :     0.028149

 32 C s       :     2.915399  s :     2.915399
      pz      :     0.998663  p :     3.136842
      px      :     1.069207
      py      :     1.068972
      dz2     :     0.007619  d :     0.086053
      dxz     :     0.009430
      dyz     :     0.009747
      dx2y2   :     0.025519
      dxy     :     0.033739

 33 C s       :     2.917159  s :     2.917159
      pz      :     0.982451  p :     3.121718
      px      :     1.073074
      py      :     1.066193
      dz2     :     0.006012  d :     0.086447
      dxz     :     0.014983
      dyz     :     0.006026
      dx2y2   :     0.032904
      dxy     :     0.026522

 34 C s       :     2.916644  s :     2.916644
      pz      :     1.002662  p :     3.130418
      px      :     1.074093
      py      :     1.053664
      dz2     :     0.006451  d :     0.082488
      dxz     :     0.006934
      dyz     :     0.012007
      dx2y2   :     0.028885
      dxy     :     0.028211

 35 C s       :     2.856475  s :     2.856475
      pz      :     0.966486  p :     3.043049
      px      :     1.039246
      py      :     1.037317
      dz2     :     0.008016  d :     0.106229
      dxz     :     0.013468
      dyz     :     0.014571
      dx2y2   :     0.035190
      dxy     :     0.034985

 36 H s       :     0.852006  s :     0.852006

 37 H s       :     0.865053  s :     0.865053

 38 H s       :     0.869336  s :     0.869336

 39 H s       :     0.856851  s :     0.856851

 40 H s       :     0.865906  s :     0.865906

 41 H s       :     0.858629  s :     0.858629

 42 H s       :     0.860011  s :     0.860011

 43 H s       :     0.865243  s :     0.865243

 44 H s       :     0.868804  s :     0.868804

 45 H s       :     0.863543  s :     0.863543

 46 H s       :     0.849830  s :     0.849830

 47 H s       :     0.862318  s :     0.862318

 48 H s       :     0.859639  s :     0.859639

 49 H s       :     0.856040  s :     0.856040

 50 H s       :     0.849971  s :     0.849971

 51 H s       :     0.852816  s :     0.852816

 52 H s       :     0.862700  s :     0.862700

 53 H s       :     0.865294  s :     0.865294

 54 H s       :     0.871183  s :     0.871183

 55 H s       :     0.870373  s :     0.870373

 56 H s       :     0.865224  s :     0.865224



                      *****************************
                      * MAYER POPULATION ANALYSIS *
                      *****************************

  NA   - Mulliken gross atomic population
  ZA   - Total nuclear charge
  QA   - Mulliken gross atomic charge
  VA   - Mayer's total valence
  BVA  - Mayer's bonded valence
  FA   - Mayer's free valence

  ATOM       NA         ZA         QA         VA         BVA        FA
  0 C      6.5544     6.0000    -0.5544     3.8231     3.8231     0.0000
  1 C      5.9180     6.0000     0.0820     3.8651     3.8651     0.0000
  2 C      5.6599     6.0000     0.3401     3.8800     3.8800    -0.0000
  3 N      7.6151     7.0000    -0.6151     2.7899     2.7899    -0.0000
  4 C      6.2264     6.0000    -0.2264     3.8036     3.8036     0.0000
  5 C      5.7591     6.0000     0.2409     3.7913     3.7913     0.0000
  6 C      6.2071     6.0000    -0.2071     3.8700     3.8700    -0.0000
  7 C      5.8558     6.0000     0.1442     4.1075     4.1075     0.0000
  8 C      6.2022     6.0000    -0.2022     3.8616     3.8616    -0.0000
  9 C      6.0858     6.0000    -0.0858     3.8962     3.8962     0.0000
 10 Cl    17.0617    17.0000    -0.0617     1.0528     1.0528    -0.0000
 11 C      6.1538     6.0000    -0.1538     3.9264     3.9264     0.0000
 12 C      6.1764     6.0000    -0.1764     3.8718     3.8718     0.0000
 13 C      5.7115     6.0000     0.2885     3.8615     3.8615    -0.0000
 14 N      7.4767     7.0000    -0.4767     3.2505     3.2505     0.0000
 15 C      6.3419     6.0000    -0.3419     3.7760     3.7760    -0.0000
 16 S     14.7744    16.0000     1.2256     5.0177     5.0177     0.0000
 17 O      8.5608     8.0000    -0.5608     1.8656     1.8656     0.0000
 18 O      8.5483     8.0000    -0.5483     1.8814     1.8814     0.0000
 19 C      6.1646     6.0000    -0.1646     3.8189     3.8189    -0.0000
 20 C      6.1704     6.0000    -0.1704     3.8915     3.8915     0.0000
 21 C      6.1668     6.0000    -0.1668     3.8689     3.8689     0.0000
 22 C      5.8954     6.0000     0.1046     3.8363     3.8363     0.0000
 23 C      5.5876     6.0000     0.4124     4.2010     4.2010     0.0000
 24 O      8.5559     8.0000    -0.5559     1.9515     1.9515     0.0000
 25 O      8.6574     8.0000    -0.6574     1.8361     1.8361    -0.0000
 26 C      6.1544     6.0000    -0.1544     3.8653     3.8653     0.0000
 27 C      6.1391     6.0000    -0.1391     3.8861     3.8861    -0.0000
 28 N      7.3768     7.0000    -0.3768     2.9808     2.9808     0.0000
 29 C      6.0446     6.0000    -0.0446     3.8603     3.8603     0.0000
 30 C      5.8712     6.0000     0.1288     3.9544     3.9544    -0.0000
 31 C      6.2010     6.0000    -0.2010     3.9036     3.9036     0.0000
 32 C      6.1314     6.0000    -0.1314     3.9285     3.9285     0.0000
 33 C      6.1221     6.0000    -0.1221     3.9292     3.9292    -0.0000
 34 C      6.2015     6.0000    -0.2015     3.8757     3.8757     0.0000
 35 C      5.8729     6.0000     0.1271     3.9994     3.9994     0.0000
 36 H      0.8025     1.0000     0.1975     0.9336     0.9336     0.0000
 37 H      0.8418     1.0000     0.1582     0.9327     0.9327    -0.0000
 38 H      0.8500     1.0000     0.1500     0.9311     0.9311     0.0000
 39 H      0.8267     1.0000     0.1733     0.9259     0.9259     0.0000
 40 H      0.8244     1.0000     0.1756     0.9288     0.9288     0.0000
 41 H      0.8520     1.0000     0.1480     0.9500     0.9500    -0.0000
 42 H      0.8629     1.0000     0.1371     0.9399     0.9399    -0.0000
 43 H      0.8716     1.0000     0.1284     0.9435     0.9435     0.0000
 44 H      0.8746     1.0000     0.1254     0.9399     0.9399     0.0000
 45 H      0.8324     1.0000     0.1676     0.9328     0.9328    -0.0000
 46 H      0.7944     1.0000     0.2056     0.9252     0.9252     0.0000
 47 H      0.8322     1.0000     0.1678     0.9349     0.9349     0.0000
 48 H      0.8471     1.0000     0.1529     0.9414     0.9414    -0.0000
 49 H      0.8568     1.0000     0.1432     0.9604     0.9604    -0.0000
 50 H      0.8480     1.0000     0.1520     0.9642     0.9642    -0.0000
 51 H      0.8408     1.0000     0.1592     0.9473     0.9473    -0.0000
 52 H      0.8477     1.0000     0.1523     0.9332     0.9332    -0.0000
 53 H      0.8664     1.0000     0.1336     0.9378     0.9378     0.0000
 54 H      0.8783     1.0000     0.1217     0.9387     0.9387     0.0000
 55 H      0.8771     1.0000     0.1229     0.9385     0.9385    -0.0000
 56 H      0.8700     1.0000     0.1300     0.9441     0.9441    -0.0000

  Mayer bond orders larger than 0.100000
B(  0-C ,  1-C ) :   0.9959 B(  0-C , 36-H ) :   0.9172 B(  0-C , 37-H ) :   0.9311 
B(  0-C , 38-H ) :   0.9297 B(  1-C ,  2-C ) :   1.4302 B(  1-C , 29-C ) :   0.1030 
B(  1-C , 35-C ) :   1.2701 B(  2-C ,  3-N ) :   0.9151 B(  2-C , 28-N ) :   1.2771 
B(  3-N ,  4-C ) :   0.9344 B(  3-N , 16-S ) :   0.7428 B(  4-C ,  5-C ) :   0.9715 
B(  4-C , 39-H ) :   0.9122 B(  4-C , 40-H ) :   0.9070 B(  5-C ,  6-C ) :   1.5126 
B(  5-C , 14-N ) :   1.1140 B(  6-C ,  7-C ) :   1.2938 B(  6-C , 41-H ) :   0.9147 
B(  7-C ,  8-C ) :   1.3240 B(  7-C , 13-C ) :   1.3070 B(  8-C ,  9-C ) :   1.4367 
B(  8-C , 42-H ) :   0.9226 B(  9-C , 10-Cl) :   0.9759 B(  9-C , 11-C ) :   1.3496 
B( 11-C , 12-C ) :   1.4698 B( 11-C , 43-H ) :   0.9285 B( 12-C , 13-C ) :   1.3497 
B( 12-C , 44-H ) :   0.9176 B( 13-C , 14-N ) :   1.0360 B( 14-N , 15-C ) :   0.9495 
B( 15-C , 45-H ) :   0.9383 B( 15-C , 46-H ) :   0.9127 B( 15-C , 47-H ) :   0.9346 
B( 16-S , 17-O ) :   1.6164 B( 16-S , 18-O ) :   1.6296 B( 16-S , 19-C ) :   0.8447 
B( 19-C , 20-C ) :   1.3629 B( 19-C , 27-C ) :   1.3708 B( 20-C , 21-C ) :   1.3971 
B( 20-C , 48-H ) :   0.9163 B( 21-C , 22-C ) :   1.3894 B( 21-C , 49-H ) :   0.9076 
B( 22-C , 23-C ) :   0.9275 B( 22-C , 26-C ) :   1.3977 B( 23-C , 24-O ) :   1.7016 
B( 23-C , 25-O ) :   1.5494 B( 24-O , 25-O ) :   0.1493 B( 26-C , 27-C ) :   1.4023 
B( 26-C , 50-H ) :   0.9027 B( 27-C , 51-H ) :   0.9131 B( 28-N , 29-C ) :   1.4993 
B( 29-C , 30-C ) :   1.2306 B( 29-C , 52-H ) :   0.9265 B( 30-C , 31-C ) :   1.2871 
B( 30-C , 35-C ) :   1.2884 B( 31-C , 32-C ) :   1.5114 B( 31-C , 34-C ) :   0.1064 
B( 31-C , 53-H ) :   0.9238 B( 32-C , 33-C ) :   1.3540 B( 32-C , 54-H ) :   0.9315 
B( 33-C , 34-C ) :   1.5095 B( 33-C , 55-H ) :   0.9314 B( 34-C , 35-C ) :   1.2935 
B( 34-C , 56-H ) :   0.9171 

-------
TIMINGS
-------

Total SCF time: 0 days 0 hours 12 min 14 sec 

Total time                  ....     734.503 sec
Sum of individual times     ....     734.307 sec  (100.0%)

SCF preparation             ....       0.772 sec  (  0.1%)
Fock matrix formation       ....     730.434 sec  ( 99.4%)
  Startup                   ....       0.108 sec  (  0.0% of F)
  Split-RI-J                ....      94.833 sec  ( 13.0% of F)
  Chain of spheres X        ....     578.971 sec  ( 79.3% of F)
  XC integration            ....      55.177 sec  (  7.6% of F)
    XC Preparation          ....       0.000 sec  (  0.0% of XC)
    Basis function eval.    ....      21.126 sec  ( 38.3% of XC)
    Density eval.           ....      14.370 sec  ( 26.0% of XC)
    XC-Functional eval.     ....       2.579 sec  (  4.7% of XC)
    XC-Potential eval.      ....      14.778 sec  ( 26.8% of XC)
Diagonalization             ....       0.000 sec  (  0.0%)
Density matrix formation    ....       0.446 sec  (  0.1%)
Total Energy calculation    ....       0.074 sec  (  0.0%)
Population analysis         ....       0.089 sec  (  0.0%)
Orbital Transformation      ....       0.364 sec  (  0.0%)
Orbital Orthonormalization  ....       0.000 sec  (  0.0%)
DIIS solution               ....       1.372 sec  (  0.2%)
SOSCF solution              ....       0.756 sec  (  0.1%)
Finished LeanSCF after 734.6 sec

Maximum memory used throughout the entire LEANSCF-calculation: 99.8 MB

-------------------------   --------------------
FINAL SINGLE POINT ENERGY     -2363.961565928919
-------------------------   --------------------


------------------------------------------------------------------------------
                              ORCA PROPERTY CALCULATIONS
------------------------------------------------------------------------------

GBWName                                 ... /home/nmrbox/aojoawo/Documents/ERDOS/inputs/CHEMBL3682574.gbw
Number of atoms                         ...     57
Number of basis functions               ...    554
Max core memory                         ...   1024 MB

Electric properties:
Dipole moment                           ... YES
Quadrupole moment                       ...  NO
Static polarizability (Dipole/Dipole)   ...  NO
Static polarizability (Dipole/Quad.)    ...  NO
Static polarizability (Quad./Quad.)     ...  NO
Static polarizability (Velocity)        ...  NO

Atomic electric properties:
Dipole moment                           ...  NO
Quadrupole moment                       ...  NO
Static polarizability                   ...  NO

Choice of electric origin               ... Center of mass
Position of electric origin             ...     0.535453     0.777623     0.608817

General magnetic properties:
Magnetizability                         ...  NO

EPR properties:
g-Tensor (aka g-matrix)                 ...  NO
Zero-Field splitting spin-orbit         ...  NO
Zero-field splitting spin-spin          ...  NO
Hyperfine couplings                     ...  NO (   0 nuclei)
Quadrupole couplings                    ...  NO (   0 nuclei)
Contact density                         ...  NO (   0 nuclei)

NMR properties:
Chemical shifts                         ...  NO (   0 nuclei)
Spin-rotation constants                 ...  NO (   0 nuclei)
Spin-spin couplings                     ...  NO (   0 nuclei,    0 pairs)

Choice of magnetic origin               ... GIAO
Position of magnetic origin             ...     0.000000     0.000000     0.000000

Properties with geometric perturbations:
SCF Hessian                             ...  NO
IR spectrum                             ...  NO
VCD spectrum                            ...  NO
X-ray spectroscopy properties:
SCF XES/XAS/RIXS spectra                ...  NO


-------------
DIPOLE MOMENT
-------------

Method             : SCF
Type of density    : Electron Density
Multiplicity       :   1
Irrep              :   0
Energy             : -2363.9615659289188443 Eh
Relativity type    : 
Basis              : AO
                                X                 Y                 Z
Electronic contribution:     18.496552527      10.724730897      11.930400813
Nuclear contribution   :    -15.354691551     -19.615753889     -14.617053704
                        -----------------------------------------
Total Dipole Moment    :      3.141860976      -8.891022992      -2.686652891
                        -----------------------------------------
Magnitude (a.u.)       :      9.805084599
Magnitude (Debye)      :     24.922544424



--------------------
Rotational spectrum 
--------------------
 
Rotational constants in cm-1:             0.003398             0.002284             0.001514 
Rotational constants in MHz :           101.880852            68.468264            45.401064 

Dipole components along the rotational axes: 
x,y,z [a.u.] :     2.100514    -9.339885    -2.119922 
x,y,z [Debye]:     5.339081   -23.740102    -5.388413 

 

Dipole moment calculation done in   0.0 sec 

Maximum memory used throughout the entire PROP-calculation: 49.0 MB

--------------------------------
SUGGESTED CITATIONS FOR THIS RUN
--------------------------------

Below you find a list of papers that are relevant to this ORCA run
We neither can nor want to force you to cite these papers, but we appreciate if you do
You receive ORCA, which is the product of decades of hard work by many enthusiastic individuals, for free
The only thing we kindly ask in return is that you cite our papers,
We deeply appreciate it, if you show your appreciation for ORCA by not just citing the generic ORCA reference.

Please note that relegating all ORCA citations to the supporting information does *not* help us.
SI sections are not indexed - citations you put there will not count into any citation statistics
But we need these citations in order to attract the funding resources that allow us to do what we are doing

Therefore, if you are a happy ORCA user, please consider citing a few of the papers listed below in the main body of your paper

In addition to the list printed below, the program has created the file /home/nmrbox/aojoawo/Documents/ERDOS/inputs/CHEMBL3682574.bibtex that contains the list in bibtex format
You can import this file easily into all common literature databanks and citation aid programs


List of essential papers. We consider these as the minimum necessary citations

  1. Neese,F.
     Software update: the ORCA program system, version 5.0
     WIRES Comput. Molec. Sci., 2022 12(1)e1606
     doi.org/10.1002/wcms.1606

List of papers to cite with high priority. The work reported in these papers was absolutely
necessary for this run to complete.
Our perspective: the developers of density functionals and basis sets usually get cited in chemistry papers
Good! But without the algorithms to do something with them, the functionals or basis sets would not do anything.
Hence, in our opinion, the algorithm design and method developments papers are equally worthy of getting cited

  1. Neese,F.
     An improvement of the resolution of the identity approximation for the formation of the Coulomb matrix
     J. Comp. Chem., 2003 24(14)1740-1747
     doi.org/10.1002/jcc.10318
  2. Neese,F.; Wennmohs,F.; Hansen,A.; Becker,U.
     Efficient, approximate and parallel Hartree-Fock and hybrid DFT calculations. A 'chain-of-spheres' algorithm for the Hartree-Fock exchange
     Chem. Phys., 2009 356(1-3)98-109
     doi.org/10.1016/j.chemphys.2008.10.036
  3. Helmich-Paris,B.; de Souza,B.; Neese,F.; Izsák,R.
     An improved chain of spheres for exchange algorithm
     J. Chem. Phys., 2021 155 104109
     doi.org/doi: 10.1063/5.0058766.
  4. Neese,F.
     The SHARK Integral Generation and Digestion System
     J. Comp. Chem., 2022  1-16
     doi.org/10.1002/jcc.26942

List of suggested additional citations. These are papers that are important in the 'surrounding' of 
of this run, or papers that preceded the highly important papers. If you like your results we are grateful for a citation.

  1. Izsak,R.; Neese,F.
     An overlap fitted chain of spheres exchange method
     J. Chem. Phys., 2011 135 144105
     doi.org/10.1063/1.3646921
  2. Izsak,R.; Hansen,A.; Neese,F.
     The resolution of identity and chain of spheres approximations for the LPNO-CCSD singles Fock term
     Molec. Phys., 2012 110 2413-2417
     doi.org/10.1080/00268976.2012.687466
  3. Neese,F.
     The ORCA program system
     WIRES Comput. Molec. Sci., 2012 2(1)73-78
     doi.org/10.1002/wcms.81
  4. Izsak,R.; Neese,F.; Klopper,W.
     Robust fitting techniques in the chain of spheres approximation to the Fock exchange: The role of the complementary space
     J. Chem. Phys., 2013 139 
     doi.org/10.1063/1.4819264
  5. Neese,F.
     Software update: the ORCA program system, version 4.0
     WIRES Comput. Molec. Sci., 2018 8(1)1-6
     doi.org/10.1002/wcms.1327
  6. Neese,F.; Wennmohs,F.; Becker,U.; Riplinger,C.
     The ORCA quantum chemistry program package
     J. Chem. Phys., 2020 152 Art. No. L224108
     doi.org/10.1063/5.0004608

List of optional additional citations

  1. Neese,F.
     Approximate second-order SCF convergence for spin unrestricted wavefunctions
     Chem. Phys. Lett., 2000 325(1-3)93-98
     doi.org/10.1016/s0009-2614(00)00662-x

Timings for individual modules:

Sum of individual times          ...      761.836 sec (=  12.697 min)
Startup calculation              ...       17.421 sec (=   0.290 min)   2.3 %
SCF iterations                   ...      744.205 sec (=  12.403 min)  97.7 %
Property calculations            ...        0.210 sec (=   0.004 min)   0.0 %
                             ****ORCA TERMINATED NORMALLY****
TOTAL RUN TIME: 0 days 0 hours 12 minutes 42 seconds 490 msec
