
                                 *****************
                                 * O   R   C   A *
                                 *****************

                                            #,                                       
                                            ###                                      
                                            ####                                     
                                            #####                                    
                                            ######                                   
                                           ########,                                 
                                     ,,################,,,,,                         
                               ,,#################################,,                 
                          ,,##########################################,,             
                       ,#########################################, ''#####,          
                    ,#############################################,,   '####,        
                  ,##################################################,,,,####,       
                ,###########''''           ''''###############################       
              ,#####''   ,,,,##########,,,,          '''####'''          '####       
            ,##' ,,,,###########################,,,                        '##       
           ' ,,###''''                  '''############,,,                           
         ,,##''                                '''############,,,,        ,,,,,,###''
      ,#''                                            '''#######################'''  
     '                                                          ''''####''''         
             ,#######,   #######,   ,#######,      ##                                
            ,#'     '#,  ##    ##  ,#'     '#,    #''#        ,####,   ,####,        
            ##       ##  ##   ,#'  ##            #'  '#       #'       #'  '#        
            ##       ##  #######   ##           ,######,      #####,   #    #        
            '#,     ,#'  ##    ##  '#,     ,#' ,#      #,     #,   #   #,  ,#        
             '#######'   ##     ##  '#######'  #'      '#     '####' # '####'        



                #########################################################
                #                        -***-                          #
                #          Department of theory and spectroscopy        #
                #                                                       #
                #                      Frank Neese                      #
                #                                                       #
                #     Directorship, Architecture, Infrastructure        #
                #                    SHARK, DRIVERS                     #
                #        Core code/Algorithms in most modules           #
                #                                                       #
                #        Max Planck Institute fuer Kohlenforschung      #
                #                Kaiser Wilhelm Platz 1                 #
                #                 D-45470 Muelheim/Ruhr                 #
                #                      Germany                          #
                #                                                       #
                #                  All rights reserved                  #
                #                        -***-                          #
                #########################################################


                         Program Version 6.0.0  -   RELEASE  -


 With contributions from (in alphabetic order):
   Daniel Aravena         : Magnetic Suceptibility
   Michael Atanasov       : Ab Initio Ligand Field Theory (pilot matlab implementation)
   Alexander A. Auer      : GIAO ZORA, VPT2 properties, NMR spectrum
   Ute Becker             : All parallelization in ORCA, NUMFREQ, NUMCALC
   Giovanni Bistoni       : ED, misc. LED, open-shell LED, HFLD
   Martin Brehm           : Molecular dynamics
   Dmytro Bykov           : pre 5.0 version of the SCF Hessian
   Marcos Casanova-Páez   : Triplet and SCS-CIS(D). UHF-(DLPNO)-IP/EA/STEOM-CCSD. UHF-CVS-IP/STEOM-CCSD
   Vijay G. Chilkuri      : MRCI spin determinant printing, contributions to CSF-ICE
   Pauline Colinet        : FMM embedding
   Dipayan Datta          : RHF DLPNO-CCSD density
   Achintya Kumar Dutta   : EOM-CC, STEOM-CC
   Nicolas Foglia         : Exact transition moments, OPA infrastructure, MCD improvements
   Dmitry Ganyushin       : Spin-Orbit,Spin-Spin,Magnetic field MRCI
   Miquel Garcia          : C-PCM and meta-GGA Hessian, CCSD/C-PCM, Gaussian charge scheme
   Tiago L. C. Gouveia    : GS-ROHF, GS-ROCIS
   Yang Guo               : DLPNO-NEVPT2, F12-NEVPT2, CIM, IAO-localization
   Andreas Hansen         : Spin unrestricted coupled pair/coupled cluster methods
   Ingolf Harden          : AUTO-CI MPn and infrastructure 
   Benjamin Helmich-Paris : MC-RPA, TRAH-(SCF,CASSCF), AVAS, COSX integrals, SCF dyn. polar.
   Lee Huntington         : MR-EOM, pCC
   Robert Izsak           : Overlap fitted RIJCOSX, COSX-SCS-MP3, EOM
   Riya Kayal             : Wick's Theorem for AUTO-CI, AUTO-CI UHF-CCSDT
   Emily Kempfer          : AUTO-CI, RHF CISDT and CCSDT
   Christian Kollmar      : KDIIS, OOCD, Brueckner-CCSD(T), CCSD density, CASPT2, CASPT2-K, improved NEVPT2
   Axel Koslowski         : Symmetry handling
   Simone Kossmann        : Meta GGA functionals, TD-DFT gradient, OOMP2, (MP2 Hessian; deprecated post 5.0)
   Lucas Lang             : DCDCAS
   Marvin Lechner         : AUTO-CI (C++ implementation), FIC-MRCC
   Spencer Leger          : CASSCF response
   Dagmar Lenk            : GEPOL surface, SMD, ORCA-2-JSON
   Dimitrios Liakos       : Extrapolation schemes; Compound Job, initial MDCI parallelization
   Dimitrios Manganas     : Further ROCIS development; embedding schemes. LFT, Crystal Embedding
   Dimitrios Pantazis     : SARC Basis sets
   Anastasios Papadopoulos: AUTO-CI, single reference methods and gradients
   Taras Petrenko         : pre 6.0 DFT Hessian and TD-DFT gradient, (ASA, deprecated), ECA, 1-Electron XAS/XES, NRVS
   Peter Pinski           : DLPNO-MP2, DLPNO-MP2 Gradient
   Christoph Reimann      : Effective Core Potentials
   Marius Retegan         : Local ZFS, SOC
   Christoph Riplinger    : Optimizer, TS searches, QM/MM, DLPNO-CCSD(T), (RO)-DLPNO pert. Triples
   Michael Roemelt        : Original ROCIS implementation
   Masaaki Saitow         : Open-shell DLPNO-CCSD energy and density
   Barbara Sandhoefer     : DKH picture change effects
   Kantharuban Sivalingam : CASSCF convergence/infrastructure, NEVPT2 and variants, FIC-MRCI
   Bernardo de Souza      : ESD, SOC TD-DFT
   Georgi Stoychev        : AutoAux, RI-MP2 NMR, DLPNO-MP2 response, X2C
   Van Anh Tran           : RI-MP2 g-tensors
   Willem Van den Heuvel  : Paramagnetic NMR
   Zikuan Wang            : NOTCH, Electric field optimization 
   Frank Wennmohs         : Technical directorship and infrastructure
   Hang Xu                : AUTO-CI-Response properties 


 We gratefully acknowledge several colleagues who have allowed us to
 interface, adapt or use parts of their codes:
   Stefan Grimme, W. Hujo, H. Kruse, P. Pracht,  : VdW corrections, initial TS optimization,
                  C. Bannwarth, S. Ehlert,         DFT functionals, gCP, sTDA/sTD-DF
                  L. Wittmann, M. Mueller
   Ed Valeev, F. Pavosevic, A. Kumar             : LibInt (2-el integral package), F12 methods
   Garnet Chan, S. Sharma, J. Yang, R. Olivares  : DMRG
   Ulf Ekstrom                                   : XCFun DFT Library
   Mihaly Kallay                                 : mrcc  (arbitrary order and MRCC methods)
   Frank Weinhold                                : gennbo (NPA and NBO analysis)
   Simon Mueller                                 : openCOSMO-RS
   Christopher J. Cramer and Donald G. Truhlar   : smd solvation model
   Lars Goerigk                                  : TD-DFT with DH, B97 family of functionals
   V. Asgeirsson, H. Jonsson                     : NEB implementation
   FAccTs GmbH                                   : IRC, NEB, NEB-TS, DLPNO-Multilevel, CI-OPT
                                                   MM, QMMM, 2- and 3-layer-ONIOM, Crystal-QMMM,
                                                   LR-CPCM, SF, NACMEs, symmetry and pop. for TD-DFT,
                                                   nearIR, NL-DFT gradient (VV10), updates on ESD,
                                                   ML-optimized integration grids, MBIS, APM,
                                                   GOAT, DOCKER, SOLVATOR, interface openCOSMO-RS
   S Lehtola, MJT Oliveira, MAL Marques          : LibXC Library
   Liviu Ungur et al                             : ANISO software


 Your calculation uses the libint2 library for the computation of 2-el integrals
 For citations please refer to: http://libint.valeyev.net

 Your ORCA version has been built with support for libXC version: 6.2.2
 For citations please refer to: https://libxc.gitlab.io

 This ORCA versions uses:
   CBLAS   interface :  Fast vector & matrix operations
   LAPACKE interface :  Fast linear algebra routines
   SCALAPACK package :  Parallel linear algebra routines
   Shared memory     :  Shared parallel matrices
   BLAS/LAPACK       :  OpenBLAS 0.3.27  USE64BITINT DYNAMIC_ARCH NO_AFFINITY SkylakeX SINGLE_THREADED
        Core in use  :  SkylakeX
   Copyright (c) 2011-2014, The OpenBLAS Project


Warning: RI is on but no J-basis has been assigned. Assigning Def2/J (nothing to worry about!)
================================================================================

----- Orbital basis set information -----
Your calculation utilizes the basis: 6-31G*
   H-He, Li-Ne : W. J. Hehre, R. Ditchfield and J.A. Pople, J. Chem. Phys. 56, 2257 (1972).
                 Note: He and Ne are unpublished basis sets taken from the Gaussian program.
                 Note: Li and B from J. D. Dill and J. A. Pople, J. Chem. Phys. 62, 2921 (1975).
   Na - Ar     : M. M. Francl, W. J. Pietro, W. J. Hehre, J. S. Binkley, M. S. Gordon, 
                 D. J. DeFrees and J. A. Pople, J. Chem. Phys. 77, 3654 (1982).
   K - Zn      : V. A. Rassolov, J. A. Pople, M. A. Ratner, and T. L. Windus, J. Chem. Phys. 109, 1223 (1998).

----- AuxJ basis set information -----
Your calculation utilizes the auxiliary basis: def2/J
   F. Weigend, Phys. Chem. Chem. Phys. 8, 1057 (2006).

================================================================================
                                        WARNINGS
                       Please study these warnings very carefully!
================================================================================


================================================================================
                                       INPUT FILE
================================================================================
NAME = /home/nmrbox/aojoawo/Documents/ERDOS/inputs/CHEMBL256087.inp
|  1> ! B3LYP 6-31G* SP
|  2> 
|  3> * xyz 0 1
|  4> C 3.4456 -1.0210 0.1679
|  5> C 2.2857 -0.1603 -0.3495
|  6> C 1.2098 -1.0275 -1.0504
|  7> C 0.0489 -1.3679 -0.1083
|  8> C -0.7097 -0.0938 0.3827
|  9> C -1.9778 0.2067 -0.4928
| 10> C -2.6081 1.5791 -0.1823
| 11> C -3.0690 -0.8684 -0.3041
| 12> C 0.2565 1.1327 0.4868
| 13> O -0.1892 1.9987 1.4999
| 14> C 1.6977 0.6950 0.7978
| 15> H 3.0797 -1.7722 0.9003
| 16> H 3.9351 -1.5519 -0.6763
| 17> H 4.2077 -0.3796 0.6602
| 18> H 2.7057 0.5325 -1.1131
| 19> H 1.6519 -1.9672 -1.4485
| 20> H 0.8032 -0.4727 -1.9246
| 21> H 0.4588 -1.9095 0.7728
| 22> H -0.6140 -2.0868 -0.6243
| 23> H -1.0661 -0.3176 1.4143
| 24> H -1.6792 0.2115 -1.5644
| 25> H -1.9339 2.4080 -0.4793
| 26> H -2.8445 1.6642 0.9000
| 27> H -3.5468 1.7176 -0.7605
| 28> H -3.3385 -0.9676 0.7693
| 29> H -2.7532 -1.8570 -0.6878
| 30> H -3.9848 -0.5957 -0.8712
| 31> H 0.2731 1.6695 -0.4918
| 32> H 0.2204 2.8857 1.3227
| 33> H 1.6962 0.1238 1.7534
| 34> H 2.3388 1.5916 0.9468
| 35> *
| 36> 
| 37>                          ****END OF INPUT****
================================================================================

                       ****************************
                       * Single Point Calculation *
                       ****************************

---------------------------------
CARTESIAN COORDINATES (ANGSTROEM)
---------------------------------
  C      3.445600   -1.021000    0.167900
  C      2.285700   -0.160300   -0.349500
  C      1.209800   -1.027500   -1.050400
  C      0.048900   -1.367900   -0.108300
  C     -0.709700   -0.093800    0.382700
  C     -1.977800    0.206700   -0.492800
  C     -2.608100    1.579100   -0.182300
  C     -3.069000   -0.868400   -0.304100
  C      0.256500    1.132700    0.486800
  O     -0.189200    1.998700    1.499900
  C      1.697700    0.695000    0.797800
  H      3.079700   -1.772200    0.900300
  H      3.935100   -1.551900   -0.676300
  H      4.207700   -0.379600    0.660200
  H      2.705700    0.532500   -1.113100
  H      1.651900   -1.967200   -1.448500
  H      0.803200   -0.472700   -1.924600
  H      0.458800   -1.909500    0.772800
  H     -0.614000   -2.086800   -0.624300
  H     -1.066100   -0.317600    1.414300
  H     -1.679200    0.211500   -1.564400
  H     -1.933900    2.408000   -0.479300
  H     -2.844500    1.664200    0.900000
  H     -3.546800    1.717600   -0.760500
  H     -3.338500   -0.967600    0.769300
  H     -2.753200   -1.857000   -0.687800
  H     -3.984800   -0.595700   -0.871200
  H      0.273100    1.669500   -0.491800
  H      0.220400    2.885700    1.322700
  H      1.696200    0.123800    1.753400
  H      2.338800    1.591600    0.946800

----------------------------
CARTESIAN COORDINATES (A.U.)
----------------------------
  NO LB      ZA    FRAG     MASS         X           Y           Z
   0 C     6.0000    0    12.011    6.511240   -1.929410    0.317285
   1 C     6.0000    0    12.011    4.319347   -0.302923   -0.660459
   2 C     6.0000    0    12.011    2.286191   -1.941694   -1.984968
   3 C     6.0000    0    12.011    0.092408   -2.584956   -0.204657
   4 C     6.0000    0    12.011   -1.341139   -0.177256    0.723198
   5 C     6.0000    0    12.011   -3.737500    0.390606   -0.931257
   6 C     6.0000    0    12.011   -4.928595    2.984067   -0.344497
   7 C     6.0000    0    12.011   -5.799570   -1.641038   -0.574666
   8 C     6.0000    0    12.011    0.484715    2.140493    0.919919
   9 O     8.0000    0    15.999   -0.357536    3.776996    2.834400
  10 C     6.0000    0    12.011    3.208188    1.313360    1.507624
  11 H     1.0000    0     1.008    5.819790   -3.348973    1.701320
  12 H     1.0000    0     1.008    7.436261   -2.932666   -1.278022
  13 H     1.0000    0     1.008    7.951401   -0.717340    1.247597
  14 H     1.0000    0     1.008    5.113032    1.006279   -2.103454
  15 H     1.0000    0     1.008    3.121639   -3.717469   -2.737268
  16 H     1.0000    0     1.008    1.517828   -0.893274   -3.636967
  17 H     1.0000    0     1.008    0.867006   -3.608432    1.460380
  18 H     1.0000    0     1.008   -1.160292   -3.943480   -1.179756
  19 H     1.0000    0     1.008   -2.014637   -0.600177    2.672640
  20 H     1.0000    0     1.008   -3.173228    0.399677   -2.956288
  21 H     1.0000    0     1.008   -3.654541    4.550461   -0.905746
  22 H     1.0000    0     1.008   -5.375326    3.144882    1.700754
  23 H     1.0000    0     1.008   -6.702481    3.245794   -1.437137
  24 H     1.0000    0     1.008   -6.308851   -1.828499    1.453766
  25 H     1.0000    0     1.008   -5.202794   -3.509221   -1.299754
  26 H     1.0000    0     1.008   -7.530181   -1.125710   -1.646329
  27 H     1.0000    0     1.008    0.516084    3.154898   -0.929367
  28 H     1.0000    0     1.008    0.416496    5.453183    2.499541
  29 H     1.0000    0     1.008    3.205353    0.233948    3.313446
  30 H     1.0000    0     1.008    4.419691    3.007688    1.789193

--------------------------------
INTERNAL COORDINATES (ANGSTROEM)
--------------------------------
 C      0   0   0     0.000000000000     0.00000000     0.00000000
 C      1   0   0     1.534234421462     0.00000000     0.00000000
 C      2   1   0     1.549470057794   111.31665873     0.00000000
 C      3   2   1     1.533334073188   111.84086403    97.00106467
 C      4   3   2     1.562013370621   112.31797579    62.02799004
 C      5   4   3     1.569993028647   111.90706547    95.66505600
 C      6   5   4     1.541807413395   112.84664163   189.59802688
 C      6   5   4     1.543426428438   111.68772263    67.90596424
 C      5   4   3     1.564826348193   111.12272879   328.71404439
 O      9   5   4     1.405338428991   109.58015119   209.82011624
 C      9   5   4     1.537972603787   111.65308523   330.77693842
 H      1   2   3     1.111122859993   110.64674444   300.08942540
 H      1   2   3     1.110917953766   110.17845229    60.49474158
 H      1   2   3     1.111102902525   110.12823366   179.62760212
 H      2   1   3     1.113308941849   107.16943580   242.76844732
 H      3   2   1     1.112192478845   111.02500405   334.40271723
 H      3   2   1     1.112363357901   109.27884147   217.12123578
 H      4   3   2     1.112513271831   108.40498076   301.41632726
 H      4   3   2     1.105671569681   108.15124112   187.02544279
 H      5   4   3     1.114139111601   106.41297892   212.50501374
 H      6   5   4     1.112434968886   108.73526451   308.71018159
 H      7   6   5     1.108976938444   111.27547869    66.71091658
 H      7   6   5     1.111080672139   110.56849174   304.85529968
 H      7   6   5     1.111150385861   110.58002434   184.64098949
 H      8   6   5     1.111151857308   110.59561391    55.72293186
 H      8   6   5     1.106474260885   112.22089971   293.85731347
 H      8   6   5     1.111151357827   110.44760000   175.67618284
 H      9   5   4     1.116283010710   109.13371568    89.43673147
 H     10   9   5     0.992945617846   106.91755042   200.28864093
 H     11   9   5     1.113302766546   108.56161210   301.72600044
 H     11   9   5     1.112250767588   109.74310945   184.59358600

---------------------------
INTERNAL COORDINATES (A.U.)
---------------------------
 C      0   0   0     0.000000000000     0.00000000     0.00000000
 C      1   0   0     2.899282881799     0.00000000     0.00000000
 C      2   1   0     2.928074061942   111.31665873     0.00000000
 C      3   2   1     2.897581470136   111.84086403    97.00106467
 C      4   3   2     2.951777487998   112.31797579    62.02799004
 C      5   4   3     2.966856856308   111.90706547    95.66505600
 C      6   5   4     2.913593762566   112.84664163   189.59802688
 C      6   5   4     2.916653257603   111.68772263    67.90596424
 C      5   4   3     2.957093245229   111.12272879   328.71404439
 O      9   5   4     2.655704756269   109.58015119   209.82011624
 C      9   5   4     2.906347022632   111.65308523   330.77693842
 H      1   2   3     2.099717906527   110.64674444   300.08942540
 H      1   2   3     2.099330689874   110.17845229    60.49474158
 H      1   2   3     2.099680192378   110.12823366   179.62760212
 H      2   1   3     2.103849002539   107.16943580   242.76844732
 H      3   2   1     2.101739193225   111.02500405   334.40271723
 H      3   2   1     2.102062107841   109.27884147   217.12123578
 H      4   3   2     2.102345404113   108.40498076   301.41632726
 H      4   3   2     2.089416460759   108.15124112   187.02544279
 H      5   4   3     2.105417796017   106.41297892   212.50501374
 H      6   5   4     2.102197432991   108.73526451   308.71018159
 H      7   6   5     2.095662702493   111.27547869    66.71091658
 H      7   6   5     2.099638183035   110.56849174   304.85529968
 H      7   6   5     2.099769922879   110.58002434   184.64098949
 H      8   6   5     2.099772703511   110.59561391    55.72293186
 H      8   6   5     2.090933327305   112.22089971   293.85731347
 H      8   6   5     2.099771759627   110.44760000   175.67618284
 H      9   5   4     2.109469178191   109.13371568    89.43673147
 H     10   9   5     1.876395283607   106.91755042   200.28864093
 H     11   9   5     2.103837332910   108.56161210   301.72600044
 H     11   9   5     2.101849342985   109.74310945   184.59358600

---------------------
BASIS SET INFORMATION
---------------------
There are 3 groups of distinct atoms

 Group   1 Type C   : 10s4p1d contracted to 3s2p1d pattern {631/31/1}
 Group   2 Type O   : 10s4p1d contracted to 3s2p1d pattern {631/31/1}
 Group   3 Type H   : 4s contracted to 2s pattern {31}

Atom   0C    basis set group =>   1
Atom   1C    basis set group =>   1
Atom   2C    basis set group =>   1
Atom   3C    basis set group =>   1
Atom   4C    basis set group =>   1
Atom   5C    basis set group =>   1
Atom   6C    basis set group =>   1
Atom   7C    basis set group =>   1
Atom   8C    basis set group =>   1
Atom   9O    basis set group =>   2
Atom  10C    basis set group =>   1
Atom  11H    basis set group =>   3
Atom  12H    basis set group =>   3
Atom  13H    basis set group =>   3
Atom  14H    basis set group =>   3
Atom  15H    basis set group =>   3
Atom  16H    basis set group =>   3
Atom  17H    basis set group =>   3
Atom  18H    basis set group =>   3
Atom  19H    basis set group =>   3
Atom  20H    basis set group =>   3
Atom  21H    basis set group =>   3
Atom  22H    basis set group =>   3
Atom  23H    basis set group =>   3
Atom  24H    basis set group =>   3
Atom  25H    basis set group =>   3
Atom  26H    basis set group =>   3
Atom  27H    basis set group =>   3
Atom  28H    basis set group =>   3
Atom  29H    basis set group =>   3
Atom  30H    basis set group =>   3
---------------------------------
AUXILIARY/J BASIS SET INFORMATION
---------------------------------
There are 3 groups of distinct atoms

 Group   1 Type C   : 12s5p4d2f1g contracted to 6s4p3d1f1g pattern {711111/2111/211/2/1}
 Group   2 Type O   : 12s5p4d2f1g contracted to 6s4p3d1f1g pattern {711111/2111/211/2/1}
 Group   3 Type H   : 5s2p1d contracted to 3s1p1d pattern {311/2/1}

Atom   0C    basis set group =>   1
Atom   1C    basis set group =>   1
Atom   2C    basis set group =>   1
Atom   3C    basis set group =>   1
Atom   4C    basis set group =>   1
Atom   5C    basis set group =>   1
Atom   6C    basis set group =>   1
Atom   7C    basis set group =>   1
Atom   8C    basis set group =>   1
Atom   9O    basis set group =>   2
Atom  10C    basis set group =>   1
Atom  11H    basis set group =>   3
Atom  12H    basis set group =>   3
Atom  13H    basis set group =>   3
Atom  14H    basis set group =>   3
Atom  15H    basis set group =>   3
Atom  16H    basis set group =>   3
Atom  17H    basis set group =>   3
Atom  18H    basis set group =>   3
Atom  19H    basis set group =>   3
Atom  20H    basis set group =>   3
Atom  21H    basis set group =>   3
Atom  22H    basis set group =>   3
Atom  23H    basis set group =>   3
Atom  24H    basis set group =>   3
Atom  25H    basis set group =>   3
Atom  26H    basis set group =>   3
Atom  27H    basis set group =>   3
Atom  28H    basis set group =>   3
Atom  29H    basis set group =>   3
Atom  30H    basis set group =>   3
------------------------------------------------------------------------------
                             ORCA STARTUP CALCULATIONS
                           -- RI-GTO INTEGRALS CHOSEN --
------------------------------------------------------------------------------
------------------------------------------------------------------------------
                   ___                                                        
                  /   \      - P O W E R E D   B Y -                         
                 /     \                                                     
                 |  |  |   _    _      __       _____    __    __             
                 |  |  |  | |  | |    /  \     |  _  \  |  |  /  |          
                  \  \/   | |  | |   /    \    | | | |  |  | /  /          
                 / \  \   | |__| |  /  /\  \   | |_| |  |  |/  /          
                |  |  |   |  __  | /  /__\  \  |    /   |      \           
                |  |  |   | |  | | |   __   |  |    \   |  |\   \          
                \     /   | |  | | |  |  |  |  | |\  \  |  | \   \       
                 \___/    |_|  |_| |__|  |__|  |_| \__\ |__|  \__/        
                                                                              
                      - O R C A' S   B I G   F R I E N D -                    
                                      &                                       
                       - I N T E G R A L  F E E D E R -                       
                                                                              
 v1 FN, 2020, v2 2021, v3 2022-2024                                           
------------------------------------------------------------------------------


----------------------
SHARK INTEGRAL PACKAGE
----------------------

Number of atoms                             ...     31
Number of basis functions                   ...    194
Number of shells                            ...    106
Maximum angular momentum                    ...      2
Integral batch strategy                     ... SHARK/LIBINT Hybrid
RI-J (if used) integral strategy            ... SPLIT-RIJ (Revised 2003 algorithm where possible)
Printlevel                                  ...      1
Contraction scheme used                     ... SEGMENTED contraction
Prescreening option                         ... SCHWARTZ
   Thresh                                   ... 1.000e-10
   Tcut                                     ... 1.000e-11
   Tpresel                                  ... 1.000e-11 
Coulomb Range Separation                    ... NOT USED
Exchange Range Separation                   ... NOT USED
Multipole approximations                    ... NOT USED
Finite Nucleus Model                        ... NOT USED
CABS basis                                  ... NOT available
Auxiliary Coulomb fitting basis             ... AVAILABLE
   # of basis functions in Aux-J            ...    759
   # of shells in Aux-J                     ...    265
   Maximum angular momentum in Aux-J        ...      4
Auxiliary J/K fitting basis                 ... NOT available
Auxiliary Correlation fitting basis         ... NOT available
Auxiliary 'external' fitting basis          ... NOT available

Checking pre-screening integrals            ... done (  0.0 sec) Dimension = 106
Check shell pair data                       ... done (  0.0 sec)
Shell pair information
Shell pair cut-off parameter TPreSel        ...   1.0e-11
Total number of shell pairs                 ...      5671
Shell pairs after pre-screening             ...      5094
Total number of primitive shell pairs       ...     30426
Primitive shell pairs kept                  ...     16928
          la=0 lb=0:   2350 shell pairs
          la=1 lb=0:   1515 shell pairs
          la=1 lb=1:    249 shell pairs
          la=2 lb=0:    693 shell pairs
          la=2 lb=1:    228 shell pairs
          la=2 lb=2:     59 shell pairs

Calculating one electron integrals          ... done (  0.0 sec)
Calculating RI/J V-Matrix + Cholesky decomp.... done (  0.1 sec)
Calculating Nuclear repulsion               ... done (  0.0 sec) ENN=    687.780316679154 Eh

Diagonalization of the overlap matrix:
Smallest eigenvalue                        ... 2.132e-03
Time for diagonalization                   ...    0.005 sec
Threshold for overlap eigenvalues          ... 1.000e-07
Number of eigenvalues below threshold      ... 0
Time for construction of square roots      ...    0.015 sec
Total time needed                          ...    0.034 sec

-------------------
DFT GRID GENERATION
-------------------

General Integration Accuracy     IntAcc      ... 4.388
Radial Grid Type                 RadialGrid  ... OptM3 with GC (2021)
Angular Grid (max. ang.)         AngularGrid ... 4 (Lebedev-302)
Angular grid pruning method      GridPruning ... 4 (adaptive)
Weight generation scheme         WeightScheme... mBecke (2022)
Basis function cutoff            BFCut       ... 1.0000e-10
Integration weight cutoff        WCut        ... 1.0000e-14
Partially contracted basis set               ... off
Rotationally invariant grid construction     ... off
Angular grids for H and He will be reduced by one unit

Total number of grid points                  ...   128996
Total number of batches                      ...     2031
Average number of points per batch           ...       63
Average number of grid points per atom       ...     4161

--------------------
COSX GRID GENERATION
--------------------

GRIDX 1
-------
General Integration Accuracy     IntAcc      ... 3.816
Radial Grid Type                 RadialGrid  ... OptM3 with GC (2021)
Angular Grid (max. ang.)         AngularGrid ... 1 (Lebedev-50)
Angular grid pruning method      GridPruning ... 4 (adaptive)
Weight generation scheme         WeightScheme... mBecke (2022)
Basis function cutoff            BFCut       ... 1.0000e-10
Integration weight cutoff        WCut        ... 1.0000e-14
Partially contracted basis set               ... on
Rotationally invariant grid construction     ... off
Angular grids for H and He will be reduced by one unit

Total number of grid points                  ...    16505
Total number of batches                      ...      150
Average number of points per batch           ...      110
Average number of grid points per atom       ...      532
UseSFitting                                  ... on

GRIDX 2
-------
General Integration Accuracy     IntAcc      ... 4.020
Radial Grid Type                 RadialGrid  ... OptM3 with GC (2021)
Angular Grid (max. ang.)         AngularGrid ... 2 (Lebedev-110)
Angular grid pruning method      GridPruning ... 4 (adaptive)
Weight generation scheme         WeightScheme... mBecke (2022)
Basis function cutoff            BFCut       ... 1.0000e-10
Integration weight cutoff        WCut        ... 1.0000e-14
Partially contracted basis set               ... on
Rotationally invariant grid construction     ... off
Angular grids for H and He will be reduced by one unit

Total number of grid points                  ...    34028
Total number of batches                      ...      284
Average number of points per batch           ...      119
Average number of grid points per atom       ...     1098
UseSFitting                                  ... on

GRIDX 3
-------
General Integration Accuracy     IntAcc      ... 4.338
Radial Grid Type                 RadialGrid  ... OptM3 with GC (2021)
Angular Grid (max. ang.)         AngularGrid ... 3 (Lebedev-194)
Angular grid pruning method      GridPruning ... 4 (adaptive)
Weight generation scheme         WeightScheme... mBecke (2022)
Basis function cutoff            BFCut       ... 1.0000e-10
Integration weight cutoff        WCut        ... 1.0000e-14
Partially contracted basis set               ... on
Rotationally invariant grid construction     ... off
Angular grids for H and He will be reduced by one unit

Total number of grid points                  ...    73835
Total number of batches                      ...      594
Average number of points per batch           ...      124
Average number of grid points per atom       ...     2382
UseSFitting                                  ... on
Initializing property integral containers    ... done (  0.0 sec)

SHARK setup successfully completed in   3.4 seconds

Maximum memory used throughout the entire STARTUP-calculation: 51.1 MB
-------------------------------------------------------------------------------
                                 ORCA GUESS
                   Start orbitals & Density for SCF / CASSCF
-------------------------------------------------------------------------------

------------
SCF SETTINGS
------------
Hamiltonian:
 Density Functional     Method          .... DFT(GTOs)
 Exchange Functional    Exchange        .... B88
   X-Alpha parameter    XAlpha          ....  0.666667
   Becke's b parameter  XBeta           ....  0.004200
 Correlation Functional Correlation     .... LYP
 LDA part of GGA corr.  LDAOpt          .... VWN-5
 Gradients option       PostSCFGGA      .... off
 Hybrid DFT is turned on
   Fraction HF Exchange ScalHFX         ....  0.200000
   Scaling of DF-GGA-X  ScalDFX         ....  0.720000
   Scaling of DF-GGA-C  ScalDFC         ....  0.810000
   Scaling of DF-LDA-C  ScalLDAC        ....  1.000000
   Perturbative correction              ....  0.000000
   NL short-range parameter             ....  4.800000
 RI-approximation to the Coulomb term is turned on
   Number of AuxJ basis functions       .... 759
   RIJ-COSX (HFX calculated with COS-X)).... on


General Settings:
 Integral files         IntName         .... /home/nmrbox/aojoawo/Documents/ERDOS/inputs/CHEMBL256087
 Hartree-Fock type      HFTyp           .... RHF
 Total Charge           Charge          ....    0
 Multiplicity           Mult            ....    1
 Number of Electrons    NEL             ....   88
 Basis Dimension        Dim             ....  194
 Nuclear Repulsion      ENuc            ....    687.7803166792 Eh

Convergence Acceleration:
 AO-DIIS                CNVDIIS         .... on
   Start iteration      DIISMaxIt       ....    12
   Startup error        DIISStart       ....  0.200000
   # of expansion vecs  DIISMaxEq       ....     5
   Bias factor          DIISBfac        ....   1.050
   Max. coefficient     DIISMaxC        ....  10.000
 MO-DIIS                CNVKDIIS        .... off
 Trust-Rad. Augm. Hess. CNVTRAH         .... auto
   Auto Start mean grad. ratio tolernc. ....  1.125000
   Auto Start start iteration           ....    50
   Auto Start num. interpolation iter.  ....    10
   Max. Number of Micro iterations      ....    24
   Max. Number of Macro iterations      .... Maxiter - #DIIS iter
   Number of Davidson start vectors     ....     2
   Converg. threshold    (grad. norm)   ....   5.000e-05
   Grad. Scal. Fac. for Micro threshold ....   0.100
   Minimum threshold for Micro iter.    ....   1.000e-02
   NR start threshold (gradient norm)   ....   1.000e-04
   Initial trust radius                 ....   0.400
   Minimum AH scaling param. (alpha)    ....   1.000
   Maximum AH scaling param. (alpha)    .... 1000.000
   Quad. conv. algorithm                .... NR
   White noise on init. David. guess    .... on
   Maximum white noise                  ....   0.010
   Pseudo random numbers                .... off
   Inactive MOs                         .... canonical
   Orbital update algorithm             .... Taylor
   Preconditioner                       .... Diag
   Full preconditioner red. dimension   ....   250
 SOSCF                  CNVSOSCF        .... on
   Start iteration      SOSCFMaxIt      ....   150
   Startup grad/error   SOSCFStart      ....  0.003300
   Hessian update       SOSCFHessUp     .... L-BFGS
 Level Shifting         CNVShift        .... on
   Level shift para.    LevelShift      ....    0.2500
   Turn off err/grad.   ShiftErr        ....    0.0010
 Zerner damping         CNVZerner       .... off
 Static damping         CNVDamp         .... on
   Fraction old density DampFac         ....    0.7000
   Max. Damping (<1)    DampMax         ....    0.9800
   Min. Damping (>=0)   DampMin         ....    0.0000
   Turn off err/grad.   DampErr         ....    0.1000

SCF Procedure:
 Maximum # iterations   MaxIter         ....   125
 SCF integral mode      SCFMode         .... Direct
   Integral package                     .... SHARK and LIBINT hybrid scheme
 Reset frequency        DirectResetFreq ....    20
 Integral Threshold     Thresh          ....  1.000e-10 Eh
 Primitive CutOff       TCut            ....  1.000e-11 Eh

Convergence Tolerance:
 Convergence Check Mode ConvCheckMode   .... Total+1el-Energy
 Convergence forced     ConvForced      .... 0
 Energy Change          TolE            ....  1.000e-06 Eh
 1-El. energy change                    ....  1.000e-03 Eh
 Orbital Gradient       TolG            ....  5.000e-05
 Orbital Rotation angle TolX            ....  5.000e-05
 DIIS Error             TolErr          ....  1.000e-06

------------------------------
INITIAL GUESS: MODEL POTENTIAL
------------------------------
Loading Hartree-Fock densities                     ... done
Calculating cut-offs                               ... done
Initializing the effective Hamiltonian             ... done
Setting up the integral package (SHARK)            ... done
Starting the Coulomb interaction                   ... done (   0.4 sec)
Making the grid                                    ... done (   0.4 sec)
Mapping shells                                     ... done
Starting the XC term evaluation                    ... done (   0.3 sec)
  promolecular density results
     # of electrons  =     87.980944990
     EX              =    -65.526589532
     EC              =     -2.870165893
     EX+EC           =    -68.396755425
Transforming the Hamiltonian                       ... done (   0.0 sec)
Diagonalizing the Hamiltonian                      ... done (   0.0 sec)
Back transforming the eigenvectors                 ... done (   0.0 sec)
Now organizing SCF variables                       ... done
                      ------------------
                      INITIAL GUESS DONE (   1.1 sec)
                      ------------------
             **** ENERGY FILE WAS UPDATED (/home/nmrbox/aojoawo/Documents/ERDOS/inputs/CHEMBL256087.en.tmp) ****
Finished Guess after   1.2 sec
Maximum memory used throughout the entire GUESS-calculation: 24.7 MB

-------------------------------------------------------------------------------------------
                                      ORCA LEAN-SCF
                              memory conserving SCF solver
-------------------------------------------------------------------------------------------

----------------------------------------D-I-I-S--------------------------------------------
Iteration    Energy (Eh)           Delta-E    RMSDP     MaxDP     DIISErr   Damp  Time(sec)
-------------------------------------------------------------------------------------------
               ***  Starting incremental Fock matrix formation  ***
    1    -467.6101571781042594     0.00e+00  3.39e-03  7.07e-02  2.39e-01  0.700   9.8
    2    -467.7905843308996054    -1.80e-01  2.51e-03  4.10e-02  1.09e-01  0.700   4.7
                               ***Turning on AO-DIIS***
    3    -467.8624466054058075    -7.19e-02  9.92e-04  1.64e-02  3.40e-02  0.700   5.0
    4    -467.9039225033794764    -4.15e-02  1.49e-03  2.37e-02  1.63e-02  0.000   4.4
    5    -467.9948332179159252    -9.09e-02  3.49e-04  6.59e-03  8.73e-03  0.000   4.6
                              *** Initializing SOSCF ***
---------------------------------------S-O-S-C-F--------------------------------------
Iteration    Energy (Eh)           Delta-E    RMSDP     MaxDP     MaxGrad    Time(sec)
--------------------------------------------------------------------------------------
    6    -467.9954250549743620    -5.92e-04  1.19e-04  2.31e-03  1.30e-03     4.1
               *** Restarting incremental Fock matrix formation ***
    7    -467.9954401993828697    -1.51e-05  6.77e-05  1.75e-03  2.65e-04     9.2
    8    -467.9954383550995090     1.84e-06  2.74e-05  1.11e-03  4.43e-04     5.9
    9    -467.9954442989720746    -5.94e-06  5.76e-06  1.20e-04  1.14e-05     4.9
                  *** Gradient check signals convergence ***

               *****************************************************
               *                     SUCCESS                       *
               *           SCF CONVERGED AFTER   9 CYCLES          *
               *****************************************************

Recomputing exchange energy using gridx3       ... done (   14.685 sec)
Old exchange energy                            :    -13.439703038 Eh
New exchange energy                            :    -13.439748603 Eh
Exchange energy change after final integration :     -0.000045564 Eh
Total energy after final integration           :   -467.995489863 Eh
             **** ENERGY FILE WAS UPDATED (/home/nmrbox/aojoawo/Documents/ERDOS/inputs/CHEMBL256087.en.tmp) ****

----------------
TOTAL SCF ENERGY
----------------

Total Energy       :       -467.99548986321486 Eh          -12734.80470 eV

Components:
Nuclear Repulsion  :        687.78031667915400 Eh           18715.45389 eV
Electronic Energy  :      -1155.77576097812607 Eh          -31450.25736 eV
One Electron Energy:      -1997.82724846355609 Eh          -54363.64322 eV
Two Electron Energy:        842.05148748543013 Eh           22913.38587 eV

Virial components:
Potential Energy   :       -932.91279353248456 Eh          -25385.84770 eV
Kinetic Energy     :        464.91730366926970 Eh           12651.04300 eV
Virial Ratio       :          2.00662093273288

DFT components:
N(Alpha)           :       44.000259153565 electrons
N(Beta)            :       44.000259153565 electrons
N(Total)           :       88.000518307130 electrons
E(X)               :      -53.248344300116 Eh       
E(C)               :       -3.388617385295 Eh       
E(XC)              :      -56.636961685412 Eh       

---------------
SCF CONVERGENCE
---------------

  Last Energy change         ...    5.9439e-06  Tolerance :   1.0000e-06
  Last MAX-Density change    ...    1.2045e-04  Tolerance :   1.0000e-05
  Last RMS-Density change    ...    5.7633e-06  Tolerance :   1.0000e-06
  Last DIIS Error            ...    1.2993e-03  Tolerance :   1.0000e-06
  Last Orbital Gradient      ...    1.1398e-05  Tolerance :   5.0000e-05
  Last Orbital Rotation      ...    2.4461e-05  Tolerance :   5.0000e-05


----------------
ORBITAL ENERGIES
----------------

  NO   OCC          E(Eh)            E(eV) 
   0   2.0000     -19.130382      -520.5642 
   1   2.0000     -10.220086      -278.1027 
   2   2.0000     -10.175523      -276.8900 
   3   2.0000     -10.174941      -276.8742 
   4   2.0000     -10.173846      -276.8444 
   5   2.0000     -10.167314      -276.6667 
   6   2.0000     -10.166911      -276.6557 
   7   2.0000     -10.164283      -276.5842 
   8   2.0000     -10.162897      -276.5465 
   9   2.0000     -10.158794      -276.4348 
  10   2.0000     -10.153148      -276.2812 
  11   2.0000      -1.011135       -27.5144 
  12   2.0000      -0.822675       -22.3861 
  13   2.0000      -0.783954       -21.3325 
  14   2.0000      -0.730597       -19.8806 
  15   2.0000      -0.717442       -19.5226 
  16   2.0000      -0.663492       -18.0545 
  17   2.0000      -0.660827       -17.9820 
  18   2.0000      -0.606809       -16.5121 
  19   2.0000      -0.584522       -15.9056 
  20   2.0000      -0.548821       -14.9342 
  21   2.0000      -0.520279       -14.1575 
  22   2.0000      -0.498585       -13.5672 
  23   2.0000      -0.473056       -12.8725 
  24   2.0000      -0.449106       -12.2208 
  25   2.0000      -0.440707       -11.9922 
  26   2.0000      -0.424453       -11.5500 
  27   2.0000      -0.409036       -11.1304 
  28   2.0000      -0.393567       -10.7095 
  29   2.0000      -0.384651       -10.4669 
  30   2.0000      -0.377633       -10.2759 
  31   2.0000      -0.375485       -10.2175 
  32   2.0000      -0.369008       -10.0412 
  33   2.0000      -0.364358        -9.9147 
  34   2.0000      -0.353242        -9.6122 
  35   2.0000      -0.342141        -9.3101 
  36   2.0000      -0.330870        -9.0034 
  37   2.0000      -0.319660        -8.6984 
  38   2.0000      -0.314439        -8.5563 
  39   2.0000      -0.313097        -8.5198 
  40   2.0000      -0.298876        -8.1328 
  41   2.0000      -0.291784        -7.9398 
  42   2.0000      -0.282142        -7.6775 
  43   2.0000      -0.244942        -6.6652 
  44   0.0000       0.064836         1.7643 
  45   0.0000       0.082004         2.2314 
  46   0.0000       0.098146         2.6707 
  47   0.0000       0.107128         2.9151 
  48   0.0000       0.129592         3.5264 
  49   0.0000       0.139253         3.7893 
  50   0.0000       0.142403         3.8750 
  51   0.0000       0.144983         3.9452 
  52   0.0000       0.151345         4.1183 
  53   0.0000       0.159979         4.3532 
  54   0.0000       0.167301         4.5525 
*Only the first 10 virtual orbitals were printed.

                    ********************************
                    * MULLIKEN POPULATION ANALYSIS *
                    ********************************

-----------------------
MULLIKEN ATOMIC CHARGES
-----------------------
   0 C :   -0.442529
   1 C :   -0.060645
   2 C :   -0.270084
   3 C :   -0.281341
   4 C :   -0.064679
   5 C :   -0.077057
   6 C :   -0.422174
   7 C :   -0.444664
   8 C :    0.139390
   9 O :   -0.631932
  10 C :   -0.277524
  11 H :    0.138787
  12 H :    0.135230
  13 H :    0.135921
  14 H :    0.113309
  15 H :    0.127629
  16 H :    0.126907
  17 H :    0.128788
  18 H :    0.134595
  19 H :    0.127122
  20 H :    0.111884
  21 H :    0.127760
  22 H :    0.150831
  23 H :    0.124229
  24 H :    0.138701
  25 H :    0.138129
  26 H :    0.136169
  27 H :    0.099576
  28 H :    0.389784
  29 H :    0.134093
  30 H :    0.113795
Sum of atomic charges:    0.0000000

--------------------------------
MULLIKEN REDUCED ORBITAL CHARGES
--------------------------------
  0 C s       :     3.305986  s :     3.305986
      pz      :     1.049313  p :     3.101730
      px      :     1.018738
      py      :     1.033679
      dz2     :     0.002639  d :     0.034814
      dxz     :     0.008265
      dyz     :     0.011166
      dx2y2   :     0.003241
      dxy     :     0.009504

  1 C s       :     3.200384  s :     3.200384
      pz      :     0.943163  p :     2.816172
      px      :     0.934312
      py      :     0.938696
      dz2     :     0.005318  d :     0.044089
      dxz     :     0.009565
      dyz     :     0.012747
      dx2y2   :     0.005683
      dxy     :     0.010776

  2 C s       :     3.255457  s :     3.255457
      pz      :     0.993533  p :     2.974979
      px      :     0.972811
      py      :     1.008635
      dz2     :     0.005407  d :     0.039648
      dxz     :     0.009610
      dyz     :     0.009569
      dx2y2   :     0.005968
      dxy     :     0.009094

  3 C s       :     3.258316  s :     3.258316
      pz      :     1.001133  p :     2.983530
      px      :     0.991630
      py      :     0.990767
      dz2     :     0.005101  d :     0.039495
      dxz     :     0.009613
      dyz     :     0.009923
      dx2y2   :     0.004683
      dxy     :     0.010175

  4 C s       :     3.221885  s :     3.221885
      pz      :     0.985223  p :     2.801761
      px      :     0.930163
      py      :     0.886375
      dz2     :     0.010331  d :     0.041033
      dxz     :     0.008025
      dyz     :     0.004996
      dx2y2   :     0.006781
      dxy     :     0.010901

  5 C s       :     3.216648  s :     3.216648
      pz      :     0.979412  p :     2.816518
      px      :     0.921682
      py      :     0.915423
      dz2     :     0.012609  d :     0.043891
      dxz     :     0.007964
      dyz     :     0.004080
      dx2y2   :     0.008321
      dxy     :     0.010917

  6 C s       :     3.300397  s :     3.300397
      pz      :     1.065596  p :     3.087280
      px      :     1.028775
      py      :     0.992909
      dz2     :     0.009132  d :     0.034497
      dxz     :     0.007077
      dyz     :     0.003362
      dx2y2   :     0.006304
      dxy     :     0.008622

  7 C s       :     3.307225  s :     3.307225
      pz      :     1.060081  p :     3.103084
      px      :     1.016957
      py      :     1.026045
      dz2     :     0.008529  d :     0.034355
      dxz     :     0.007192
      dyz     :     0.003850
      dx2y2   :     0.008354
      dxy     :     0.006431

  8 C s       :     3.140220  s :     3.140220
      pz      :     0.827979  p :     2.649261
      px      :     0.923519
      py      :     0.897764
      dz2     :     0.017342  d :     0.071128
      dxz     :     0.008888
      dyz     :     0.018508
      dx2y2   :     0.011408
      dxy     :     0.014983

  9 O s       :     3.893722  s :     3.893722
      pz      :     1.623714  p :     4.710997
      px      :     1.787394
      py      :     1.299889
      dz2     :     0.006556  d :     0.027213
      dxz     :     0.004876
      dyz     :     0.005259
      dx2y2   :     0.003271
      dxy     :     0.007251

 10 C s       :     3.265190  s :     3.265190
      pz      :     0.994904  p :     2.973611
      px      :     0.965971
      py      :     1.012736
      dz2     :     0.009190  d :     0.038724
      dxz     :     0.004489
      dyz     :     0.009375
      dx2y2   :     0.005726
      dxy     :     0.009944

 11 H s       :     0.861213  s :     0.861213

 12 H s       :     0.864770  s :     0.864770

 13 H s       :     0.864079  s :     0.864079

 14 H s       :     0.886691  s :     0.886691

 15 H s       :     0.872371  s :     0.872371

 16 H s       :     0.873093  s :     0.873093

 17 H s       :     0.871212  s :     0.871212

 18 H s       :     0.865405  s :     0.865405

 19 H s       :     0.872878  s :     0.872878

 20 H s       :     0.888116  s :     0.888116

 21 H s       :     0.872240  s :     0.872240

 22 H s       :     0.849169  s :     0.849169

 23 H s       :     0.875771  s :     0.875771

 24 H s       :     0.861299  s :     0.861299

 25 H s       :     0.861871  s :     0.861871

 26 H s       :     0.863831  s :     0.863831

 27 H s       :     0.900424  s :     0.900424

 28 H s       :     0.610216  s :     0.610216

 29 H s       :     0.865907  s :     0.865907

 30 H s       :     0.886205  s :     0.886205



                     *******************************
                     * LOEWDIN POPULATION ANALYSIS *
                     *******************************

----------------------
LOEWDIN ATOMIC CHARGES
----------------------
   0 C :   -0.351997
   1 C :   -0.128177
   2 C :   -0.229949
   3 C :   -0.228594
   4 C :   -0.117853
   5 C :   -0.121326
   6 C :   -0.352022
   7 C :   -0.355597
   8 C :   -0.018041
   9 O :   -0.390699
  10 C :   -0.236154
  11 H :    0.119378
  12 H :    0.118808
  13 H :    0.120025
  14 H :    0.111707
  15 H :    0.118817
  16 H :    0.113239
  17 H :    0.115513
  18 H :    0.122017
  19 H :    0.123877
  20 H :    0.109558
  21 H :    0.115482
  22 H :    0.127860
  23 H :    0.113752
  24 H :    0.121058
  25 H :    0.117637
  26 H :    0.120534
  27 H :    0.094472
  28 H :    0.311639
  29 H :    0.120923
  30 H :    0.114113

-------------------------------
LOEWDIN REDUCED ORBITAL CHARGES
-------------------------------
  0 C s       :     2.986877  s :     2.986877
      pz      :     1.113578  p :     3.297536
      px      :     1.082872
      py      :     1.101085
      dz2     :     0.005046  d :     0.067585
      dxz     :     0.015964
      dyz     :     0.020907
      dx2y2   :     0.006413
      dxy     :     0.019254

  1 C s       :     2.903711  s :     2.903711
      pz      :     1.050308  p :     3.126413
      px      :     1.031231
      py      :     1.044874
      dz2     :     0.011347  d :     0.098052
      dxz     :     0.021802
      dyz     :     0.027788
      dx2y2   :     0.011342
      dxy     :     0.025773

  2 C s       :     2.942631  s :     2.942631
      pz      :     1.070653  p :     3.204495
      px      :     1.050871
      py      :     1.082971
      dz2     :     0.010776  d :     0.082824
      dxz     :     0.021663
      dyz     :     0.018675
      dx2y2   :     0.012243
      dxy     :     0.019468

  3 C s       :     2.941626  s :     2.941626
      pz      :     1.084957  p :     3.204962
      px      :     1.060126
      py      :     1.059879
      dz2     :     0.009918  d :     0.082006
      dxz     :     0.020732
      dyz     :     0.019761
      dx2y2   :     0.010076
      dxy     :     0.021519

  4 C s       :     2.922236  s :     2.922236
      pz      :     1.071419  p :     3.105800
      px      :     1.017714
      py      :     1.016666
      dz2     :     0.020867  d :     0.089817
      dxz     :     0.017861
      dyz     :     0.010149
      dx2y2   :     0.015023
      dxy     :     0.025917

  5 C s       :     2.909773  s :     2.909773
      pz      :     1.062327  p :     3.114651
      px      :     1.020925
      py      :     1.031399
      dz2     :     0.025721  d :     0.096901
      dxz     :     0.017784
      dyz     :     0.008512
      dx2y2   :     0.018457
      dxy     :     0.026427

  6 C s       :     2.986963  s :     2.986963
      pz      :     1.126911  p :     3.298320
      px      :     1.102500
      py      :     1.068910
      dz2     :     0.017272  d :     0.066739
      dxz     :     0.012802
      dyz     :     0.006586
      dx2y2   :     0.012672
      dxy     :     0.017407

  7 C s       :     2.987963  s :     2.987963
      pz      :     1.121733  p :     3.301342
      px      :     1.087555
      py      :     1.092055
      dz2     :     0.016246  d :     0.066292
      dxz     :     0.013273
      dyz     :     0.007062
      dx2y2   :     0.015871
      dxy     :     0.013839

  8 C s       :     2.895670  s :     2.895670
      pz      :     0.962985  p :     2.964073
      px      :     1.023262
      py      :     0.977826
      dz2     :     0.039448  d :     0.158298
      dxz     :     0.018461
      dyz     :     0.040160
      dx2y2   :     0.025349
      dxy     :     0.034879

  9 O s       :     3.564169  s :     3.564169
      pz      :     1.668106  p :     4.775736
      px      :     1.783433
      py      :     1.324197
      dz2     :     0.012132  d :     0.050794
      dxz     :     0.007643
      dyz     :     0.011294
      dx2y2   :     0.007015
      dxy     :     0.012711

 10 C s       :     2.953447  s :     2.953447
      pz      :     1.073827  p :     3.201189
      px      :     1.047974
      py      :     1.079389
      dz2     :     0.018754  d :     0.081518
      dxz     :     0.010095
      dyz     :     0.019526
      dx2y2   :     0.012487
      dxy     :     0.020656

 11 H s       :     0.880622  s :     0.880622

 12 H s       :     0.881192  s :     0.881192

 13 H s       :     0.879975  s :     0.879975

 14 H s       :     0.888293  s :     0.888293

 15 H s       :     0.881183  s :     0.881183

 16 H s       :     0.886761  s :     0.886761

 17 H s       :     0.884487  s :     0.884487

 18 H s       :     0.877983  s :     0.877983

 19 H s       :     0.876123  s :     0.876123

 20 H s       :     0.890442  s :     0.890442

 21 H s       :     0.884518  s :     0.884518

 22 H s       :     0.872140  s :     0.872140

 23 H s       :     0.886248  s :     0.886248

 24 H s       :     0.878942  s :     0.878942

 25 H s       :     0.882363  s :     0.882363

 26 H s       :     0.879466  s :     0.879466

 27 H s       :     0.905528  s :     0.905528

 28 H s       :     0.688361  s :     0.688361

 29 H s       :     0.879077  s :     0.879077

 30 H s       :     0.885887  s :     0.885887



                      *****************************
                      * MAYER POPULATION ANALYSIS *
                      *****************************

  NA   - Mulliken gross atomic population
  ZA   - Total nuclear charge
  QA   - Mulliken gross atomic charge
  VA   - Mayer's total valence
  BVA  - Mayer's bonded valence
  FA   - Mayer's free valence

  ATOM       NA         ZA         QA         VA         BVA        FA
  0 C      6.4425     6.0000    -0.4425     3.8582     3.8582     0.0000
  1 C      6.0606     6.0000    -0.0606     3.8794     3.8794     0.0000
  2 C      6.2701     6.0000    -0.2701     3.8677     3.8677     0.0000
  3 C      6.2813     6.0000    -0.2813     3.8701     3.8701    -0.0000
  4 C      6.0647     6.0000    -0.0647     3.8533     3.8533     0.0000
  5 C      6.0771     6.0000    -0.0771     3.9238     3.9238     0.0000
  6 C      6.4222     6.0000    -0.4222     3.8501     3.8501     0.0000
  7 C      6.4447     6.0000    -0.4447     3.8437     3.8437     0.0000
  8 C      5.8606     6.0000     0.1394     3.8237     3.8237     0.0000
  9 O      8.6319     8.0000    -0.6319     1.7814     1.7814    -0.0000
 10 C      6.2775     6.0000    -0.2775     3.8509     3.8509     0.0000
 11 H      0.8612     1.0000     0.1388     0.9403     0.9403     0.0000
 12 H      0.8648     1.0000     0.1352     0.9384     0.9384     0.0000
 13 H      0.8641     1.0000     0.1359     0.9379     0.9379     0.0000
 14 H      0.8867     1.0000     0.1133     0.9329     0.9329     0.0000
 15 H      0.8724     1.0000     0.1276     0.9388     0.9388     0.0000
 16 H      0.8731     1.0000     0.1269     0.9350     0.9350    -0.0000
 17 H      0.8712     1.0000     0.1288     0.9341     0.9341     0.0000
 18 H      0.8654     1.0000     0.1346     0.9393     0.9393     0.0000
 19 H      0.8729     1.0000     0.1271     0.9410     0.9410     0.0000
 20 H      0.8881     1.0000     0.1119     0.9352     0.9352     0.0000
 21 H      0.8722     1.0000     0.1278     0.9443     0.9443    -0.0000
 22 H      0.8492     1.0000     0.1508     0.9428     0.9428     0.0000
 23 H      0.8758     1.0000     0.1242     0.9380     0.9380    -0.0000
 24 H      0.8613     1.0000     0.1387     0.9412     0.9412     0.0000
 25 H      0.8619     1.0000     0.1381     0.9389     0.9389     0.0000
 26 H      0.8638     1.0000     0.1362     0.9393     0.9393     0.0000
 27 H      0.9004     1.0000     0.0996     0.9341     0.9341     0.0000
 28 H      0.6102     1.0000     0.3898     0.8148     0.8148     0.0000
 29 H      0.8659     1.0000     0.1341     0.9415     0.9415     0.0000
 30 H      0.8862     1.0000     0.1138     0.9446     0.9446     0.0000

  Mayer bond orders larger than 0.100000
B(  0-C ,  1-C ) :   1.0076 B(  0-C , 11-H ) :   0.9473 B(  0-C , 12-H ) :   0.9490 
B(  0-C , 13-H ) :   0.9500 B(  1-C ,  2-C ) :   0.9892 B(  1-C , 10-C ) :   0.9795 
B(  1-C , 14-H ) :   0.9372 B(  2-C ,  3-C ) :   1.0143 B(  2-C , 15-H ) :   0.9396 
B(  2-C , 16-H ) :   0.9394 B(  3-C ,  4-C ) :   0.9789 B(  3-C , 17-H ) :   0.9383 
B(  3-C , 18-H ) :   0.9324 B(  4-C ,  5-C ) :   0.9938 B(  4-C ,  8-C ) :   0.9760 
B(  4-C , 19-H ) :   0.9178 B(  5-C ,  6-C ) :   1.0102 B(  5-C ,  7-C ) :   1.0019 
B(  5-C , 20-H ) :   0.9296 B(  6-C , 21-H ) :   0.9464 B(  6-C , 22-H ) :   0.9456 
B(  6-C , 23-H ) :   0.9444 B(  7-C , 24-H ) :   0.9477 B(  7-C , 25-H ) :   0.9435 
B(  7-C , 26-H ) :   0.9483 B(  8-C ,  9-O ) :   0.9046 B(  8-C , 10-C ) :   0.9874 
B(  8-C , 27-H ) :   0.9217 B(  9-O , 28-H ) :   0.7904 B( 10-C , 29-H ) :   0.9321 
B( 10-C , 30-H ) :   0.9380 

-------
TIMINGS
-------

Total SCF time: 0 days 0 hours 1 min 7 sec 

Total time                  ....      67.852 sec
Sum of individual times     ....      67.608 sec  ( 99.6%)

SCF preparation             ....       0.283 sec  (  0.4%)
Fock matrix formation       ....      66.556 sec  ( 98.1%)
  Startup                   ....       0.062 sec  (  0.1% of F)
  Split-RI-J                ....       5.824 sec  (  8.8% of F)
  Chain of spheres X        ....      50.485 sec  ( 75.9% of F)
  XC integration            ....       9.742 sec  ( 14.6% of F)
    XC Preparation          ....       0.000 sec  (  0.0% of XC)
    Basis function eval.    ....       3.638 sec  ( 37.3% of XC)
    Density eval.           ....       1.908 sec  ( 19.6% of XC)
    XC-Functional eval.     ....       0.502 sec  (  5.2% of XC)
    XC-Potential eval.      ....       2.609 sec  ( 26.8% of XC)
Diagonalization             ....       0.000 sec  (  0.0%)
Density matrix formation    ....       0.148 sec  (  0.2%)
Total Energy calculation    ....       0.040 sec  (  0.1%)
Population analysis         ....       0.142 sec  (  0.2%)
Orbital Transformation      ....       0.049 sec  (  0.1%)
Orbital Orthonormalization  ....       0.000 sec  (  0.0%)
DIIS solution               ....       0.283 sec  (  0.4%)
SOSCF solution              ....       0.107 sec  (  0.2%)
Finished LeanSCF after  68.0 sec

Maximum memory used throughout the entire LEANSCF-calculation: 30.5 MB

-------------------------   --------------------
FINAL SINGLE POINT ENERGY      -467.995489863215
-------------------------   --------------------


------------------------------------------------------------------------------
                              ORCA PROPERTY CALCULATIONS
------------------------------------------------------------------------------

GBWName                                 ... /home/nmrbox/aojoawo/Documents/ERDOS/inputs/CHEMBL256087.gbw
Number of atoms                         ...     31
Number of basis functions               ...    194
Max core memory                         ...   1024 MB

Electric properties:
Dipole moment                           ... YES
Quadrupole moment                       ...  NO
Static polarizability (Dipole/Dipole)   ...  NO
Static polarizability (Dipole/Quad.)    ...  NO
Static polarizability (Quad./Quad.)     ...  NO
Static polarizability (Velocity)        ...  NO

Atomic electric properties:
Dipole moment                           ...  NO
Quadrupole moment                       ...  NO
Static polarizability                   ...  NO

Choice of electric origin               ... Center of mass
Position of electric origin             ...     0.042821     0.239198     0.180808

General magnetic properties:
Magnetizability                         ...  NO

EPR properties:
g-Tensor (aka g-matrix)                 ...  NO
Zero-Field splitting spin-orbit         ...  NO
Zero-field splitting spin-spin          ...  NO
Hyperfine couplings                     ...  NO (   0 nuclei)
Quadrupole couplings                    ...  NO (   0 nuclei)
Contact density                         ...  NO (   0 nuclei)

NMR properties:
Chemical shifts                         ...  NO (   0 nuclei)
Spin-rotation constants                 ...  NO (   0 nuclei)
Spin-spin couplings                     ...  NO (   0 nuclei,    0 pairs)

Choice of magnetic origin               ... GIAO
Position of magnetic origin             ...     0.000000     0.000000     0.000000

Properties with geometric perturbations:
SCF Hessian                             ...  NO
IR spectrum                             ...  NO
VCD spectrum                            ...  NO
X-ray spectroscopy properties:
SCF XES/XAS/RIXS spectra                ...  NO


-------------
DIPOLE MOMENT
-------------

Method             : SCF
Type of density    : Electron Density
Multiplicity       :   1
Irrep              :   0
Energy             :  -467.9954898632148570 Eh
Relativity type    : 
Basis              : AO
                                X                 Y                 Z
Electronic contribution:      1.166529959       3.559066332       2.514173862
Nuclear contribution   :     -0.794577210      -3.354403153      -2.902202034
                        -----------------------------------------
Total Dipole Moment    :      0.371952749       0.204663179      -0.388028172
                        -----------------------------------------
Magnitude (a.u.)       :      0.575153655
Magnitude (Debye)      :      1.461924409



--------------------
Rotational spectrum 
--------------------
 
Rotational constants in cm-1:             0.057938             0.024135             0.018841 
Rotational constants in MHz :          1736.935772           723.546100           564.837355 

Dipole components along the rotational axes: 
x,y,z [a.u.] :     0.316677     0.057837    -0.476626 
x,y,z [Debye]:     0.804929     0.147011    -1.211487 

 

Dipole moment calculation done in   0.0 sec 

Maximum memory used throughout the entire PROP-calculation: 13.4 MB

--------------------------------
SUGGESTED CITATIONS FOR THIS RUN
--------------------------------

Below you find a list of papers that are relevant to this ORCA run
We neither can nor want to force you to cite these papers, but we appreciate if you do
You receive ORCA, which is the product of decades of hard work by many enthusiastic individuals, for free
The only thing we kindly ask in return is that you cite our papers,
We deeply appreciate it, if you show your appreciation for ORCA by not just citing the generic ORCA reference.

Please note that relegating all ORCA citations to the supporting information does *not* help us.
SI sections are not indexed - citations you put there will not count into any citation statistics
But we need these citations in order to attract the funding resources that allow us to do what we are doing

Therefore, if you are a happy ORCA user, please consider citing a few of the papers listed below in the main body of your paper

In addition to the list printed below, the program has created the file /home/nmrbox/aojoawo/Documents/ERDOS/inputs/CHEMBL256087.bibtex that contains the list in bibtex format
You can import this file easily into all common literature databanks and citation aid programs


List of essential papers. We consider these as the minimum necessary citations

  1. Neese,F.
     Software update: the ORCA program system, version 5.0
     WIRES Comput. Molec. Sci., 2022 12(1)e1606
     doi.org/10.1002/wcms.1606

List of papers to cite with high priority. The work reported in these papers was absolutely
necessary for this run to complete.
Our perspective: the developers of density functionals and basis sets usually get cited in chemistry papers
Good! But without the algorithms to do something with them, the functionals or basis sets would not do anything.
Hence, in our opinion, the algorithm design and method developments papers are equally worthy of getting cited

  1. Neese,F.
     An improvement of the resolution of the identity approximation for the formation of the Coulomb matrix
     J. Comp. Chem., 2003 24(14)1740-1747
     doi.org/10.1002/jcc.10318
  2. Neese,F.; Wennmohs,F.; Hansen,A.; Becker,U.
     Efficient, approximate and parallel Hartree-Fock and hybrid DFT calculations. A 'chain-of-spheres' algorithm for the Hartree-Fock exchange
     Chem. Phys., 2009 356(1-3)98-109
     doi.org/10.1016/j.chemphys.2008.10.036
  3. Helmich-Paris,B.; de Souza,B.; Neese,F.; Izsák,R.
     An improved chain of spheres for exchange algorithm
     J. Chem. Phys., 2021 155 104109
     doi.org/doi: 10.1063/5.0058766.
  4. Neese,F.
     The SHARK Integral Generation and Digestion System
     J. Comp. Chem., 2022  1-16
     doi.org/10.1002/jcc.26942

List of suggested additional citations. These are papers that are important in the 'surrounding' of 
of this run, or papers that preceded the highly important papers. If you like your results we are grateful for a citation.

  1. Izsak,R.; Neese,F.
     An overlap fitted chain of spheres exchange method
     J. Chem. Phys., 2011 135 144105
     doi.org/10.1063/1.3646921
  2. Izsak,R.; Hansen,A.; Neese,F.
     The resolution of identity and chain of spheres approximations for the LPNO-CCSD singles Fock term
     Molec. Phys., 2012 110 2413-2417
     doi.org/10.1080/00268976.2012.687466
  3. Neese,F.
     The ORCA program system
     WIRES Comput. Molec. Sci., 2012 2(1)73-78
     doi.org/10.1002/wcms.81
  4. Izsak,R.; Neese,F.; Klopper,W.
     Robust fitting techniques in the chain of spheres approximation to the Fock exchange: The role of the complementary space
     J. Chem. Phys., 2013 139 
     doi.org/10.1063/1.4819264
  5. Neese,F.
     Software update: the ORCA program system, version 4.0
     WIRES Comput. Molec. Sci., 2018 8(1)1-6
     doi.org/10.1002/wcms.1327
  6. Neese,F.; Wennmohs,F.; Becker,U.; Riplinger,C.
     The ORCA quantum chemistry program package
     J. Chem. Phys., 2020 152 Art. No. L224108
     doi.org/10.1063/5.0004608

List of optional additional citations

  1. Neese,F.
     Approximate second-order SCF convergence for spin unrestricted wavefunctions
     Chem. Phys. Lett., 2000 325(1-3)93-98
     doi.org/10.1016/s0009-2614(00)00662-x

Timings for individual modules:

Sum of individual times          ...       72.911 sec (=   1.215 min)
Startup calculation              ...        3.491 sec (=   0.058 min)   4.8 %
SCF iterations                   ...       69.278 sec (=   1.155 min)  95.0 %
Property calculations            ...        0.142 sec (=   0.002 min)   0.2 %
                             ****ORCA TERMINATED NORMALLY****
TOTAL RUN TIME: 0 days 0 hours 1 minutes 13 seconds 885 msec
