
                                 *****************
                                 * O   R   C   A *
                                 *****************

                                            #,                                       
                                            ###                                      
                                            ####                                     
                                            #####                                    
                                            ######                                   
                                           ########,                                 
                                     ,,################,,,,,                         
                               ,,#################################,,                 
                          ,,##########################################,,             
                       ,#########################################, ''#####,          
                    ,#############################################,,   '####,        
                  ,##################################################,,,,####,       
                ,###########''''           ''''###############################       
              ,#####''   ,,,,##########,,,,          '''####'''          '####       
            ,##' ,,,,###########################,,,                        '##       
           ' ,,###''''                  '''############,,,                           
         ,,##''                                '''############,,,,        ,,,,,,###''
      ,#''                                            '''#######################'''  
     '                                                          ''''####''''         
             ,#######,   #######,   ,#######,      ##                                
            ,#'     '#,  ##    ##  ,#'     '#,    #''#        ,####,   ,####,        
            ##       ##  ##   ,#'  ##            #'  '#       #'       #'  '#        
            ##       ##  #######   ##           ,######,      #####,   #    #        
            '#,     ,#'  ##    ##  '#,     ,#' ,#      #,     #,   #   #,  ,#        
             '#######'   ##     ##  '#######'  #'      '#     '####' # '####'        



                #########################################################
                #                        -***-                          #
                #          Department of theory and spectroscopy        #
                #                                                       #
                #                      Frank Neese                      #
                #                                                       #
                #     Directorship, Architecture, Infrastructure        #
                #                    SHARK, DRIVERS                     #
                #        Core code/Algorithms in most modules           #
                #                                                       #
                #        Max Planck Institute fuer Kohlenforschung      #
                #                Kaiser Wilhelm Platz 1                 #
                #                 D-45470 Muelheim/Ruhr                 #
                #                      Germany                          #
                #                                                       #
                #                  All rights reserved                  #
                #                        -***-                          #
                #########################################################


                         Program Version 6.0.0  -   RELEASE  -


 With contributions from (in alphabetic order):
   Daniel Aravena         : Magnetic Suceptibility
   Michael Atanasov       : Ab Initio Ligand Field Theory (pilot matlab implementation)
   Alexander A. Auer      : GIAO ZORA, VPT2 properties, NMR spectrum
   Ute Becker             : All parallelization in ORCA, NUMFREQ, NUMCALC
   Giovanni Bistoni       : ED, misc. LED, open-shell LED, HFLD
   Martin Brehm           : Molecular dynamics
   Dmytro Bykov           : pre 5.0 version of the SCF Hessian
   Marcos Casanova-Páez   : Triplet and SCS-CIS(D). UHF-(DLPNO)-IP/EA/STEOM-CCSD. UHF-CVS-IP/STEOM-CCSD
   Vijay G. Chilkuri      : MRCI spin determinant printing, contributions to CSF-ICE
   Pauline Colinet        : FMM embedding
   Dipayan Datta          : RHF DLPNO-CCSD density
   Achintya Kumar Dutta   : EOM-CC, STEOM-CC
   Nicolas Foglia         : Exact transition moments, OPA infrastructure, MCD improvements
   Dmitry Ganyushin       : Spin-Orbit,Spin-Spin,Magnetic field MRCI
   Miquel Garcia          : C-PCM and meta-GGA Hessian, CCSD/C-PCM, Gaussian charge scheme
   Tiago L. C. Gouveia    : GS-ROHF, GS-ROCIS
   Yang Guo               : DLPNO-NEVPT2, F12-NEVPT2, CIM, IAO-localization
   Andreas Hansen         : Spin unrestricted coupled pair/coupled cluster methods
   Ingolf Harden          : AUTO-CI MPn and infrastructure 
   Benjamin Helmich-Paris : MC-RPA, TRAH-(SCF,CASSCF), AVAS, COSX integrals, SCF dyn. polar.
   Lee Huntington         : MR-EOM, pCC
   Robert Izsak           : Overlap fitted RIJCOSX, COSX-SCS-MP3, EOM
   Riya Kayal             : Wick's Theorem for AUTO-CI, AUTO-CI UHF-CCSDT
   Emily Kempfer          : AUTO-CI, RHF CISDT and CCSDT
   Christian Kollmar      : KDIIS, OOCD, Brueckner-CCSD(T), CCSD density, CASPT2, CASPT2-K, improved NEVPT2
   Axel Koslowski         : Symmetry handling
   Simone Kossmann        : Meta GGA functionals, TD-DFT gradient, OOMP2, (MP2 Hessian; deprecated post 5.0)
   Lucas Lang             : DCDCAS
   Marvin Lechner         : AUTO-CI (C++ implementation), FIC-MRCC
   Spencer Leger          : CASSCF response
   Dagmar Lenk            : GEPOL surface, SMD, ORCA-2-JSON
   Dimitrios Liakos       : Extrapolation schemes; Compound Job, initial MDCI parallelization
   Dimitrios Manganas     : Further ROCIS development; embedding schemes. LFT, Crystal Embedding
   Dimitrios Pantazis     : SARC Basis sets
   Anastasios Papadopoulos: AUTO-CI, single reference methods and gradients
   Taras Petrenko         : pre 6.0 DFT Hessian and TD-DFT gradient, (ASA, deprecated), ECA, 1-Electron XAS/XES, NRVS
   Peter Pinski           : DLPNO-MP2, DLPNO-MP2 Gradient
   Christoph Reimann      : Effective Core Potentials
   Marius Retegan         : Local ZFS, SOC
   Christoph Riplinger    : Optimizer, TS searches, QM/MM, DLPNO-CCSD(T), (RO)-DLPNO pert. Triples
   Michael Roemelt        : Original ROCIS implementation
   Masaaki Saitow         : Open-shell DLPNO-CCSD energy and density
   Barbara Sandhoefer     : DKH picture change effects
   Kantharuban Sivalingam : CASSCF convergence/infrastructure, NEVPT2 and variants, FIC-MRCI
   Bernardo de Souza      : ESD, SOC TD-DFT
   Georgi Stoychev        : AutoAux, RI-MP2 NMR, DLPNO-MP2 response, X2C
   Van Anh Tran           : RI-MP2 g-tensors
   Willem Van den Heuvel  : Paramagnetic NMR
   Zikuan Wang            : NOTCH, Electric field optimization 
   Frank Wennmohs         : Technical directorship and infrastructure
   Hang Xu                : AUTO-CI-Response properties 


 We gratefully acknowledge several colleagues who have allowed us to
 interface, adapt or use parts of their codes:
   Stefan Grimme, W. Hujo, H. Kruse, P. Pracht,  : VdW corrections, initial TS optimization,
                  C. Bannwarth, S. Ehlert,         DFT functionals, gCP, sTDA/sTD-DF
                  L. Wittmann, M. Mueller
   Ed Valeev, F. Pavosevic, A. Kumar             : LibInt (2-el integral package), F12 methods
   Garnet Chan, S. Sharma, J. Yang, R. Olivares  : DMRG
   Ulf Ekstrom                                   : XCFun DFT Library
   Mihaly Kallay                                 : mrcc  (arbitrary order and MRCC methods)
   Frank Weinhold                                : gennbo (NPA and NBO analysis)
   Simon Mueller                                 : openCOSMO-RS
   Christopher J. Cramer and Donald G. Truhlar   : smd solvation model
   Lars Goerigk                                  : TD-DFT with DH, B97 family of functionals
   V. Asgeirsson, H. Jonsson                     : NEB implementation
   FAccTs GmbH                                   : IRC, NEB, NEB-TS, DLPNO-Multilevel, CI-OPT
                                                   MM, QMMM, 2- and 3-layer-ONIOM, Crystal-QMMM,
                                                   LR-CPCM, SF, NACMEs, symmetry and pop. for TD-DFT,
                                                   nearIR, NL-DFT gradient (VV10), updates on ESD,
                                                   ML-optimized integration grids, MBIS, APM,
                                                   GOAT, DOCKER, SOLVATOR, interface openCOSMO-RS
   S Lehtola, MJT Oliveira, MAL Marques          : LibXC Library
   Liviu Ungur et al                             : ANISO software


 Your calculation uses the libint2 library for the computation of 2-el integrals
 For citations please refer to: http://libint.valeyev.net

 Your ORCA version has been built with support for libXC version: 6.2.2
 For citations please refer to: https://libxc.gitlab.io

 This ORCA versions uses:
   CBLAS   interface :  Fast vector & matrix operations
   LAPACKE interface :  Fast linear algebra routines
   SCALAPACK package :  Parallel linear algebra routines
   Shared memory     :  Shared parallel matrices
   BLAS/LAPACK       :  OpenBLAS 0.3.27  USE64BITINT DYNAMIC_ARCH NO_AFFINITY SkylakeX SINGLE_THREADED
        Core in use  :  SkylakeX
   Copyright (c) 2011-2014, The OpenBLAS Project


Warning: RI is on but no J-basis has been assigned. Assigning Def2/J (nothing to worry about!)
================================================================================

----- Orbital basis set information -----
Your calculation utilizes the basis: 6-31G*
   H-He, Li-Ne : W. J. Hehre, R. Ditchfield and J.A. Pople, J. Chem. Phys. 56, 2257 (1972).
                 Note: He and Ne are unpublished basis sets taken from the Gaussian program.
                 Note: Li and B from J. D. Dill and J. A. Pople, J. Chem. Phys. 62, 2921 (1975).
   Na - Ar     : M. M. Francl, W. J. Pietro, W. J. Hehre, J. S. Binkley, M. S. Gordon, 
                 D. J. DeFrees and J. A. Pople, J. Chem. Phys. 77, 3654 (1982).
   K - Zn      : V. A. Rassolov, J. A. Pople, M. A. Ratner, and T. L. Windus, J. Chem. Phys. 109, 1223 (1998).

----- AuxJ basis set information -----
Your calculation utilizes the auxiliary basis: def2/J
   F. Weigend, Phys. Chem. Chem. Phys. 8, 1057 (2006).

================================================================================
                                        WARNINGS
                       Please study these warnings very carefully!
================================================================================


================================================================================
                                       INPUT FILE
================================================================================
NAME = /home/nmrbox/aojoawo/Documents/ERDOS/inputs/CHEMBL4243837.inp
|  1> ! B3LYP 6-31G* SP
|  2> 
|  3> * xyz 0 1
|  4> O 1.7129 1.3261 2.0321
|  5> C 1.9829 0.7884 0.9225
|  6> N 1.3910 -0.4764 0.5830
|  7> C 0.2409 -1.0146 1.3210
|  8> C -0.9969 -0.1823 1.0645
|  9> C -1.3081 0.2713 -0.2294
| 10> C -2.4711 1.0102 -0.4613
| 11> C -3.3531 1.2994 0.5975
| 12> O -4.5351 2.0369 0.4188
| 13> C -5.0044 2.5531 -0.8258
| 14> F -5.2161 1.5187 -1.7206
| 15> F -4.0878 3.4497 -1.3483
| 16> F -6.2002 3.2117 -0.6156
| 17> C -3.0497 0.8335 1.8832
| 18> F -3.8935 1.0915 2.9141
| 19> C -1.8862 0.0939 2.1150
| 20> C -0.0286 -2.4514 0.9313
| 21> N -0.1304 -2.7821 -0.3881
| 22> C -0.3984 -4.0504 -0.7976
| 23> C -0.5886 -5.0628 0.1436
| 24> C -0.5060 -4.7552 1.5019
| 25> C -0.2309 -3.4464 1.9059
| 26> F -0.1680 -3.1571 3.2304
| 27> C 2.9173 1.4646 -0.0064
| 28> C 3.8682 2.3743 0.4818
| 29> C 4.7392 3.0182 -0.3976
| 30> C 4.6477 2.7581 -1.7671
| 31> O 5.4281 3.3357 -2.5705
| 32> N 3.7142 1.8834 -2.2341
| 33> C 2.8567 1.2411 -1.3936
| 34> H 1.8088 -1.0319 -0.1978
| 35> H 0.4943 -0.9735 2.4035
| 36> H -0.6503 0.0518 -1.0612
| 37> H -2.6738 1.3461 -1.4680
| 38> H -1.6802 -0.2665 3.1155
| 39> H -0.4658 -4.2718 -1.8545
| 40> H -0.8015 -6.0746 -0.1765
| 41> H -0.6583 -5.5305 2.2414
| 42> H 3.9450 2.5792 1.5433
| 43> H 5.4766 3.7142 -0.0166
| 44> H 3.6457 1.7007 -3.2626
| 45> H 2.1133 0.5757 -1.8141
| 46> *
| 47> 
| 48>                          ****END OF INPUT****
================================================================================

                       ****************************
                       * Single Point Calculation *
                       ****************************

---------------------------------
CARTESIAN COORDINATES (ANGSTROEM)
---------------------------------
  O      1.712900    1.326100    2.032100
  C      1.982900    0.788400    0.922500
  N      1.391000   -0.476400    0.583000
  C      0.240900   -1.014600    1.321000
  C     -0.996900   -0.182300    1.064500
  C     -1.308100    0.271300   -0.229400
  C     -2.471100    1.010200   -0.461300
  C     -3.353100    1.299400    0.597500
  O     -4.535100    2.036900    0.418800
  C     -5.004400    2.553100   -0.825800
  F     -5.216100    1.518700   -1.720600
  F     -4.087800    3.449700   -1.348300
  F     -6.200200    3.211700   -0.615600
  C     -3.049700    0.833500    1.883200
  F     -3.893500    1.091500    2.914100
  C     -1.886200    0.093900    2.115000
  C     -0.028600   -2.451400    0.931300
  N     -0.130400   -2.782100   -0.388100
  C     -0.398400   -4.050400   -0.797600
  C     -0.588600   -5.062800    0.143600
  C     -0.506000   -4.755200    1.501900
  C     -0.230900   -3.446400    1.905900
  F     -0.168000   -3.157100    3.230400
  C      2.917300    1.464600   -0.006400
  C      3.868200    2.374300    0.481800
  C      4.739200    3.018200   -0.397600
  C      4.647700    2.758100   -1.767100
  O      5.428100    3.335700   -2.570500
  N      3.714200    1.883400   -2.234100
  C      2.856700    1.241100   -1.393600
  H      1.808800   -1.031900   -0.197800
  H      0.494300   -0.973500    2.403500
  H     -0.650300    0.051800   -1.061200
  H     -2.673800    1.346100   -1.468000
  H     -1.680200   -0.266500    3.115500
  H     -0.465800   -4.271800   -1.854500
  H     -0.801500   -6.074600   -0.176500
  H     -0.658300   -5.530500    2.241400
  H      3.945000    2.579200    1.543300
  H      5.476600    3.714200   -0.016600
  H      3.645700    1.700700   -3.262600
  H      2.113300    0.575700   -1.814100

----------------------------
CARTESIAN COORDINATES (A.U.)
----------------------------
  NO LB      ZA    FRAG     MASS         X           Y           Z
   0 O     8.0000    0    15.999    3.236912    2.505966    3.840112
   1 C     6.0000    0    12.011    3.747138    1.489860    1.743272
   2 N     7.0000    0    14.007    2.628609   -0.900266    1.101710
   3 C     6.0000    0    12.011    0.455235   -1.917316    2.496328
   4 C     6.0000    0    12.011   -1.883868   -0.344497    2.011613
   5 C     6.0000    0    12.011   -2.471951    0.512683   -0.433503
   6 C     6.0000    0    12.011   -4.669702    1.909001   -0.871731
   7 C     6.0000    0    12.011   -6.336441    2.455510    1.129111
   8 O     8.0000    0    15.999   -8.570097    3.849183    0.791417
   9 C     6.0000    0    12.011   -9.456945    4.824660   -1.560536
  10 F     9.0000    0    18.998   -9.857000    2.869927   -3.251463
  11 F     9.0000    0    18.998   -7.724822    6.518988   -2.547918
  12 F     9.0000    0    18.998  -11.716680    6.069233   -1.163315
  13 C     6.0000    0    12.011   -5.763098    1.575087    3.558732
  14 F     9.0000    0    18.998   -7.357649    2.062636    5.506851
  15 C     6.0000    0    12.011   -3.564401    0.177445    3.996771
  16 C     6.0000    0    12.011   -0.054046   -4.632475    1.759902
  17 N     7.0000    0    14.007   -0.246420   -5.257407   -0.733403
  18 C     6.0000    0    12.011   -0.752867   -7.654147   -1.507246
  19 C     6.0000    0    12.011   -1.112293   -9.567305    0.271365
  20 C     6.0000    0    12.011   -0.956201   -8.986026    2.838180
  21 C     6.0000    0    12.011   -0.436338   -6.512752    3.601629
  22 F     9.0000    0    18.998   -0.317474   -5.966054    6.104571
  23 C     6.0000    0    12.011    5.512898    2.767693   -0.012094
  24 C     6.0000    0    12.011    7.309839    4.486777    0.910470
  25 C     6.0000    0    12.011    8.955790    5.703571   -0.751355
  26 C     6.0000    0    12.011    8.782880    5.212054   -3.339335
  27 O     8.0000    0    15.999   10.257622    6.303559   -4.857541
  28 N     7.0000    0    14.007    7.018821    3.559110   -4.221837
  29 C     6.0000    0    12.011    5.398381    2.345339   -2.633522
  30 H     1.0000    0     1.008    3.418137   -1.950008   -0.373788
  31 H     1.0000    0     1.008    0.934092   -1.839648    4.541957
  32 H     1.0000    0     1.008   -1.228889    0.097888   -2.005377
  33 H     1.0000    0     1.008   -5.052750    2.543760   -2.774118
  34 H     1.0000    0     1.008   -3.175118   -0.503612    5.887442
  35 H     1.0000    0     1.008   -0.880234   -8.072532   -3.504497
  36 H     1.0000    0     1.008   -1.514615  -11.479330   -0.333537
  37 H     1.0000    0     1.008   -1.244007  -10.451130    4.235632
  38 H     1.0000    0     1.008    7.454970    4.873982    2.916414
  39 H     1.0000    0     1.008   10.349274    7.018821   -0.031369
  40 H     1.0000    0     1.008    6.889375    3.213857   -6.165420
  41 H     1.0000    0     1.008    3.993558    1.087915   -3.428152

--------------------------------
INTERNAL COORDINATES (ANGSTROEM)
--------------------------------
 O      0   0   0     0.000000000000     0.00000000     0.00000000
 C      1   0   0     1.262233516430     0.00000000     0.00000000
 N      2   1   0     1.437123829042   119.63544607     0.00000000
 C      3   2   1     1.468684190015   121.75762332    15.14483468
 C      4   3   2     1.513494096454   110.71744818    68.35916620
 C      5   4   3     1.405978524018   120.95759574    42.71740632
 C      6   5   4     1.397254386288   120.50277680   178.36079540
 C      7   6   5     1.408054714846   120.34410029   359.41329378
 O      8   7   6     1.404622347822   122.63537772   180.03912513
 C      9   8   7     1.426791536981   125.29067419     1.40212937
 F     10   9   8     1.384004078751   110.11365274    60.26770790
 F     10   9   8     1.384576964275   110.22566838   298.78498124
 F     10   9   8     1.381258715810   108.93617810   179.51306010
 C      8   7   6     1.400763670288   119.09127571   359.83977401
 F     14   8   7     1.356951454548   119.95938402   180.60435114
 C     14   8   7     1.398024195070   120.55766370     0.14341216
 C      4   3   2     1.512907987949   110.98208219   190.11206335
 N     17   4   3     1.364016895057   119.51831226   309.35202665
 C     18  17   4     1.359448101253   122.15931711   181.37101302
 C     19  18  17     1.395344846266   120.03940808     0.44863760
 C     20  19  18     1.395141358429   119.25359653     0.27451268
 C     21  20  19     1.397087488313   119.98289664   359.77915829
 F     22  21  20     1.357185009496   119.40804646   179.26652576
 C      2   1   3     1.480947335323   119.46178559   180.61547512
 C     24   2   1     1.403603982610   120.34559685    24.18881321
 C     25  24   2     1.395203415277   120.18632846   180.55594403
 C     26  25  24     1.396980497358   119.41203539     0.56904981
 O     27  26  25     1.260197397236   119.93915119   179.89318916
 N     27  26  25     1.361841158138   120.04342519     0.03519182
 C     29  27  26     1.361725299023   121.53019811   359.77661669
 H      3   2   1     1.045363922278   118.65366336   196.49606913
 H      4   3   2     1.112522817744   107.27927031   309.14262809
 H      6   5   4     1.082946134395   120.46576838   358.44406766
 H      7   6   5     1.080444811177   118.37244567   179.67361225
 H     16  14   8     1.083201001661   119.17238329   180.80121038
 H     19  18  17     1.081941925429   119.83117016   180.31836620
 H     20  19  18     1.082372237264   120.36956008   180.04667371
 H     21  20  19     1.082194820723   119.93399518   179.58523678
 H     25  24   2     1.083819403775   120.74319379     1.21909162
 H     26  25  24     1.083206240750   119.98826313   180.44576161
 H     29  27  26     1.046844682845   119.59447880   179.41212519
 H     30  29  27     1.082691539636   118.85139039   178.30811360

---------------------------
INTERNAL COORDINATES (A.U.)
---------------------------
 O      0   0   0     0.000000000000     0.00000000     0.00000000
 C      1   0   0     2.385275663110     0.00000000     0.00000000
 N      2   1   0     2.715770457421   119.63544607     0.00000000
 C      3   2   1     2.775410896348   121.75762332    15.14483468
 C      4   3   2     2.860089347604   110.71744818    68.35916620
 C      5   4   3     2.656914360569   120.95759574    42.71740632
 C      6   5   4     2.640428129504   120.50277680   178.36079540
 C      7   6   5     2.660837792635   120.34410029   359.41329378
 O      8   7   6     2.654351558968   122.63537772   180.03912513
 C      9   8   7     2.696245255090   125.29067419     1.40212937
 F     10   9   8     2.615388677070   110.11365274    60.26770790
 F     10   9   8     2.616471273815   110.22566838   298.78498124
 F     10   9   8     2.610200692972   108.93617810   179.51306010
 C      8   7   6     2.647059715192   119.09127571   359.83977401
 F     14   8   7     2.564266626122   119.95938402   180.60435114
 C     14   8   7     2.641882857277   120.55766370     0.14341216
 C      4   3   2     2.858981763046   110.98208219   190.11206335
 N     17   4   3     2.577618373699   119.51831226   309.35202665
 C     18  17   4     2.568984604647   122.15931711   181.37101302
 C     19  18  17     2.636819621820   120.03940808     0.44863760
 C     20  19  18     2.636435085538   119.25359653     0.27451268
 C     21  20  19     2.640112738039   119.98289664   359.77915829
 F     22  21  20     2.564707981010   119.40804646   179.26652576
 C      2   1   3     2.798584882521   119.46178559   180.61547512
 C     24   2   1     2.652427127615   120.34559685    24.18881321
 C     25  24   2     2.636552355985   120.18632846   180.55594403
 C     26  25  24     2.639910554437   119.41203539     0.56904981
 O     27  26  25     2.381427955456   119.93915119   179.89318916
 N     27  26  25     2.573506826784   120.04342519     0.03519182
 C     29  27  26     2.573287884786   121.53019811   359.77661669
 H      3   2   1     1.975451523387   118.65366336   196.49606913
 H      4   3   2     2.102363443274   107.27927031   309.14262809
 H      6   5   4     2.046471611794   120.46576838   358.44406766
 H      7   6   5     2.041744795941   118.37244567   179.67361225
 H     16  14   8     2.046953241129   119.17238329   180.80121038
 H     19  18  17     2.044573931867   119.83117016   180.31836620
 H     20  19  18     2.045387103389   120.36956008   180.04667371
 H     21  20  19     2.045051834715   119.93399518   179.58523678
 H     25  24   2     2.048121851765   120.74319379     1.21909162
 H     26  25  24     2.046963141572   119.98826313   180.44576161
 H     29  27  26     1.978249755328   119.59447880   179.41212519
 H     30  29  27     2.045990497426   118.85139039   178.30811360

---------------------
BASIS SET INFORMATION
---------------------
There are 5 groups of distinct atoms

 Group   1 Type O   : 10s4p1d contracted to 3s2p1d pattern {631/31/1}
 Group   2 Type C   : 10s4p1d contracted to 3s2p1d pattern {631/31/1}
 Group   3 Type N   : 10s4p1d contracted to 3s2p1d pattern {631/31/1}
 Group   4 Type F   : 10s4p1d contracted to 3s2p1d pattern {631/31/1}
 Group   5 Type H   : 4s contracted to 2s pattern {31}

Atom   0O    basis set group =>   1
Atom   1C    basis set group =>   2
Atom   2N    basis set group =>   3
Atom   3C    basis set group =>   2
Atom   4C    basis set group =>   2
Atom   5C    basis set group =>   2
Atom   6C    basis set group =>   2
Atom   7C    basis set group =>   2
Atom   8O    basis set group =>   1
Atom   9C    basis set group =>   2
Atom  10F    basis set group =>   4
Atom  11F    basis set group =>   4
Atom  12F    basis set group =>   4
Atom  13C    basis set group =>   2
Atom  14F    basis set group =>   4
Atom  15C    basis set group =>   2
Atom  16C    basis set group =>   2
Atom  17N    basis set group =>   3
Atom  18C    basis set group =>   2
Atom  19C    basis set group =>   2
Atom  20C    basis set group =>   2
Atom  21C    basis set group =>   2
Atom  22F    basis set group =>   4
Atom  23C    basis set group =>   2
Atom  24C    basis set group =>   2
Atom  25C    basis set group =>   2
Atom  26C    basis set group =>   2
Atom  27O    basis set group =>   1
Atom  28N    basis set group =>   3
Atom  29C    basis set group =>   2
Atom  30H    basis set group =>   5
Atom  31H    basis set group =>   5
Atom  32H    basis set group =>   5
Atom  33H    basis set group =>   5
Atom  34H    basis set group =>   5
Atom  35H    basis set group =>   5
Atom  36H    basis set group =>   5
Atom  37H    basis set group =>   5
Atom  38H    basis set group =>   5
Atom  39H    basis set group =>   5
Atom  40H    basis set group =>   5
Atom  41H    basis set group =>   5
---------------------------------
AUXILIARY/J BASIS SET INFORMATION
---------------------------------
There are 5 groups of distinct atoms

 Group   1 Type O   : 12s5p4d2f1g contracted to 6s4p3d1f1g pattern {711111/2111/211/2/1}
 Group   2 Type C   : 12s5p4d2f1g contracted to 6s4p3d1f1g pattern {711111/2111/211/2/1}
 Group   3 Type N   : 12s5p4d2f1g contracted to 6s4p3d1f1g pattern {711111/2111/211/2/1}
 Group   4 Type F   : 12s5p4d2f1g contracted to 6s4p3d1f1g pattern {711111/2111/211/2/1}
 Group   5 Type H   : 5s2p1d contracted to 3s1p1d pattern {311/2/1}

Atom   0O    basis set group =>   1
Atom   1C    basis set group =>   2
Atom   2N    basis set group =>   3
Atom   3C    basis set group =>   2
Atom   4C    basis set group =>   2
Atom   5C    basis set group =>   2
Atom   6C    basis set group =>   2
Atom   7C    basis set group =>   2
Atom   8O    basis set group =>   1
Atom   9C    basis set group =>   2
Atom  10F    basis set group =>   4
Atom  11F    basis set group =>   4
Atom  12F    basis set group =>   4
Atom  13C    basis set group =>   2
Atom  14F    basis set group =>   4
Atom  15C    basis set group =>   2
Atom  16C    basis set group =>   2
Atom  17N    basis set group =>   3
Atom  18C    basis set group =>   2
Atom  19C    basis set group =>   2
Atom  20C    basis set group =>   2
Atom  21C    basis set group =>   2
Atom  22F    basis set group =>   4
Atom  23C    basis set group =>   2
Atom  24C    basis set group =>   2
Atom  25C    basis set group =>   2
Atom  26C    basis set group =>   2
Atom  27O    basis set group =>   1
Atom  28N    basis set group =>   3
Atom  29C    basis set group =>   2
Atom  30H    basis set group =>   5
Atom  31H    basis set group =>   5
Atom  32H    basis set group =>   5
Atom  33H    basis set group =>   5
Atom  34H    basis set group =>   5
Atom  35H    basis set group =>   5
Atom  36H    basis set group =>   5
Atom  37H    basis set group =>   5
Atom  38H    basis set group =>   5
Atom  39H    basis set group =>   5
Atom  40H    basis set group =>   5
Atom  41H    basis set group =>   5
------------------------------------------------------------------------------
                             ORCA STARTUP CALCULATIONS
                           -- RI-GTO INTEGRALS CHOSEN --
------------------------------------------------------------------------------
------------------------------------------------------------------------------
                   ___                                                        
                  /   \      - P O W E R E D   B Y -                         
                 /     \                                                     
                 |  |  |   _    _      __       _____    __    __             
                 |  |  |  | |  | |    /  \     |  _  \  |  |  /  |          
                  \  \/   | |  | |   /    \    | | | |  |  | /  /          
                 / \  \   | |__| |  /  /\  \   | |_| |  |  |/  /          
                |  |  |   |  __  | /  /__\  \  |    /   |      \           
                |  |  |   | |  | | |   __   |  |    \   |  |\   \          
                \     /   | |  | | |  |  |  |  | |\  \  |  | \   \       
                 \___/    |_|  |_| |__|  |__|  |_| \__\ |__|  \__/        
                                                                              
                      - O R C A' S   B I G   F R I E N D -                    
                                      &                                       
                       - I N T E G R A L  F E E D E R -                       
                                                                              
 v1 FN, 2020, v2 2021, v3 2022-2024                                           
------------------------------------------------------------------------------


----------------------
SHARK INTEGRAL PACKAGE
----------------------

Number of atoms                             ...     42
Number of basis functions                   ...    444
Number of shells                            ...    204
Maximum angular momentum                    ...      2
Integral batch strategy                     ... SHARK/LIBINT Hybrid
RI-J (if used) integral strategy            ... SPLIT-RIJ (Revised 2003 algorithm where possible)
Printlevel                                  ...      1
Contraction scheme used                     ... SEGMENTED contraction
Prescreening option                         ... SCHWARTZ
   Thresh                                   ... 1.000e-10
   Tcut                                     ... 1.000e-11
   Tpresel                                  ... 1.000e-11 
Coulomb Range Separation                    ... NOT USED
Exchange Range Separation                   ... NOT USED
Multipole approximations                    ... NOT USED
Finite Nucleus Model                        ... NOT USED
CABS basis                                  ... NOT available
Auxiliary Coulomb fitting basis             ... AVAILABLE
   # of basis functions in Aux-J            ...   1602
   # of shells in Aux-J                     ...    510
   Maximum angular momentum in Aux-J        ...      4
Auxiliary J/K fitting basis                 ... NOT available
Auxiliary Correlation fitting basis         ... NOT available
Auxiliary 'external' fitting basis          ... NOT available

Checking pre-screening integrals            ... done (  0.0 sec) Dimension = 204
Check shell pair data                       ... done (  0.0 sec)
Shell pair information
Shell pair cut-off parameter TPreSel        ...   1.0e-11
Total number of shell pairs                 ...     20910
Shell pairs after pre-screening             ...     11699
Total number of primitive shell pairs       ...    124917
Primitive shell pairs kept                  ...     36512
          la=0 lb=0:   3451 shell pairs
          la=1 lb=0:   4146 shell pairs
          la=1 lb=1:   1252 shell pairs
          la=2 lb=0:   1624 shell pairs
          la=2 lb=1:   1026 shell pairs
          la=2 lb=2:    200 shell pairs

Calculating one electron integrals          ... done (  0.1 sec)
Calculating RI/J V-Matrix + Cholesky decomp.... done (  0.3 sec)
Calculating Nuclear repulsion               ... done (  0.0 sec) ENN=   2816.684515491092 Eh

Diagonalization of the overlap matrix:
Smallest eigenvalue                        ... 4.755e-04
Time for diagonalization                   ...    0.026 sec
Threshold for overlap eigenvalues          ... 1.000e-07
Number of eigenvalues below threshold      ... 0
Time for construction of square roots      ...    0.030 sec
Total time needed                          ...    0.069 sec

-------------------
DFT GRID GENERATION
-------------------

General Integration Accuracy     IntAcc      ... 4.388
Radial Grid Type                 RadialGrid  ... OptM3 with GC (2021)
Angular Grid (max. ang.)         AngularGrid ... 4 (Lebedev-302)
Angular grid pruning method      GridPruning ... 4 (adaptive)
Weight generation scheme         WeightScheme... mBecke (2022)
Basis function cutoff            BFCut       ... 1.0000e-10
Integration weight cutoff        WCut        ... 1.0000e-14
Partially contracted basis set               ... off
Rotationally invariant grid construction     ... off
Angular grids for H and He will be reduced by one unit

Total number of grid points                  ...   218397
Total number of batches                      ...     3433
Average number of points per batch           ...       63
Average number of grid points per atom       ...     5200

--------------------
COSX GRID GENERATION
--------------------

GRIDX 1
-------
General Integration Accuracy     IntAcc      ... 3.816
Radial Grid Type                 RadialGrid  ... OptM3 with GC (2021)
Angular Grid (max. ang.)         AngularGrid ... 1 (Lebedev-50)
Angular grid pruning method      GridPruning ... 4 (adaptive)
Weight generation scheme         WeightScheme... mBecke (2022)
Basis function cutoff            BFCut       ... 1.0000e-10
Integration weight cutoff        WCut        ... 1.0000e-14
Partially contracted basis set               ... on
Rotationally invariant grid construction     ... off
Angular grids for H and He will be reduced by one unit

Total number of grid points                  ...    27598
Total number of batches                      ...      239
Average number of points per batch           ...      115
Average number of grid points per atom       ...      657
UseSFitting                                  ... on

GRIDX 2
-------
General Integration Accuracy     IntAcc      ... 4.020
Radial Grid Type                 RadialGrid  ... OptM3 with GC (2021)
Angular Grid (max. ang.)         AngularGrid ... 2 (Lebedev-110)
Angular grid pruning method      GridPruning ... 4 (adaptive)
Weight generation scheme         WeightScheme... mBecke (2022)
Basis function cutoff            BFCut       ... 1.0000e-10
Integration weight cutoff        WCut        ... 1.0000e-14
Partially contracted basis set               ... on
Rotationally invariant grid construction     ... off
Angular grids for H and He will be reduced by one unit

Total number of grid points                  ...    61936
Total number of batches                      ...      505
Average number of points per batch           ...      122
Average number of grid points per atom       ...     1475
UseSFitting                                  ... on

GRIDX 3
-------
General Integration Accuracy     IntAcc      ... 4.338
Radial Grid Type                 RadialGrid  ... OptM3 with GC (2021)
Angular Grid (max. ang.)         AngularGrid ... 3 (Lebedev-194)
Angular grid pruning method      GridPruning ... 4 (adaptive)
Weight generation scheme         WeightScheme... mBecke (2022)
Basis function cutoff            BFCut       ... 1.0000e-10
Integration weight cutoff        WCut        ... 1.0000e-14
Partially contracted basis set               ... on
Rotationally invariant grid construction     ... off
Angular grids for H and He will be reduced by one unit

Total number of grid points                  ...   136089
Total number of batches                      ...     1084
Average number of points per batch           ...      125
Average number of grid points per atom       ...     3240
UseSFitting                                  ... on
Initializing property integral containers    ... done (  0.0 sec)

SHARK setup successfully completed in   6.9 seconds

Maximum memory used throughout the entire STARTUP-calculation: 91.8 MB
-------------------------------------------------------------------------------
                                 ORCA GUESS
                   Start orbitals & Density for SCF / CASSCF
-------------------------------------------------------------------------------

------------
SCF SETTINGS
------------
Hamiltonian:
 Density Functional     Method          .... DFT(GTOs)
 Exchange Functional    Exchange        .... B88
   X-Alpha parameter    XAlpha          ....  0.666667
   Becke's b parameter  XBeta           ....  0.004200
 Correlation Functional Correlation     .... LYP
 LDA part of GGA corr.  LDAOpt          .... VWN-5
 Gradients option       PostSCFGGA      .... off
 Hybrid DFT is turned on
   Fraction HF Exchange ScalHFX         ....  0.200000
   Scaling of DF-GGA-X  ScalDFX         ....  0.720000
   Scaling of DF-GGA-C  ScalDFC         ....  0.810000
   Scaling of DF-LDA-C  ScalLDAC        ....  1.000000
   Perturbative correction              ....  0.000000
   NL short-range parameter             ....  4.800000
 RI-approximation to the Coulomb term is turned on
   Number of AuxJ basis functions       .... 1602
   RIJ-COSX (HFX calculated with COS-X)).... on


General Settings:
 Integral files         IntName         .... /home/nmrbox/aojoawo/Documents/ERDOS/inputs/CHEMBL4243837
 Hartree-Fock type      HFTyp           .... RHF
 Total Charge           Charge          ....    0
 Multiplicity           Mult            ....    1
 Number of Electrons    NEL             ....  216
 Basis Dimension        Dim             ....  444
 Nuclear Repulsion      ENuc            ....   2816.6845154911 Eh

Convergence Acceleration:
 AO-DIIS                CNVDIIS         .... on
   Start iteration      DIISMaxIt       ....    12
   Startup error        DIISStart       ....  0.200000
   # of expansion vecs  DIISMaxEq       ....     5
   Bias factor          DIISBfac        ....   1.050
   Max. coefficient     DIISMaxC        ....  10.000
 MO-DIIS                CNVKDIIS        .... off
 Trust-Rad. Augm. Hess. CNVTRAH         .... auto
   Auto Start mean grad. ratio tolernc. ....  1.125000
   Auto Start start iteration           ....    50
   Auto Start num. interpolation iter.  ....    10
   Max. Number of Micro iterations      ....    24
   Max. Number of Macro iterations      .... Maxiter - #DIIS iter
   Number of Davidson start vectors     ....     2
   Converg. threshold    (grad. norm)   ....   5.000e-05
   Grad. Scal. Fac. for Micro threshold ....   0.100
   Minimum threshold for Micro iter.    ....   1.000e-02
   NR start threshold (gradient norm)   ....   1.000e-04
   Initial trust radius                 ....   0.400
   Minimum AH scaling param. (alpha)    ....   1.000
   Maximum AH scaling param. (alpha)    .... 1000.000
   Quad. conv. algorithm                .... NR
   White noise on init. David. guess    .... on
   Maximum white noise                  ....   0.010
   Pseudo random numbers                .... off
   Inactive MOs                         .... canonical
   Orbital update algorithm             .... Taylor
   Preconditioner                       .... Diag
   Full preconditioner red. dimension   ....   250
 SOSCF                  CNVSOSCF        .... on
   Start iteration      SOSCFMaxIt      ....   150
   Startup grad/error   SOSCFStart      ....  0.003300
   Hessian update       SOSCFHessUp     .... L-BFGS
 Level Shifting         CNVShift        .... on
   Level shift para.    LevelShift      ....    0.2500
   Turn off err/grad.   ShiftErr        ....    0.0010
 Zerner damping         CNVZerner       .... off
 Static damping         CNVDamp         .... on
   Fraction old density DampFac         ....    0.7000
   Max. Damping (<1)    DampMax         ....    0.9800
   Min. Damping (>=0)   DampMin         ....    0.0000
   Turn off err/grad.   DampErr         ....    0.1000

SCF Procedure:
 Maximum # iterations   MaxIter         ....   125
 SCF integral mode      SCFMode         .... Direct
   Integral package                     .... SHARK and LIBINT hybrid scheme
 Reset frequency        DirectResetFreq ....    20
 Integral Threshold     Thresh          ....  1.000e-10 Eh
 Primitive CutOff       TCut            ....  1.000e-11 Eh

Convergence Tolerance:
 Convergence Check Mode ConvCheckMode   .... Total+1el-Energy
 Convergence forced     ConvForced      .... 0
 Energy Change          TolE            ....  1.000e-06 Eh
 1-El. energy change                    ....  1.000e-03 Eh
 Orbital Gradient       TolG            ....  5.000e-05
 Orbital Rotation angle TolX            ....  5.000e-05
 DIIS Error             TolErr          ....  1.000e-06

------------------------------
INITIAL GUESS: MODEL POTENTIAL
------------------------------
Loading Hartree-Fock densities                     ... done
Calculating cut-offs                               ... done
Initializing the effective Hamiltonian             ... done
Setting up the integral package (SHARK)            ... done
Starting the Coulomb interaction                   ... done (   1.3 sec)
Making the grid                                    ... done (   0.9 sec)
Mapping shells                                     ... done
Starting the XC term evaluation                    ... done (   0.7 sec)
  promolecular density results
     # of electrons  =    215.984752144
     EX              =   -195.765494007
     EC              =     -7.644034194
     EX+EC           =   -203.409528201
Transforming the Hamiltonian                       ... done (   0.0 sec)
Diagonalizing the Hamiltonian                      ... done (   0.0 sec)
Back transforming the eigenvectors                 ... done (   0.0 sec)
Now organizing SCF variables                       ... done
                      ------------------
                      INITIAL GUESS DONE (   3.0 sec)
                      ------------------
             **** ENERGY FILE WAS UPDATED (/home/nmrbox/aojoawo/Documents/ERDOS/inputs/CHEMBL4243837.en.tmp) ****
Finished Guess after   3.2 sec
Maximum memory used throughout the entire GUESS-calculation: 49.9 MB

-------------------------------------------------------------------------------------------
                                      ORCA LEAN-SCF
                              memory conserving SCF solver
-------------------------------------------------------------------------------------------

----------------------------------------D-I-I-S--------------------------------------------
Iteration    Energy (Eh)           Delta-E    RMSDP     MaxDP     DIISErr   Damp  Time(sec)
-------------------------------------------------------------------------------------------
               ***  Starting incremental Fock matrix formation  ***
    1    -1618.7979806349708269     0.00e+00  2.43e-03  1.10e-01  2.99e-01  0.700  30.2
    2    -1619.1423272329916472    -3.44e-01  1.51e-03  6.19e-02  1.06e-01  0.700  13.4
                               ***Turning on AO-DIIS***
    3    -1619.2618162643680080    -1.19e-01  5.57e-04  1.65e-02  4.55e-02  0.700  13.0
    4    -1619.3388495592985237    -7.70e-02  9.38e-04  2.88e-02  2.14e-02  0.000  12.1
    5    -1619.5130804632349282    -1.74e-01  2.46e-04  1.06e-02  1.02e-02  0.000  12.6
                              *** Initializing SOSCF ***
---------------------------------------S-O-S-C-F--------------------------------------
Iteration    Energy (Eh)           Delta-E    RMSDP     MaxDP     MaxGrad    Time(sec)
--------------------------------------------------------------------------------------
    6    -1619.5143350752127844    -1.25e-03  8.01e-05  3.55e-03  2.22e-03    11.0
               *** Restarting incremental Fock matrix formation ***
    7    -1619.5144837381617435    -1.49e-04  7.15e-05  3.17e-03  5.40e-04    30.1
    8    -1619.5144437284693595     4.00e-05  4.10e-05  2.52e-03  1.28e-03    18.2
    9    -1619.5145083080046788    -6.46e-05  1.28e-05  5.65e-04  1.15e-04    16.2
   10    -1619.5145065979081664     1.71e-06  7.89e-06  3.87e-04  2.39e-04    13.6
   11    -1619.5145091450499422    -2.55e-06  2.71e-06  9.88e-05  3.78e-05    11.9
   12    -1619.5145091182880606     2.68e-08  1.51e-06  7.66e-05  5.65e-05    10.2
                 **** Energy Check signals convergence ****

               *****************************************************
               *                     SUCCESS                       *
               *           SCF CONVERGED AFTER  12 CYCLES          *
               *****************************************************

Recomputing exchange energy using gridx3       ... done (   51.795 sec)
Old exchange energy                            :    -39.494735804 Eh
New exchange energy                            :    -39.494745110 Eh
Exchange energy change after final integration :     -0.000009306 Eh
Total energy after final integration           :  -1619.514518425 Eh
             **** ENERGY FILE WAS UPDATED (/home/nmrbox/aojoawo/Documents/ERDOS/inputs/CHEMBL4243837.en.tmp) ****

----------------
TOTAL SCF ENERGY
----------------

Total Energy       :      -1619.51451842469032 Eh          -44069.23048 eV

Components:
Nuclear Repulsion  :       2816.68451549109204 Eh           76645.88227 eV
Electronic Energy  :      -4436.19902460938010 Eh         -120715.11250 eV
One Electron Energy:      -7824.91418106585297 Eh         -212926.73985 eV
Two Electron Energy:       3388.71515645647287 Eh           92211.62736 eV

Virial components:
Potential Energy   :      -3228.99877024027683 Eh          -87865.52354 eV
Kinetic Energy     :       1609.48425181558650 Eh           43796.29305 eV
Virial Ratio       :          2.00623197561442

DFT components:
N(Alpha)           :      108.000054884483 electrons
N(Beta)            :      108.000054884483 electrons
N(Total)           :      216.000109768965 electrons
E(X)               :     -157.136182027632 Eh       
E(C)               :       -8.974042440199 Eh       
E(XC)              :     -166.110224467831 Eh       

---------------
SCF CONVERGENCE
---------------

  Last Energy change         ...   -2.6762e-08  Tolerance :   1.0000e-06
  Last MAX-Density change    ...    7.6587e-05  Tolerance :   1.0000e-05
  Last RMS-Density change    ...    1.5050e-06  Tolerance :   1.0000e-06
  Last DIIS Error            ...    2.2184e-03  Tolerance :   1.0000e-06
  Last Orbital Gradient      ...    5.6503e-05  Tolerance :   5.0000e-05
  Last Orbital Rotation      ...    7.9405e-05  Tolerance :   5.0000e-05


----------------
ORBITAL ENERGIES
----------------

  NO   OCC          E(Eh)            E(eV) 
   0   2.0000     -24.741541      -673.2516 
   1   2.0000     -24.740224      -673.2157 
   2   2.0000     -24.739730      -673.2023 
   3   2.0000     -24.728514      -672.8971 
   4   2.0000     -24.704378      -672.2403 
   5   2.0000     -19.214633      -522.8568 
   6   2.0000     -19.117740      -520.2202 
   7   2.0000     -19.087197      -519.3890 
   8   2.0000     -14.412474      -392.1834 
   9   2.0000     -14.365356      -390.9012 
  10   2.0000     -14.358827      -390.7235 
  11   2.0000     -10.505610      -285.8722 
  12   2.0000     -10.300622      -280.2942 
  13   2.0000     -10.299725      -280.2698 
  14   2.0000     -10.281776      -279.7814 
  15   2.0000     -10.278231      -279.6849 
  16   2.0000     -10.273631      -279.5597 
  17   2.0000     -10.268940      -279.4321 
  18   2.0000     -10.258284      -279.1421 
  19   2.0000     -10.249134      -278.8931 
  20   2.0000     -10.243828      -278.7487 
  21   2.0000     -10.227227      -278.2970 
  22   2.0000     -10.219796      -278.0948 
  23   2.0000     -10.216177      -277.9963 
  24   2.0000     -10.211616      -277.8722 
  25   2.0000     -10.207581      -277.7624 
  26   2.0000     -10.203138      -277.6415 
  27   2.0000     -10.200865      -277.5796 
  28   2.0000     -10.196444      -277.4594 
  29   2.0000     -10.193163      -277.3701 
  30   2.0000      -1.304622       -35.5006 
  31   2.0000      -1.240707       -33.7614 
  32   2.0000      -1.225678       -33.3524 
  33   2.0000      -1.224739       -33.3268 
  34   2.0000      -1.217200       -33.1217 
  35   2.0000      -1.083901       -29.4944 
  36   2.0000      -1.030908       -28.0524 
  37   2.0000      -1.018191       -27.7064 
  38   2.0000      -0.962330       -26.1863 
  39   2.0000      -0.956099       -26.0168 
  40   2.0000      -0.916294       -24.9336 
  41   2.0000      -0.869221       -23.6527 
  42   2.0000      -0.835185       -22.7265 
  43   2.0000      -0.823991       -22.4219 
  44   2.0000      -0.806679       -21.9508 
  45   2.0000      -0.778741       -21.1906 
  46   2.0000      -0.770751       -20.9732 
  47   2.0000      -0.760675       -20.6990 
  48   2.0000      -0.728783       -19.8312 
  49   2.0000      -0.694940       -18.9103 
  50   2.0000      -0.678019       -18.4498 
  51   2.0000      -0.661144       -17.9906 
  52   2.0000      -0.653807       -17.7910 
  53   2.0000      -0.647457       -17.6182 
  54   2.0000      -0.636033       -17.3073 
  55   2.0000      -0.624770       -17.0009 
  56   2.0000      -0.600867       -16.3504 
  57   2.0000      -0.597022       -16.2458 
  58   2.0000      -0.592314       -16.1177 
  59   2.0000      -0.581364       -15.8197 
  60   2.0000      -0.571635       -15.5550 
  61   2.0000      -0.555306       -15.1106 
  62   2.0000      -0.538147       -14.6437 
  63   2.0000      -0.536083       -14.5876 
  64   2.0000      -0.529134       -14.3985 
  65   2.0000      -0.523450       -14.2438 
  66   2.0000      -0.509713       -13.8700 
  67   2.0000      -0.505137       -13.7455 
  68   2.0000      -0.490220       -13.3396 
  69   2.0000      -0.484976       -13.1969 
  70   2.0000      -0.482983       -13.1426 
  71   2.0000      -0.473695       -12.8899 
  72   2.0000      -0.472526       -12.8581 
  73   2.0000      -0.469326       -12.7710 
  74   2.0000      -0.462401       -12.5826 
  75   2.0000      -0.457432       -12.4474 
  76   2.0000      -0.455155       -12.3854 
  77   2.0000      -0.452494       -12.3130 
  78   2.0000      -0.448227       -12.1969 
  79   2.0000      -0.442667       -12.0456 
  80   2.0000      -0.440650       -11.9907 
  81   2.0000      -0.435246       -11.8436 
  82   2.0000      -0.430154       -11.7051 
  83   2.0000      -0.423750       -11.5308 
  84   2.0000      -0.417134       -11.3508 
  85   2.0000      -0.416986       -11.3468 
  86   2.0000      -0.408701       -11.1213 
  87   2.0000      -0.401988       -10.9386 
  88   2.0000      -0.399705       -10.8765 
  89   2.0000      -0.397732       -10.8228 
  90   2.0000      -0.395825       -10.7709 
  91   2.0000      -0.385049       -10.4777 
  92   2.0000      -0.380752       -10.3608 
  93   2.0000      -0.375360       -10.2141 
  94   2.0000      -0.369115       -10.0441 
  95   2.0000      -0.360173        -9.8008 
  96   2.0000      -0.345869        -9.4116 
  97   2.0000      -0.331547        -9.0219 
  98   2.0000      -0.312481        -8.5030 
  99   2.0000      -0.304609        -8.2888 
 100   2.0000      -0.281966        -7.6727 
 101   2.0000      -0.277343        -7.5469 
 102   2.0000      -0.262332        -7.1384 
 103   2.0000      -0.256046        -6.9674 
 104   2.0000      -0.255664        -6.9570 
 105   2.0000      -0.236914        -6.4468 
 106   2.0000      -0.235908        -6.4194 
 107   2.0000      -0.218308        -5.9405 
 108   0.0000      -0.060042        -1.6338 
 109   0.0000      -0.056032        -1.5247 
 110   0.0000      -0.035788        -0.9738 
 111   0.0000      -0.031006        -0.8437 
 112   0.0000      -0.013133        -0.3574 
 113   0.0000      -0.003372        -0.0918 
 114   0.0000       0.041931         1.1410 
 115   0.0000       0.052308         1.4234 
 116   0.0000       0.058939         1.6038 
 117   0.0000       0.071509         1.9459 
 118   0.0000       0.077687         2.1140 
*Only the first 10 virtual orbitals were printed.

                    ********************************
                    * MULLIKEN POPULATION ANALYSIS *
                    ********************************

-----------------------
MULLIKEN ATOMIC CHARGES
-----------------------
   0 O :   -0.481326
   1 C :    0.510321
   2 N :   -0.649561
   3 C :   -0.059228
   4 C :    0.185038
   5 C :   -0.159731
   6 C :   -0.182258
   7 C :    0.280639
   8 O :   -0.537827
   9 C :    1.089065
  10 F :   -0.292214
  11 F :   -0.291006
  12 F :   -0.276778
  13 C :    0.375887
  14 F :   -0.306421
  15 C :   -0.256931
  16 C :    0.161929
  17 N :   -0.415180
  18 C :    0.013055
  19 C :   -0.124855
  20 C :   -0.171215
  21 C :    0.374493
  22 F :   -0.305741
  23 C :    0.024324
  24 C :   -0.104212
  25 C :   -0.206753
  26 C :    0.552768
  27 O :   -0.521109
  28 N :   -0.579123
  29 C :    0.033038
  30 H :    0.327841
  31 H :    0.188544
  32 H :    0.136046
  33 H :    0.158453
  34 H :    0.158622
  35 H :    0.157953
  36 H :    0.151504
  37 H :    0.166427
  38 H :    0.175684
  39 H :    0.167096
  40 H :    0.355633
  41 H :    0.177112
Sum of atomic charges:    0.0000000

--------------------------------
MULLIKEN REDUCED ORBITAL CHARGES
--------------------------------
  0 O s       :     3.890516  s :     3.890516
      pz      :     1.370685  p :     4.565320
      px      :     1.551397
      py      :     1.643238
      dz2     :     0.008809  d :     0.025490
      dxz     :     0.006260
      dyz     :     0.006808
      dx2y2   :     0.001449
      dxy     :     0.002164

  1 C s       :     3.022086  s :     3.022086
      pz      :     0.791734  p :     2.367358
      px      :     0.828837
      py      :     0.746787
      dz2     :     0.023501  d :     0.100234
      dxz     :     0.022107
      dyz     :     0.025888
      dx2y2   :     0.016329
      dxy     :     0.012409

  2 N s       :     3.611888  s :     3.611888
      pz      :     1.399151  p :     4.009447
      px      :     1.361446
      py      :     1.248851
      dz2     :     0.004737  d :     0.028227
      dxz     :     0.005049
      dyz     :     0.006461
      dx2y2   :     0.005292
      dxy     :     0.006687

  3 C s       :     3.211982  s :     3.211982
      pz      :     1.011979  p :     2.788097
      px      :     0.851453
      py      :     0.924665
      dz2     :     0.014964  d :     0.059149
      dxz     :     0.010131
      dyz     :     0.006170
      dx2y2   :     0.015111
      dxy     :     0.012774

  4 C s       :     3.129965  s :     3.129965
      pz      :     0.836675  p :     2.644961
      px      :     0.869482
      py      :     0.938803
      dz2     :     0.010078  d :     0.040037
      dxz     :     0.011225
      dyz     :     0.007621
      dx2y2   :     0.005107
      dxy     :     0.006006

  5 C s       :     3.199670  s :     3.199670
      pz      :     0.979654  p :     2.924050
      px      :     0.963672
      py      :     0.980725
      dz2     :     0.008494  d :     0.036010
      dxz     :     0.011672
      dyz     :     0.005740
      dx2y2   :     0.005412
      dxy     :     0.004693

  6 C s       :     3.178018  s :     3.178018
      pz      :     0.967317  p :     2.969410
      px      :     0.981788
      py      :     1.020305
      dz2     :     0.008580  d :     0.034830
      dxz     :     0.009228
      dyz     :     0.006029
      dx2y2   :     0.005783
      dxy     :     0.005209

  7 C s       :     3.076781  s :     3.076781
      pz      :     0.913536  p :     2.578622
      px      :     0.744631
      py      :     0.920455
      dz2     :     0.014486  d :     0.063958
      dxz     :     0.013559
      dyz     :     0.009355
      dx2y2   :     0.013534
      dxy     :     0.013024

  8 O s       :     3.887806  s :     3.887806
      pz      :     1.463982  p :     4.624040
      px      :     1.505385
      py      :     1.654673
      dz2     :     0.007801  d :     0.025981
      dxz     :     0.004244
      dyz     :     0.004377
      dx2y2   :     0.004662
      dxy     :     0.004896

  9 C s       :     2.716213  s :     2.716213
      pz      :     0.713627  p :     2.030079
      px      :     0.649171
      py      :     0.667281
      dz2     :     0.030315  d :     0.164642
      dxz     :     0.029699
      dyz     :     0.039215
      dx2y2   :     0.028272
      dxy     :     0.037142

 10 F s       :     3.982033  s :     3.982033
      pz      :     1.733275  p :     5.293948
      px      :     1.899400
      py      :     1.661273
      dz2     :     0.002713  d :     0.016233
      dxz     :     0.001811
      dyz     :     0.006195
      dx2y2   :     0.003022
      dxy     :     0.002493

 11 F s       :     3.982453  s :     3.982453
      pz      :     1.851588  p :     5.292308
      px      :     1.715181
      py      :     1.725539
      dz2     :     0.002145  d :     0.016245
      dxz     :     0.002745
      dyz     :     0.002781
      dx2y2   :     0.003179
      dxy     :     0.005394

 12 F s       :     3.979405  s :     3.979405
      pz      :     1.898716  p :     5.281127
      px      :     1.574350
      py      :     1.808061
      dz2     :     0.002317  d :     0.016246
      dxz     :     0.002857
      dyz     :     0.001113
      dx2y2   :     0.004380
      dxy     :     0.005579

 13 C s       :     3.094358  s :     3.094358
      pz      :     0.683057  p :     2.458303
      px      :     0.800707
      py      :     0.974540
      dz2     :     0.017629  d :     0.071451
      dxz     :     0.020956
      dyz     :     0.013770
      dx2y2   :     0.010153
      dxy     :     0.008943

 14 F s       :     3.975050  s :     3.975050
      pz      :     1.668699  p :     5.314056
      px      :     1.753257
      py      :     1.892100
      dz2     :     0.004193  d :     0.017315
      dxz     :     0.005907
      dyz     :     0.003014
      dx2y2   :     0.002191
      dxy     :     0.002010

 15 C s       :     3.218803  s :     3.218803
      pz      :     1.000936  p :     3.003617
      px      :     0.990297
      py      :     1.012384
      dz2     :     0.010325  d :     0.034511
      dxz     :     0.006907
      dyz     :     0.005273
      dx2y2   :     0.006052
      dxy     :     0.005954

 16 C s       :     3.099131  s :     3.099131
      pz      :     0.812815  p :     2.682671
      px      :     0.982296
      py      :     0.887560
      dz2     :     0.015766  d :     0.056269
      dxz     :     0.008962
      dyz     :     0.020071
      dx2y2   :     0.005755
      dxy     :     0.005715

 17 N s       :     3.693311  s :     3.693311
      pz      :     1.249134  p :     3.686749
      px      :     1.141751
      py      :     1.295864
      dz2     :     0.011345  d :     0.035120
      dxz     :     0.006006
      dyz     :     0.005565
      dx2y2   :     0.006187
      dxy     :     0.006017

 18 C s       :     3.139318  s :     3.139318
      pz      :     0.976115  p :     2.794717
      px      :     0.951383
      py      :     0.867219
      dz2     :     0.015515  d :     0.052910
      dxz     :     0.003183
      dyz     :     0.016998
      dx2y2   :     0.008869
      dxy     :     0.008345

 19 C s       :     3.195581  s :     3.195581
      pz      :     0.918049  p :     2.893974
      px      :     0.981995
      py      :     0.993931
      dz2     :     0.009678  d :     0.035299
      dxz     :     0.005651
      dyz     :     0.011187
      dx2y2   :     0.005746
      dxy     :     0.003037

 20 C s       :     3.199808  s :     3.199808
      pz      :     0.990316  p :     2.936583
      px      :     0.984449
      py      :     0.961819
      dz2     :     0.007855  d :     0.034824
      dxz     :     0.004596
      dyz     :     0.013053
      dx2y2   :     0.004973
      dxy     :     0.004348

 21 C s       :     3.103843  s :     3.103843
      pz      :     0.575708  p :     2.450516
      px      :     0.991594
      py      :     0.883214
      dz2     :     0.022994  d :     0.071148
      dxz     :     0.013943
      dyz     :     0.022201
      dx2y2   :     0.005815
      dxy     :     0.006195

 22 F s       :     3.975580  s :     3.975580
      pz      :     1.515459  p :     5.312857
      px      :     1.896561
      py      :     1.900837
      dz2     :     0.007693  d :     0.017304
      dxz     :     0.004507
      dyz     :     0.004548
      dx2y2   :     0.000285
      dxy     :     0.000270

 23 C s       :     3.150794  s :     3.150794
      pz      :     0.831909  p :     2.787524
      px      :     0.971414
      py      :     0.984201
      dz2     :     0.009847  d :     0.037357
      dxz     :     0.008837
      dyz     :     0.008027
      dx2y2   :     0.005122
      dxy     :     0.005525

 24 C s       :     3.207646  s :     3.207646
      pz      :     0.996290  p :     2.859272
      px      :     0.938257
      py      :     0.924724
      dz2     :     0.011881  d :     0.037294
      dxz     :     0.006693
      dyz     :     0.006061
      dx2y2   :     0.007055
      dxy     :     0.005604

 25 C s       :     3.235289  s :     3.235289
      pz      :     0.922846  p :     2.937816
      px      :     1.004438
      py      :     1.010532
      dz2     :     0.010039  d :     0.033647
      dxz     :     0.007397
      dyz     :     0.006807
      dx2y2   :     0.003158
      dxy     :     0.006247

 26 C s       :     2.925559  s :     2.925559
      pz      :     0.880480  p :     2.414324
      px      :     0.754510
      py      :     0.779333
      dz2     :     0.030762  d :     0.107350
      dxz     :     0.020744
      dyz     :     0.017852
      dx2y2   :     0.018885
      dxy     :     0.019106

 27 O s       :     3.874451  s :     3.874451
      pz      :     1.630046  p :     4.621109
      px      :     1.476414
      py      :     1.514650
      dz2     :     0.004344  d :     0.025548
      dxz     :     0.006285
      dyz     :     0.005182
      dx2y2   :     0.005458
      dxy     :     0.004280

 28 N s       :     3.632898  s :     3.632898
      pz      :     1.205768  p :     3.911709
      px      :     1.322098
      py      :     1.383843
      dz2     :     0.011453  d :     0.034516
      dxz     :     0.005576
      dyz     :     0.005229
      dx2y2   :     0.006853
      dxy     :     0.005405

 29 C s       :     3.106354  s :     3.106354
      pz      :     0.979031  p :     2.808563
      px      :     0.903359
      py      :     0.926173
      dz2     :     0.010213  d :     0.052044
      dxz     :     0.014984
      dyz     :     0.013612
      dx2y2   :     0.005324
      dxy     :     0.007912

 30 H s       :     0.672159  s :     0.672159

 31 H s       :     0.811456  s :     0.811456

 32 H s       :     0.863954  s :     0.863954

 33 H s       :     0.841547  s :     0.841547

 34 H s       :     0.841378  s :     0.841378

 35 H s       :     0.842047  s :     0.842047

 36 H s       :     0.848496  s :     0.848496

 37 H s       :     0.833573  s :     0.833573

 38 H s       :     0.824316  s :     0.824316

 39 H s       :     0.832904  s :     0.832904

 40 H s       :     0.644367  s :     0.644367

 41 H s       :     0.822888  s :     0.822888



                     *******************************
                     * LOEWDIN POPULATION ANALYSIS *
                     *******************************

----------------------
LOEWDIN ATOMIC CHARGES
----------------------
   0 O :   -0.285810
   1 C :    0.143343
   2 N :   -0.239954
   3 C :   -0.045946
   4 C :   -0.012080
   5 C :   -0.122639
   6 C :   -0.152139
   7 C :    0.060173
   8 O :   -0.154844
   9 C :    0.361810
  10 F :   -0.105885
  11 F :   -0.105147
  12 F :   -0.085203
  13 C :    0.109245
  14 F :   -0.094546
  15 C :   -0.144930
  16 C :    0.005508
  17 N :   -0.135614
  18 C :   -0.072543
  19 C :   -0.133469
  20 C :   -0.123833
  21 C :    0.106254
  22 F :   -0.095224
  23 C :   -0.097907
  24 C :   -0.069832
  25 C :   -0.146352
  26 C :    0.080340
  27 O :   -0.323967
  28 N :   -0.094094
  29 C :   -0.044617
  30 H :    0.251455
  31 H :    0.152501
  32 H :    0.136984
  33 H :    0.145532
  34 H :    0.151962
  35 H :    0.139676
  36 H :    0.144207
  37 H :    0.153458
  38 H :    0.157251
  39 H :    0.158847
  40 H :    0.280836
  41 H :    0.147190

-------------------------------
LOEWDIN REDUCED ORBITAL CHARGES
-------------------------------
  0 O s       :     3.589742  s :     3.589742
      pz      :     1.441594  p :     4.646116
      px      :     1.551481
      py      :     1.653042
      dz2     :     0.018036  d :     0.049951
      dxz     :     0.010664
      dyz     :     0.015222
      dx2y2   :     0.002653
      dxy     :     0.003376

  1 C s       :     2.859844  s :     2.859844
      pz      :     0.964413  p :     2.764350
      px      :     0.886601
      py      :     0.913335
      dz2     :     0.054224  d :     0.232463
      dxz     :     0.050397
      dyz     :     0.063233
      dx2y2   :     0.037705
      dxy     :     0.026904

  2 N s       :     3.160880  s :     3.160880
      pz      :     1.394734  p :     4.011279
      px      :     1.352645
      py      :     1.263900
      dz2     :     0.011309  d :     0.067795
      dxz     :     0.010807
      dyz     :     0.014668
      dx2y2   :     0.013824
      dxy     :     0.017188

  3 C s       :     2.877383  s :     2.877383
      pz      :     1.072903  p :     3.037881
      px      :     0.958547
      py      :     1.006431
      dz2     :     0.032533  d :     0.130682
      dxz     :     0.022139
      dyz     :     0.013024
      dx2y2   :     0.033687
      dxy     :     0.029299

  4 C s       :     2.879682  s :     2.879682
      pz      :     1.059506  p :     3.032210
      px      :     1.002399
      py      :     0.970304
      dz2     :     0.027925  d :     0.100188
      dxz     :     0.029349
      dyz     :     0.018434
      dx2y2   :     0.010678
      dxy     :     0.013802

  5 C s       :     2.913635  s :     2.913635
      pz      :     1.065889  p :     3.124537
      px      :     1.046969
      py      :     1.011680
      dz2     :     0.020828  d :     0.084467
      dxz     :     0.027014
      dyz     :     0.013657
      dx2y2   :     0.011469
      dxy     :     0.011499

  6 C s       :     2.917189  s :     2.917189
      pz      :     1.065426  p :     3.152317
      px      :     1.051590
      py      :     1.035301
      dz2     :     0.019505  d :     0.082632
      dxz     :     0.023900
      dyz     :     0.012620
      dx2y2   :     0.013506
      dxy     :     0.013103

  7 C s       :     2.859972  s :     2.859972
      pz      :     1.066937  p :     2.927259
      px      :     0.892245
      py      :     0.968077
      dz2     :     0.035621  d :     0.152596
      dxz     :     0.035697
      dyz     :     0.022537
      dx2y2   :     0.028688
      dxy     :     0.030054

  8 O s       :     3.469742  s :     3.469742
      pz      :     1.482991  p :     4.627521
      px      :     1.503645
      py      :     1.640885
      dz2     :     0.016665  d :     0.057581
      dxz     :     0.010678
      dyz     :     0.009551
      dx2y2   :     0.010114
      dxy     :     0.010573

  9 C s       :     2.819467  s :     2.819467
      pz      :     0.832528  p :     2.440717
      px      :     0.801067
      py      :     0.807122
      dz2     :     0.068897  d :     0.378007
      dxz     :     0.064327
      dyz     :     0.093146
      dx2y2   :     0.061904
      dxy     :     0.089733

 10 F s       :     3.765391  s :     3.765391
      pz      :     1.743114  p :     5.309231
      px      :     1.890788
      py      :     1.675328
      dz2     :     0.004770  d :     0.031263
      dxz     :     0.002998
      dyz     :     0.013622
      dx2y2   :     0.005842
      dxy     :     0.004030

 11 F s       :     3.765780  s :     3.765780
      pz      :     1.852141  p :     5.308128
      px      :     1.724365
      py      :     1.731622
      dz2     :     0.003810  d :     0.031238
      dxz     :     0.005370
      dyz     :     0.005757
      dx2y2   :     0.004894
      dxy     :     0.011408

 12 F s       :     3.760442  s :     3.760442
      pz      :     1.893392  p :     5.294044
      px      :     1.592195
      py      :     1.808456
      dz2     :     0.004688  d :     0.030717
      dxz     :     0.004930
      dyz     :     0.001932
      dx2y2   :     0.007841
      dxy     :     0.011326

 13 C s       :     2.862569  s :     2.862569
      pz      :     0.885939  p :     2.851702
      px      :     0.947608
      py      :     1.018154
      dz2     :     0.048537  d :     0.176485
      dxz     :     0.052307
      dyz     :     0.031391
      dx2y2   :     0.022845
      dxy     :     0.021405

 14 F s       :     3.735673  s :     3.735673
      pz      :     1.679383  p :     5.323984
      px      :     1.757565
      py      :     1.887035
      dz2     :     0.008272  d :     0.034888
      dxz     :     0.012014
      dyz     :     0.006151
      dx2y2   :     0.004416
      dxy     :     0.004034

 15 C s       :     2.919523  s :     2.919523
      pz      :     1.078425  p :     3.144310
      px      :     1.036243
      py      :     1.029642
      dz2     :     0.022736  d :     0.081096
      dxz     :     0.018672
      dyz     :     0.010840
      dx2y2   :     0.013761
      dxy     :     0.015087

 16 C s       :     2.878517  s :     2.878517
      pz      :     1.006234  p :     2.979813
      px      :     0.959955
      py      :     1.013624
      dz2     :     0.041823  d :     0.136163
      dxz     :     0.018474
      dyz     :     0.052340
      dx2y2   :     0.012807
      dxy     :     0.010719

 17 N s       :     3.240338  s :     3.240338
      pz      :     1.323767  p :     3.816105
      px      :     1.133288
      py      :     1.359050
      dz2     :     0.026539  d :     0.079171
      dxz     :     0.011969
      dyz     :     0.016702
      dx2y2   :     0.012889
      dxy     :     0.011071

 18 C s       :     2.914737  s :     2.914737
      pz      :     1.076557  p :     3.035946
      px      :     0.952385
      py      :     1.007004
      dz2     :     0.032377  d :     0.121860
      dxz     :     0.005695
      dyz     :     0.043379
      dx2y2   :     0.022570
      dxy     :     0.017840

 19 C s       :     2.926101  s :     2.926101
      pz      :     1.065959  p :     3.122798
      px      :     0.978547
      py      :     1.078292
      dz2     :     0.026417  d :     0.084570
      dxz     :     0.012669
      dyz     :     0.029416
      dx2y2   :     0.010730
      dxy     :     0.005337

 20 C s       :     2.924348  s :     2.924348
      pz      :     1.081804  p :     3.117426
      px      :     0.975537
      py      :     1.060085
      dz2     :     0.021169  d :     0.082059
      dxz     :     0.009559
      dyz     :     0.031347
      dx2y2   :     0.011239
      dxy     :     0.008745

 21 C s       :     2.872746  s :     2.872746
      pz      :     0.790673  p :     2.843879
      px      :     0.988602
      py      :     1.064605
      dz2     :     0.060348  d :     0.177121
      dxz     :     0.030219
      dyz     :     0.059665
      dx2y2   :     0.013763
      dxy     :     0.013125

 22 F s       :     3.736403  s :     3.736403
      pz      :     1.535228  p :     5.323820
      px      :     1.890541
      py      :     1.898051
      dz2     :     0.015937  d :     0.035001
      dxz     :     0.009036
      dyz     :     0.008946
      dx2y2   :     0.000548
      dxy     :     0.000533

 23 C s       :     2.874495  s :     2.874495
      pz      :     1.028524  p :     3.125189
      px      :     1.046549
      py      :     1.050116
      dz2     :     0.028949  d :     0.098223
      dxz     :     0.023886
      dyz     :     0.021318
      dx2y2   :     0.010492
      dxy     :     0.013577

 24 C s       :     2.923548  s :     2.923548
      pz      :     1.098295  p :     3.059626
      px      :     0.991956
      py      :     0.969375
      dz2     :     0.025510  d :     0.086659
      dxz     :     0.016871
      dyz     :     0.014216
      dx2y2   :     0.015617
      dxy     :     0.014446

 25 C s       :     2.926971  s :     2.926971
      pz      :     1.046018  p :     3.137721
      px      :     1.050847
      py      :     1.040856
      dz2     :     0.027490  d :     0.081660
      dxz     :     0.020157
      dyz     :     0.017195
      dx2y2   :     0.005026
      dxy     :     0.011792

 26 C s       :     2.823461  s :     2.823461
      pz      :     1.036437  p :     2.839078
      px      :     0.907406
      py      :     0.895235
      dz2     :     0.074961  d :     0.257120
      dxz     :     0.050526
      dyz     :     0.041997
      dx2y2   :     0.040378
      dxy     :     0.049258

 27 O s       :     3.581849  s :     3.581849
      pz      :     1.655035  p :     4.691659
      px      :     1.506911
      py      :     1.529713
      dz2     :     0.008045  d :     0.050459
      dxz     :     0.014451
      dyz     :     0.010453
      dx2y2   :     0.008172
      dxy     :     0.009338

 28 N s       :     3.116526  s :     3.116526
      pz      :     1.203771  p :     3.890638
      px      :     1.320848
      py      :     1.366019
      dz2     :     0.025691  d :     0.086929
      dxz     :     0.016208
      dyz     :     0.014027
      dx2y2   :     0.015330
      dxy     :     0.015674

 29 C s       :     2.911950  s :     2.911950
      pz      :     1.045648  p :     3.014321
      px      :     0.985836
      py      :     0.982837
      dz2     :     0.026707  d :     0.118347
      dxz     :     0.034963
      dyz     :     0.030189
      dx2y2   :     0.010799
      dxy     :     0.015689

 30 H s       :     0.748545  s :     0.748545

 31 H s       :     0.847499  s :     0.847499

 32 H s       :     0.863016  s :     0.863016

 33 H s       :     0.854468  s :     0.854468

 34 H s       :     0.848038  s :     0.848038

 35 H s       :     0.860324  s :     0.860324

 36 H s       :     0.855793  s :     0.855793

 37 H s       :     0.846542  s :     0.846542

 38 H s       :     0.842749  s :     0.842749

 39 H s       :     0.841153  s :     0.841153

 40 H s       :     0.719164  s :     0.719164

 41 H s       :     0.852810  s :     0.852810



                      *****************************
                      * MAYER POPULATION ANALYSIS *
                      *****************************

  NA   - Mulliken gross atomic population
  ZA   - Total nuclear charge
  QA   - Mulliken gross atomic charge
  VA   - Mayer's total valence
  BVA  - Mayer's bonded valence
  FA   - Mayer's free valence

  ATOM       NA         ZA         QA         VA         BVA        FA
  0 O      8.4813     8.0000    -0.4813     2.0504     2.0504    -0.0000
  1 C      5.4897     6.0000     0.5103     3.9202     3.9202    -0.0000
  2 N      7.6496     7.0000    -0.6496     2.8825     2.8825    -0.0000
  3 C      6.0592     6.0000    -0.0592     3.7881     3.7881     0.0000
  4 C      5.8150     6.0000     0.1850     3.9008     3.9008     0.0000
  5 C      6.1597     6.0000    -0.1597     3.9264     3.9264    -0.0000
  6 C      6.1823     6.0000    -0.1823     3.8969     3.8969    -0.0000
  7 C      5.7194     6.0000     0.2806     3.7309     3.7309    -0.0000
  8 O      8.5378     8.0000    -0.5378     1.9592     1.9592     0.0000
  9 C      4.9109     6.0000     1.0891     3.9932     3.9932    -0.0000
 10 F      9.2922     9.0000    -0.2922     1.0643     1.0643    -0.0000
 11 F      9.2910     9.0000    -0.2910     1.0661     1.0661     0.0000
 12 F      9.2768     9.0000    -0.2768     1.0907     1.0907     0.0000
 13 C      5.6241     6.0000     0.3759     3.7942     3.7942     0.0000
 14 F      9.3064     9.0000    -0.3064     1.0587     1.0587    -0.0000
 15 C      6.2569     6.0000    -0.2569     3.8792     3.8792    -0.0000
 16 C      5.8381     6.0000     0.1619     3.8147     3.8147     0.0000
 17 N      7.4152     7.0000    -0.4152     2.9827     2.9827     0.0000
 18 C      5.9869     6.0000     0.0131     3.9153     3.9153    -0.0000
 19 C      6.1249     6.0000    -0.1249     3.9101     3.9101     0.0000
 20 C      6.1712     6.0000    -0.1712     3.8842     3.8842     0.0000
 21 C      5.6255     6.0000     0.3745     3.8063     3.8063    -0.0000
 22 F      9.3057     9.0000    -0.3057     1.0613     1.0613    -0.0000
 23 C      5.9757     6.0000     0.0243     3.9178     3.9178     0.0000
 24 C      6.1042     6.0000    -0.1042     3.8504     3.8504    -0.0000
 25 C      6.2068     6.0000    -0.2068     3.8568     3.8568     0.0000
 26 C      5.4472     6.0000     0.5528     3.9821     3.9821     0.0000
 27 O      8.5211     8.0000    -0.5211     2.0138     2.0138    -0.0000
 28 N      7.5791     7.0000    -0.5791     3.0979     3.0979    -0.0000
 29 C      5.9670     6.0000     0.0330     3.7585     3.7585     0.0000
 30 H      0.6722     1.0000     0.3278     0.8769     0.8769    -0.0000
 31 H      0.8115     1.0000     0.1885     0.9408     0.9408     0.0000
 32 H      0.8640     1.0000     0.1360     0.9517     0.9517    -0.0000
 33 H      0.8415     1.0000     0.1585     0.9493     0.9493    -0.0000
 34 H      0.8414     1.0000     0.1586     0.9384     0.9384    -0.0000
 35 H      0.8420     1.0000     0.1580     0.9306     0.9306    -0.0000
 36 H      0.8485     1.0000     0.1515     0.9353     0.9353     0.0000
 37 H      0.8336     1.0000     0.1664     0.9310     0.9310     0.0000
 38 H      0.8243     1.0000     0.1757     0.9383     0.9383     0.0000
 39 H      0.8329     1.0000     0.1671     0.9386     0.9386    -0.0000
 40 H      0.6444     1.0000     0.3556     0.8582     0.8582    -0.0000
 41 H      0.8229     1.0000     0.1771     0.9350     0.9350     0.0000

  Mayer bond orders larger than 0.100000
B(  0-O ,  1-C ) :   1.7998 B(  1-C ,  2-N ) :   1.0250 B(  1-C , 23-C ) :   1.0056 
B(  2-N ,  3-C ) :   0.9007 B(  2-N , 30-H ) :   0.8109 B(  3-C ,  4-C ) :   0.9491 
B(  3-C , 16-C ) :   0.9321 B(  3-C , 31-H ) :   0.9062 B(  4-C ,  5-C ) :   1.4193 
B(  4-C , 15-C ) :   1.4023 B(  5-C ,  6-C ) :   1.4334 B(  5-C , 32-H ) :   0.9150 
B(  6-C ,  7-C ) :   1.3812 B(  6-C , 33-H ) :   0.9094 B(  7-C ,  8-O ) :   0.8322 
B(  7-C , 13-C ) :   1.3279 B(  8-O ,  9-C ) :   0.9869 B(  9-C , 10-F ) :   0.9682 
B(  9-C , 11-F ) :   0.9684 B(  9-C , 12-F ) :   1.0100 B( 13-C , 14-F ) :   0.9394 
B( 13-C , 15-C ) :   1.3826 B( 15-C , 34-H ) :   0.9101 B( 16-C , 17-N ) :   1.3743 
B( 16-C , 21-C ) :   1.3314 B( 17-N , 18-C ) :   1.4268 B( 18-C , 19-C ) :   1.4192 
B( 18-C , 35-H ) :   0.9279 B( 19-C , 20-C ) :   1.4410 B( 19-C , 36-H ) :   0.9228 
B( 20-C , 21-C ) :   1.3877 B( 20-C , 37-H ) :   0.9160 B( 21-C , 22-F ) :   0.9238 
B( 23-C , 24-C ) :   1.2441 B( 23-C , 29-C ) :   1.5103 B( 24-C , 25-C ) :   1.5566 
B( 24-C , 38-H ) :   0.9107 B( 25-C , 26-C ) :   1.1868 B( 25-C , 39-H ) :   0.9251 
B( 26-C , 27-O ) :   1.7565 B( 26-C , 28-N ) :   0.9779 B( 28-N , 29-C ) :   1.1412 
B( 28-N , 40-H ) :   0.8112 B( 29-C , 41-H ) :   0.9096 

-------
TIMINGS
-------

Total SCF time: 0 days 0 hours 4 min 4 sec 

Total time                  ....     244.905 sec
Sum of individual times     ....     244.502 sec  ( 99.8%)

SCF preparation             ....       0.300 sec  (  0.1%)
Fock matrix formation       ....     242.156 sec  ( 98.9%)
  Startup                   ....       0.098 sec  (  0.0% of F)
  Split-RI-J                ....      30.856 sec  ( 12.7% of F)
  Chain of spheres X        ....     187.296 sec  ( 77.3% of F)
  XC integration            ....      23.059 sec  (  9.5% of F)
    XC Preparation          ....       0.000 sec  (  0.0% of XC)
    Basis function eval.    ....       8.962 sec  ( 38.9% of XC)
    Density eval.           ....       5.091 sec  ( 22.1% of XC)
    XC-Functional eval.     ....       1.073 sec  (  4.7% of XC)
    XC-Potential eval.      ....       6.267 sec  ( 27.2% of XC)
Diagonalization             ....       0.000 sec  (  0.0%)
Density matrix formation    ....       0.330 sec  (  0.1%)
Total Energy calculation    ....       0.147 sec  (  0.1%)
Population analysis         ....       0.060 sec  (  0.0%)
Orbital Transformation      ....       0.135 sec  (  0.1%)
Orbital Orthonormalization  ....       0.000 sec  (  0.0%)
DIIS solution               ....       0.627 sec  (  0.3%)
SOSCF solution              ....       0.747 sec  (  0.3%)
Finished LeanSCF after 245.0 sec

Maximum memory used throughout the entire LEANSCF-calculation: 67.1 MB

-------------------------   --------------------
FINAL SINGLE POINT ENERGY     -1619.514518424690
-------------------------   --------------------


------------------------------------------------------------------------------
                              ORCA PROPERTY CALCULATIONS
------------------------------------------------------------------------------

GBWName                                 ... /home/nmrbox/aojoawo/Documents/ERDOS/inputs/CHEMBL4243837.gbw
Number of atoms                         ...     42
Number of basis functions               ...    444
Max core memory                         ...   1024 MB

Electric properties:
Dipole moment                           ... YES
Quadrupole moment                       ...  NO
Static polarizability (Dipole/Dipole)   ...  NO
Static polarizability (Dipole/Quad.)    ...  NO
Static polarizability (Quad./Quad.)     ...  NO
Static polarizability (Velocity)        ...  NO

Atomic electric properties:
Dipole moment                           ...  NO
Quadrupole moment                       ...  NO
Static polarizability                   ...  NO

Choice of electric origin               ... Center of mass
Position of electric origin             ...    -1.033069     0.696278     0.442787

General magnetic properties:
Magnetizability                         ...  NO

EPR properties:
g-Tensor (aka g-matrix)                 ...  NO
Zero-Field splitting spin-orbit         ...  NO
Zero-field splitting spin-spin          ...  NO
Hyperfine couplings                     ...  NO (   0 nuclei)
Quadrupole couplings                    ...  NO (   0 nuclei)
Contact density                         ...  NO (   0 nuclei)

NMR properties:
Chemical shifts                         ...  NO (   0 nuclei)
Spin-rotation constants                 ...  NO (   0 nuclei)
Spin-spin couplings                     ...  NO (   0 nuclei,    0 pairs)

Choice of magnetic origin               ... GIAO
Position of magnetic origin             ...     0.000000     0.000000     0.000000

Properties with geometric perturbations:
SCF Hessian                             ...  NO
IR spectrum                             ...  NO
VCD spectrum                            ...  NO
X-ray spectroscopy properties:
SCF XES/XAS/RIXS spectra                ...  NO


-------------
DIPOLE MOMENT
-------------

Method             : SCF
Type of density    : Electron Density
Multiplicity       :   1
Irrep              :   0
Energy             : -1619.5145184246903227 Eh
Relativity type    : 
Basis              : AO
                                X                 Y                 Z
Electronic contribution:    -32.061152428      12.646564926       3.542730625
Nuclear contribution   :     31.750713135     -15.712717712      -4.372709748
                        -----------------------------------------
Total Dipole Moment    :     -0.310439294      -3.066152786      -0.829979123
                        -----------------------------------------
Magnitude (a.u.)       :      3.191634504
Magnitude (Debye)      :      8.112490198



--------------------
Rotational spectrum 
--------------------
 
Rotational constants in cm-1:             0.004660             0.003189             0.002255 
Rotational constants in MHz :           139.707120            95.606684            67.599759 

Dipole components along the rotational axes: 
x,y,z [a.u.] :    -0.190122    -2.544946    -1.916673 
x,y,z [Debye]:    -0.483252    -6.468739    -4.871795 

 

Dipole moment calculation done in   0.0 sec 

Maximum memory used throughout the entire PROP-calculation: 32.9 MB

--------------------------------
SUGGESTED CITATIONS FOR THIS RUN
--------------------------------

Below you find a list of papers that are relevant to this ORCA run
We neither can nor want to force you to cite these papers, but we appreciate if you do
You receive ORCA, which is the product of decades of hard work by many enthusiastic individuals, for free
The only thing we kindly ask in return is that you cite our papers,
We deeply appreciate it, if you show your appreciation for ORCA by not just citing the generic ORCA reference.

Please note that relegating all ORCA citations to the supporting information does *not* help us.
SI sections are not indexed - citations you put there will not count into any citation statistics
But we need these citations in order to attract the funding resources that allow us to do what we are doing

Therefore, if you are a happy ORCA user, please consider citing a few of the papers listed below in the main body of your paper

In addition to the list printed below, the program has created the file /home/nmrbox/aojoawo/Documents/ERDOS/inputs/CHEMBL4243837.bibtex that contains the list in bibtex format
You can import this file easily into all common literature databanks and citation aid programs


List of essential papers. We consider these as the minimum necessary citations

  1. Neese,F.
     Software update: the ORCA program system, version 5.0
     WIRES Comput. Molec. Sci., 2022 12(1)e1606
     doi.org/10.1002/wcms.1606

List of papers to cite with high priority. The work reported in these papers was absolutely
necessary for this run to complete.
Our perspective: the developers of density functionals and basis sets usually get cited in chemistry papers
Good! But without the algorithms to do something with them, the functionals or basis sets would not do anything.
Hence, in our opinion, the algorithm design and method developments papers are equally worthy of getting cited

  1. Neese,F.
     An improvement of the resolution of the identity approximation for the formation of the Coulomb matrix
     J. Comp. Chem., 2003 24(14)1740-1747
     doi.org/10.1002/jcc.10318
  2. Neese,F.; Wennmohs,F.; Hansen,A.; Becker,U.
     Efficient, approximate and parallel Hartree-Fock and hybrid DFT calculations. A 'chain-of-spheres' algorithm for the Hartree-Fock exchange
     Chem. Phys., 2009 356(1-3)98-109
     doi.org/10.1016/j.chemphys.2008.10.036
  3. Helmich-Paris,B.; de Souza,B.; Neese,F.; Izsák,R.
     An improved chain of spheres for exchange algorithm
     J. Chem. Phys., 2021 155 104109
     doi.org/doi: 10.1063/5.0058766.
  4. Neese,F.
     The SHARK Integral Generation and Digestion System
     J. Comp. Chem., 2022  1-16
     doi.org/10.1002/jcc.26942

List of suggested additional citations. These are papers that are important in the 'surrounding' of 
of this run, or papers that preceded the highly important papers. If you like your results we are grateful for a citation.

  1. Izsak,R.; Neese,F.
     An overlap fitted chain of spheres exchange method
     J. Chem. Phys., 2011 135 144105
     doi.org/10.1063/1.3646921
  2. Izsak,R.; Hansen,A.; Neese,F.
     The resolution of identity and chain of spheres approximations for the LPNO-CCSD singles Fock term
     Molec. Phys., 2012 110 2413-2417
     doi.org/10.1080/00268976.2012.687466
  3. Neese,F.
     The ORCA program system
     WIRES Comput. Molec. Sci., 2012 2(1)73-78
     doi.org/10.1002/wcms.81
  4. Izsak,R.; Neese,F.; Klopper,W.
     Robust fitting techniques in the chain of spheres approximation to the Fock exchange: The role of the complementary space
     J. Chem. Phys., 2013 139 
     doi.org/10.1063/1.4819264
  5. Neese,F.
     Software update: the ORCA program system, version 4.0
     WIRES Comput. Molec. Sci., 2018 8(1)1-6
     doi.org/10.1002/wcms.1327
  6. Neese,F.; Wennmohs,F.; Becker,U.; Riplinger,C.
     The ORCA quantum chemistry program package
     J. Chem. Phys., 2020 152 Art. No. L224108
     doi.org/10.1063/5.0004608

List of optional additional citations

  1. Neese,F.
     Approximate second-order SCF convergence for spin unrestricted wavefunctions
     Chem. Phys. Lett., 2000 325(1-3)93-98
     doi.org/10.1016/s0009-2614(00)00662-x

Timings for individual modules:

Sum of individual times          ...      255.518 sec (=   4.259 min)
Startup calculation              ...        7.030 sec (=   0.117 min)   2.8 %
SCF iterations                   ...      248.333 sec (=   4.139 min)  97.2 %
Property calculations            ...        0.156 sec (=   0.003 min)   0.1 %
                             ****ORCA TERMINATED NORMALLY****
TOTAL RUN TIME: 0 days 0 hours 4 minutes 16 seconds 317 msec
