
                                 *****************
                                 * O   R   C   A *
                                 *****************

                                            #,                                       
                                            ###                                      
                                            ####                                     
                                            #####                                    
                                            ######                                   
                                           ########,                                 
                                     ,,################,,,,,                         
                               ,,#################################,,                 
                          ,,##########################################,,             
                       ,#########################################, ''#####,          
                    ,#############################################,,   '####,        
                  ,##################################################,,,,####,       
                ,###########''''           ''''###############################       
              ,#####''   ,,,,##########,,,,          '''####'''          '####       
            ,##' ,,,,###########################,,,                        '##       
           ' ,,###''''                  '''############,,,                           
         ,,##''                                '''############,,,,        ,,,,,,###''
      ,#''                                            '''#######################'''  
     '                                                          ''''####''''         
             ,#######,   #######,   ,#######,      ##                                
            ,#'     '#,  ##    ##  ,#'     '#,    #''#        ,####,   ,####,        
            ##       ##  ##   ,#'  ##            #'  '#       #'       #'  '#        
            ##       ##  #######   ##           ,######,      #####,   #    #        
            '#,     ,#'  ##    ##  '#,     ,#' ,#      #,     #,   #   #,  ,#        
             '#######'   ##     ##  '#######'  #'      '#     '####' # '####'        



                #########################################################
                #                        -***-                          #
                #          Department of theory and spectroscopy        #
                #                                                       #
                #                      Frank Neese                      #
                #                                                       #
                #     Directorship, Architecture, Infrastructure        #
                #                    SHARK, DRIVERS                     #
                #        Core code/Algorithms in most modules           #
                #                                                       #
                #        Max Planck Institute fuer Kohlenforschung      #
                #                Kaiser Wilhelm Platz 1                 #
                #                 D-45470 Muelheim/Ruhr                 #
                #                      Germany                          #
                #                                                       #
                #                  All rights reserved                  #
                #                        -***-                          #
                #########################################################


                         Program Version 6.0.0  -   RELEASE  -


 With contributions from (in alphabetic order):
   Daniel Aravena         : Magnetic Suceptibility
   Michael Atanasov       : Ab Initio Ligand Field Theory (pilot matlab implementation)
   Alexander A. Auer      : GIAO ZORA, VPT2 properties, NMR spectrum
   Ute Becker             : All parallelization in ORCA, NUMFREQ, NUMCALC
   Giovanni Bistoni       : ED, misc. LED, open-shell LED, HFLD
   Martin Brehm           : Molecular dynamics
   Dmytro Bykov           : pre 5.0 version of the SCF Hessian
   Marcos Casanova-Páez   : Triplet and SCS-CIS(D). UHF-(DLPNO)-IP/EA/STEOM-CCSD. UHF-CVS-IP/STEOM-CCSD
   Vijay G. Chilkuri      : MRCI spin determinant printing, contributions to CSF-ICE
   Pauline Colinet        : FMM embedding
   Dipayan Datta          : RHF DLPNO-CCSD density
   Achintya Kumar Dutta   : EOM-CC, STEOM-CC
   Nicolas Foglia         : Exact transition moments, OPA infrastructure, MCD improvements
   Dmitry Ganyushin       : Spin-Orbit,Spin-Spin,Magnetic field MRCI
   Miquel Garcia          : C-PCM and meta-GGA Hessian, CCSD/C-PCM, Gaussian charge scheme
   Tiago L. C. Gouveia    : GS-ROHF, GS-ROCIS
   Yang Guo               : DLPNO-NEVPT2, F12-NEVPT2, CIM, IAO-localization
   Andreas Hansen         : Spin unrestricted coupled pair/coupled cluster methods
   Ingolf Harden          : AUTO-CI MPn and infrastructure 
   Benjamin Helmich-Paris : MC-RPA, TRAH-(SCF,CASSCF), AVAS, COSX integrals, SCF dyn. polar.
   Lee Huntington         : MR-EOM, pCC
   Robert Izsak           : Overlap fitted RIJCOSX, COSX-SCS-MP3, EOM
   Riya Kayal             : Wick's Theorem for AUTO-CI, AUTO-CI UHF-CCSDT
   Emily Kempfer          : AUTO-CI, RHF CISDT and CCSDT
   Christian Kollmar      : KDIIS, OOCD, Brueckner-CCSD(T), CCSD density, CASPT2, CASPT2-K, improved NEVPT2
   Axel Koslowski         : Symmetry handling
   Simone Kossmann        : Meta GGA functionals, TD-DFT gradient, OOMP2, (MP2 Hessian; deprecated post 5.0)
   Lucas Lang             : DCDCAS
   Marvin Lechner         : AUTO-CI (C++ implementation), FIC-MRCC
   Spencer Leger          : CASSCF response
   Dagmar Lenk            : GEPOL surface, SMD, ORCA-2-JSON
   Dimitrios Liakos       : Extrapolation schemes; Compound Job, initial MDCI parallelization
   Dimitrios Manganas     : Further ROCIS development; embedding schemes. LFT, Crystal Embedding
   Dimitrios Pantazis     : SARC Basis sets
   Anastasios Papadopoulos: AUTO-CI, single reference methods and gradients
   Taras Petrenko         : pre 6.0 DFT Hessian and TD-DFT gradient, (ASA, deprecated), ECA, 1-Electron XAS/XES, NRVS
   Peter Pinski           : DLPNO-MP2, DLPNO-MP2 Gradient
   Christoph Reimann      : Effective Core Potentials
   Marius Retegan         : Local ZFS, SOC
   Christoph Riplinger    : Optimizer, TS searches, QM/MM, DLPNO-CCSD(T), (RO)-DLPNO pert. Triples
   Michael Roemelt        : Original ROCIS implementation
   Masaaki Saitow         : Open-shell DLPNO-CCSD energy and density
   Barbara Sandhoefer     : DKH picture change effects
   Kantharuban Sivalingam : CASSCF convergence/infrastructure, NEVPT2 and variants, FIC-MRCI
   Bernardo de Souza      : ESD, SOC TD-DFT
   Georgi Stoychev        : AutoAux, RI-MP2 NMR, DLPNO-MP2 response, X2C
   Van Anh Tran           : RI-MP2 g-tensors
   Willem Van den Heuvel  : Paramagnetic NMR
   Zikuan Wang            : NOTCH, Electric field optimization 
   Frank Wennmohs         : Technical directorship and infrastructure
   Hang Xu                : AUTO-CI-Response properties 


 We gratefully acknowledge several colleagues who have allowed us to
 interface, adapt or use parts of their codes:
   Stefan Grimme, W. Hujo, H. Kruse, P. Pracht,  : VdW corrections, initial TS optimization,
                  C. Bannwarth, S. Ehlert,         DFT functionals, gCP, sTDA/sTD-DF
                  L. Wittmann, M. Mueller
   Ed Valeev, F. Pavosevic, A. Kumar             : LibInt (2-el integral package), F12 methods
   Garnet Chan, S. Sharma, J. Yang, R. Olivares  : DMRG
   Ulf Ekstrom                                   : XCFun DFT Library
   Mihaly Kallay                                 : mrcc  (arbitrary order and MRCC methods)
   Frank Weinhold                                : gennbo (NPA and NBO analysis)
   Simon Mueller                                 : openCOSMO-RS
   Christopher J. Cramer and Donald G. Truhlar   : smd solvation model
   Lars Goerigk                                  : TD-DFT with DH, B97 family of functionals
   V. Asgeirsson, H. Jonsson                     : NEB implementation
   FAccTs GmbH                                   : IRC, NEB, NEB-TS, DLPNO-Multilevel, CI-OPT
                                                   MM, QMMM, 2- and 3-layer-ONIOM, Crystal-QMMM,
                                                   LR-CPCM, SF, NACMEs, symmetry and pop. for TD-DFT,
                                                   nearIR, NL-DFT gradient (VV10), updates on ESD,
                                                   ML-optimized integration grids, MBIS, APM,
                                                   GOAT, DOCKER, SOLVATOR, interface openCOSMO-RS
   S Lehtola, MJT Oliveira, MAL Marques          : LibXC Library
   Liviu Ungur et al                             : ANISO software


 Your calculation uses the libint2 library for the computation of 2-el integrals
 For citations please refer to: http://libint.valeyev.net

 Your ORCA version has been built with support for libXC version: 6.2.2
 For citations please refer to: https://libxc.gitlab.io

 This ORCA versions uses:
   CBLAS   interface :  Fast vector & matrix operations
   LAPACKE interface :  Fast linear algebra routines
   SCALAPACK package :  Parallel linear algebra routines
   Shared memory     :  Shared parallel matrices
   BLAS/LAPACK       :  OpenBLAS 0.3.27  USE64BITINT DYNAMIC_ARCH NO_AFFINITY SkylakeX SINGLE_THREADED
        Core in use  :  SkylakeX
   Copyright (c) 2011-2014, The OpenBLAS Project


Warning: RI is on but no J-basis has been assigned. Assigning Def2/J (nothing to worry about!)
================================================================================

----- Orbital basis set information -----
Your calculation utilizes the basis: 6-31G*
   H-He, Li-Ne : W. J. Hehre, R. Ditchfield and J.A. Pople, J. Chem. Phys. 56, 2257 (1972).
                 Note: He and Ne are unpublished basis sets taken from the Gaussian program.
                 Note: Li and B from J. D. Dill and J. A. Pople, J. Chem. Phys. 62, 2921 (1975).
   Na - Ar     : M. M. Francl, W. J. Pietro, W. J. Hehre, J. S. Binkley, M. S. Gordon, 
                 D. J. DeFrees and J. A. Pople, J. Chem. Phys. 77, 3654 (1982).
   K - Zn      : V. A. Rassolov, J. A. Pople, M. A. Ratner, and T. L. Windus, J. Chem. Phys. 109, 1223 (1998).

----- AuxJ basis set information -----
Your calculation utilizes the auxiliary basis: def2/J
   F. Weigend, Phys. Chem. Chem. Phys. 8, 1057 (2006).

================================================================================
                                        WARNINGS
                       Please study these warnings very carefully!
================================================================================


================================================================================
                                       INPUT FILE
================================================================================
NAME = /home/nmrbox/aojoawo/Documents/ERDOS/inputs/CHEMBL3951379.inp
|  1> ! B3LYP 6-31G* SP
|  2> 
|  3> * xyz 0 1
|  4> C -2.5213 2.4728 -2.2132
|  5> N -2.9495 1.4883 -1.1995
|  6> C -2.2998 1.4299 0.0025
|  7> O -1.3514 2.2308 0.2187
|  8> C -2.6824 0.4857 0.9863
|  9> C -2.0594 0.3865 2.2792
| 10> C -0.8979 1.2480 2.7472
| 11> C 0.3948 0.8184 2.1128
| 12> O 1.1155 1.6793 1.5393
| 13> N 0.8274 -0.5481 2.2075
| 14> C 1.9528 -1.0755 1.4946
| 15> N 2.6941 -0.3666 0.6171
| 16> C 3.6925 -1.1125 0.0654
| 17> C 4.6358 -0.5279 -0.9250
| 18> C 5.5205 -1.3343 -1.6692
| 19> C 6.3951 -0.7601 -2.5962
| 20> C 6.4000 0.6214 -2.7976
| 21> F 7.2534 1.1655 -3.7009
| 22> C 5.5245 1.4350 -2.0712
| 23> Cl 5.5190 3.1731 -2.3189
| 24> C 4.6472 0.8640 -1.1422
| 25> C 3.7378 -2.4364 0.5191
| 26> S 2.4922 -2.6577 1.6285
| 27> C -2.5119 -0.5860 3.1852
| 28> C -3.5493 -1.4418 2.8579
| 29> C -4.1600 -1.3581 1.6164
| 30> C -3.7455 -0.4048 0.6556
| 31> N -4.3481 -0.3406 -0.5840
| 32> C -5.4376 -1.2772 -0.9394
| 33> C -3.9378 0.5929 -1.5021
| 34> O -4.4745 0.6289 -2.6465
| 35> H -1.7031 2.0424 -2.8281
| 36> H -2.1668 3.4136 -1.7402
| 37> H -3.3614 2.7669 -2.8779
| 38> H -0.7674 1.1748 3.8487
| 39> H -1.1070 2.3228 2.5673
| 40> H 0.2880 -1.2034 2.8160
| 41> H 5.5358 -2.4084 -1.5535
| 42> H 7.0688 -1.3904 -3.1625
| 43> H 3.9800 1.5126 -0.5880
| 44> H 4.4478 -3.1997 0.2354
| 45> H -2.0530 -0.6903 4.1611
| 46> H -3.8816 -2.1830 3.5739
| 47> H -4.9603 -2.0579 1.4256
| 48> H -6.2935 -1.1432 -0.2440
| 49> H -5.0678 -2.3237 -0.8913
| 50> H -5.8346 -1.1261 -1.9640
| 51> *
| 52> 
| 53>                          ****END OF INPUT****
================================================================================

                       ****************************
                       * Single Point Calculation *
                       ****************************

---------------------------------
CARTESIAN COORDINATES (ANGSTROEM)
---------------------------------
  C     -2.521300    2.472800   -2.213200
  N     -2.949500    1.488300   -1.199500
  C     -2.299800    1.429900    0.002500
  O     -1.351400    2.230800    0.218700
  C     -2.682400    0.485700    0.986300
  C     -2.059400    0.386500    2.279200
  C     -0.897900    1.248000    2.747200
  C      0.394800    0.818400    2.112800
  O      1.115500    1.679300    1.539300
  N      0.827400   -0.548100    2.207500
  C      1.952800   -1.075500    1.494600
  N      2.694100   -0.366600    0.617100
  C      3.692500   -1.112500    0.065400
  C      4.635800   -0.527900   -0.925000
  C      5.520500   -1.334300   -1.669200
  C      6.395100   -0.760100   -2.596200
  C      6.400000    0.621400   -2.797600
  F      7.253400    1.165500   -3.700900
  C      5.524500    1.435000   -2.071200
  Cl     5.519000    3.173100   -2.318900
  C      4.647200    0.864000   -1.142200
  C      3.737800   -2.436400    0.519100
  S      2.492200   -2.657700    1.628500
  C     -2.511900   -0.586000    3.185200
  C     -3.549300   -1.441800    2.857900
  C     -4.160000   -1.358100    1.616400
  C     -3.745500   -0.404800    0.655600
  N     -4.348100   -0.340600   -0.584000
  C     -5.437600   -1.277200   -0.939400
  C     -3.937800    0.592900   -1.502100
  O     -4.474500    0.628900   -2.646500
  H     -1.703100    2.042400   -2.828100
  H     -2.166800    3.413600   -1.740200
  H     -3.361400    2.766900   -2.877900
  H     -0.767400    1.174800    3.848700
  H     -1.107000    2.322800    2.567300
  H      0.288000   -1.203400    2.816000
  H      5.535800   -2.408400   -1.553500
  H      7.068800   -1.390400   -3.162500
  H      3.980000    1.512600   -0.588000
  H      4.447800   -3.199700    0.235400
  H     -2.053000   -0.690300    4.161100
  H     -3.881600   -2.183000    3.573900
  H     -4.960300   -2.057900    1.425600
  H     -6.293500   -1.143200   -0.244000
  H     -5.067800   -2.323700   -0.891300
  H     -5.834600   -1.126100   -1.964000

----------------------------
CARTESIAN COORDINATES (A.U.)
----------------------------
  NO LB      ZA    FRAG     MASS         X           Y           Z
   0 C     6.0000    0    12.011   -4.764567    4.672915   -4.182342
   1 N     7.0000    0    14.007   -5.573747    2.812479   -2.266726
   2 C     6.0000    0    12.011   -4.345992    2.702119    0.004724
   3 O     8.0000    0    15.999   -2.553776    4.215601    0.413283
   4 C     6.0000    0    12.011   -5.069001    0.917840    1.863837
   5 C     6.0000    0    12.011   -3.891702    0.730379    4.307064
   6 C     6.0000    0    12.011   -1.696785    2.358378    5.191456
   7 C     6.0000    0    12.011    0.746064    1.546552    3.992613
   8 O     8.0000    0    15.999    2.107990    3.173417    2.908855
   9 N     7.0000    0    14.007    1.563559   -1.035759    4.171570
  10 C     6.0000    0    12.011    3.690257   -2.032400    2.824385
  11 N     7.0000    0    14.007    5.091111   -0.692774    1.166150
  12 C     6.0000    0    12.011    6.977814   -2.102320    0.123588
  13 C     6.0000    0    12.011    8.760392   -0.997586   -1.747997
  14 C     6.0000    0    12.011   10.432233   -2.521462   -3.154331
  15 C     6.0000    0    12.011   12.084988   -1.436381   -4.906107
  16 C     6.0000    0    12.011   12.094247    1.174276   -5.286698
  17 F     9.0000    0    18.998   13.706940    2.202476   -6.993687
  18 C     6.0000    0    12.011   10.439792    2.711757   -3.914001
  19 Cl   17.0000    0    35.453   10.429399    5.996290   -4.382086
  20 C     6.0000    0    12.011    8.781935    1.632723   -2.158445
  21 C     6.0000    0    12.011    7.063418   -4.604129    0.980957
  22 S    16.0000    0    32.060    4.709575   -5.022325    3.077419
  23 C     6.0000    0    12.011   -4.746803   -1.107380    6.019156
  24 C     6.0000    0    12.011   -6.707205   -2.724607    5.400648
  25 C     6.0000    0    12.011   -7.861261   -2.566437    3.054553
  26 C     6.0000    0    12.011   -7.077969   -0.764961    1.238904
  27 N     7.0000    0    14.007   -8.216718   -0.643641   -1.103600
  28 C     6.0000    0    12.011  -10.275575   -2.413558   -1.775209
  29 C     6.0000    0    12.011   -7.441364    1.120419   -2.838558
  30 O     8.0000    0    15.999   -8.455580    1.188449   -5.001160
  31 H     1.0000    0     1.008   -3.218393    3.859577   -5.344334
  32 H     1.0000    0     1.008   -4.094659    6.450769   -3.288501
  33 H     1.0000    0     1.008   -6.352125    5.228683   -5.438443
  34 H     1.0000    0     1.008   -1.450176    2.220050    7.272989
  35 H     1.0000    0     1.008   -2.091927    4.389456    4.851494
  36 H     1.0000    0     1.008    0.544241   -2.274096    5.321469
  37 H     1.0000    0     1.008   10.461146   -4.551216   -2.935690
  38 H     1.0000    0     1.008   13.358096   -2.627475   -5.976259
  39 H     1.0000    0     1.008    7.521110    2.858400   -1.111159
  40 H     1.0000    0     1.008    8.405124   -6.046557    0.444842
  41 H     1.0000    0     1.008   -3.879608   -1.304478    7.863339
  42 H     1.0000    0     1.008   -7.335161   -4.125272    6.753692
  43 H     1.0000    0     1.008   -9.373609   -3.888867    2.693994
  44 H     1.0000    0     1.008  -11.892991   -2.160335   -0.461093
  45 H     1.0000    0     1.008   -9.576754   -4.391157   -1.684313
  46 H     1.0000    0     1.008  -11.025796   -2.128021   -3.711422

--------------------------------
INTERNAL COORDINATES (ANGSTROEM)
--------------------------------
 C      0   0   0     0.000000000000     0.00000000     0.00000000
 N      1   0   0     1.476544337296     0.00000000     0.00000000
 C      2   1   0     1.367598131762   119.61091052     0.00000000
 O      3   2   1     1.260018178440   118.76654378     0.50900953
 C      3   2   1     1.416248156221   120.70840701   180.63927124
 C      5   3   2     1.438596555675   123.59238810   181.19794360
 C      6   5   3     1.519963321926   124.65017829   358.45206320
 C      7   6   5     1.502695181998   111.42903942   284.74378569
 O      8   7   6     1.260737700713   119.24790377   128.47256983
 N      8   7   6     1.436465488621   120.21195037   305.97920588
 C     10   8   7     1.432795285447   123.63542235   171.86892705
 N     11  10   8     1.349841157322   124.15916869   357.12779414
 C     12  11  10     1.362916820646   112.21145217   180.89764804
 C     13  12  11     1.487435447339   121.26513451   180.28629387
 C     14  13  12     1.409542014273   121.65075530   191.00194848
 C     15  14  13     1.397841121158   120.51978895   179.85201259
 C     16  15  14     1.396111822169   120.28753928   359.86582701
 F     17  16  15     1.356571877933   119.67974482   180.03733742
 C     17  16  15     1.398607225064   119.90163513   359.86787309
 Cl    19  17  16     1.755670000313   120.30378929   180.14999526
 C     19  17  16     1.399548959487   119.98737698     0.12675937
 C     13  12  11     1.400216765362   114.20427052   359.97561020
 S     11  10   8     1.676972990242   124.06992214   178.28580693
 C      6   5   3     1.404047185817   119.21705957   180.04277840
 C     24   6   5     1.384094537956   121.14678431   359.60434774
 C     25  24   6     1.386103325874   120.31097990     0.36805611
 C     26  25  24     1.415530918066   121.30530756     0.00000000
 N     27  26  25     1.379803087401   120.87971961   179.15608350
 C     28  27  26     1.480046948580   120.51548446   359.54804154
 C      2   1   3     1.367495817178   119.62004076   183.86484256
 O     30   2   1     1.264513443978   119.23289581   359.61370906
 H      1   2   3     1.110314104207   109.59999528    86.80595132
 H      1   2   3     1.111082305682   111.39742336   325.84352394
 H      1   2   3     1.110895544144   111.59200852   207.86922799
 H      7   6   5     1.111616273720   110.94595161   165.16562962
 H      7   6   5     1.109631407270   110.79833886    49.83781254
 H     10   8   7     1.044338403009   118.67116847   352.86844461
 H     15  14  13     1.080421857424   121.40619938     0.70971795
 H     16  15  14     1.082518115322   119.81067607   180.08084990
 H     21  19  17     1.083039906929   118.78314655   179.79384387
 H     22  13  12     1.080376128948   127.16992389   181.09439280
 H     24   6   5     1.083442896511   120.75715829   179.28192190
 H     25  24   6     1.082800410971   119.79498794   180.07648081
 H     26  25  24     1.080094796766   116.45874679   179.80393873
 H     29  28  27     1.110901422269   109.90763872    60.96145518
 H     29  28  27     1.110958100020   109.91794208   299.68215841
 H     29  28  27     1.109164266464   113.52137366   180.26450286

---------------------------
INTERNAL COORDINATES (A.U.)
---------------------------
 C      0   0   0     0.000000000000     0.00000000     0.00000000
 N      1   0   0     2.790264422081     0.00000000     0.00000000
 C      2   1   0     2.584385930293   119.61091052     0.00000000
 O      3   2   1     2.381089281014   118.76654378     0.50900953
 C      3   2   1     2.676321152929   120.70840701   180.63927124
 C      5   3   2     2.718553507428   123.59238810   181.19794360
 C      6   5   3     2.872314412045   124.65017829   358.45206320
 C      7   6   5     2.839682356739   111.42903942   284.74378569
 O      8   7   6     2.382448981058   119.24790377   128.47256983
 N      8   7   6     2.714526374324   120.21195037   305.97920588
 C     10   8   7     2.707590695469   123.63542235   171.86892705
 N     11  10   8     2.550830111634   124.15916869   357.12779414
 C     12  11  10     2.575539534336   112.21145217   180.89764804
 C     13  12  11     2.810845637357   121.26513451   180.28629387
 C     14  13  12     2.663648381231   121.65075530   191.00194848
 C     15  14  13     2.641536897722   120.51978895   179.85201259
 C     16  15  14     2.638268996229   120.28753928   359.86582701
 F     17  16  15     2.563549330274   119.67974482   180.03733742
 C     17  16  15     2.642984624294   119.90163513   359.86787309
 Cl    19  17  16     3.317735482134   120.30378929   180.14999526
 C     19  17  16     2.644764244444   119.98737698     0.12675937
 C     13  12  11     2.646026214659   114.20427052   359.97561020
 S     11  10   8     3.169019685540   124.06992214   178.28580693
 C      6   5   3     2.653264660297   119.21705957   180.04277840
 C     24   6   5     2.615559620193   121.14678431   359.60434774
 C     25  24   6     2.619355679220   120.31097990     0.36805611
 C     26  25  24     2.674965769242   121.30530756     0.00000000
 N     27  26  25     2.607449953926   120.87971961   179.15608350
 C     28  27  26     2.796883398161   120.51548446   359.54804154
 C      2   1   3     2.584192583750   119.62004076   183.86484256
 O     30   2   1     2.389584101779   119.23289581   359.61370906
 H      1   2   3     2.098189579580   109.59999528    86.80595132
 H      1   2   3     2.099641269985   111.39742336   325.84352394
 H      1   2   3     2.099288341826   111.59200852   207.86922799
 H      7   6   5     2.100650323342   110.94595161   165.16562962
 H      7   6   5     2.096899469338   110.79833886    49.83781254
 H     10   8   7     1.973513572824   118.67116847   352.86844461
 H     15  14  13     2.041701419634   121.40619938     0.70971795
 H     16  15  14     2.045662772967   119.81067607   180.08084990
 H     21  19  17     2.046648816203   118.78314655   179.79384387
 H     22  13  12     2.041615005337   127.16992389   181.09439280
 H     24   6   5     2.047410356148   120.75715829   179.28192190
 H     25  24   6     2.046196234433   119.79498794   180.07648081
 H     26  25  24     2.041083364560   116.45874679   179.80393873
 H     29  28  27     2.099299449873   109.90763872    60.96145518
 H     29  28  27     2.099406555299   109.91794208   299.68215841
 H     29  28  27     2.096016701148   113.52137366   180.26450286

---------------------
BASIS SET INFORMATION
---------------------
There are 7 groups of distinct atoms

 Group   1 Type C   : 10s4p1d contracted to 3s2p1d pattern {631/31/1}
 Group   2 Type N   : 10s4p1d contracted to 3s2p1d pattern {631/31/1}
 Group   3 Type O   : 10s4p1d contracted to 3s2p1d pattern {631/31/1}
 Group   4 Type F   : 10s4p1d contracted to 3s2p1d pattern {631/31/1}
 Group   5 Type Cl  : 16s10p1d contracted to 4s3p1d pattern {6631/631/1}
 Group   6 Type S   : 16s10p1d contracted to 4s3p1d pattern {6631/631/1}
 Group   7 Type H   : 4s contracted to 2s pattern {31}

Atom   0C    basis set group =>   1
Atom   1N    basis set group =>   2
Atom   2C    basis set group =>   1
Atom   3O    basis set group =>   3
Atom   4C    basis set group =>   1
Atom   5C    basis set group =>   1
Atom   6C    basis set group =>   1
Atom   7C    basis set group =>   1
Atom   8O    basis set group =>   3
Atom   9N    basis set group =>   2
Atom  10C    basis set group =>   1
Atom  11N    basis set group =>   2
Atom  12C    basis set group =>   1
Atom  13C    basis set group =>   1
Atom  14C    basis set group =>   1
Atom  15C    basis set group =>   1
Atom  16C    basis set group =>   1
Atom  17F    basis set group =>   4
Atom  18C    basis set group =>   1
Atom  19Cl   basis set group =>   5
Atom  20C    basis set group =>   1
Atom  21C    basis set group =>   1
Atom  22S    basis set group =>   6
Atom  23C    basis set group =>   1
Atom  24C    basis set group =>   1
Atom  25C    basis set group =>   1
Atom  26C    basis set group =>   1
Atom  27N    basis set group =>   2
Atom  28C    basis set group =>   1
Atom  29C    basis set group =>   1
Atom  30O    basis set group =>   3
Atom  31H    basis set group =>   7
Atom  32H    basis set group =>   7
Atom  33H    basis set group =>   7
Atom  34H    basis set group =>   7
Atom  35H    basis set group =>   7
Atom  36H    basis set group =>   7
Atom  37H    basis set group =>   7
Atom  38H    basis set group =>   7
Atom  39H    basis set group =>   7
Atom  40H    basis set group =>   7
Atom  41H    basis set group =>   7
Atom  42H    basis set group =>   7
Atom  43H    basis set group =>   7
Atom  44H    basis set group =>   7
Atom  45H    basis set group =>   7
Atom  46H    basis set group =>   7
---------------------------------
AUXILIARY/J BASIS SET INFORMATION
---------------------------------
There are 7 groups of distinct atoms

 Group   1 Type C   : 12s5p4d2f1g contracted to 6s4p3d1f1g pattern {711111/2111/211/2/1}
 Group   2 Type N   : 12s5p4d2f1g contracted to 6s4p3d1f1g pattern {711111/2111/211/2/1}
 Group   3 Type O   : 12s5p4d2f1g contracted to 6s4p3d1f1g pattern {711111/2111/211/2/1}
 Group   4 Type F   : 12s5p4d2f1g contracted to 6s4p3d1f1g pattern {711111/2111/211/2/1}
 Group   5 Type Cl  : 14s5p5d2f1g contracted to 8s4p3d1f1g pattern {71111111/2111/311/2/1}
 Group   6 Type S   : 14s5p5d2f1g contracted to 8s4p3d1f1g pattern {71111111/2111/311/2/1}
 Group   7 Type H   : 5s2p1d contracted to 3s1p1d pattern {311/2/1}

Atom   0C    basis set group =>   1
Atom   1N    basis set group =>   2
Atom   2C    basis set group =>   1
Atom   3O    basis set group =>   3
Atom   4C    basis set group =>   1
Atom   5C    basis set group =>   1
Atom   6C    basis set group =>   1
Atom   7C    basis set group =>   1
Atom   8O    basis set group =>   3
Atom   9N    basis set group =>   2
Atom  10C    basis set group =>   1
Atom  11N    basis set group =>   2
Atom  12C    basis set group =>   1
Atom  13C    basis set group =>   1
Atom  14C    basis set group =>   1
Atom  15C    basis set group =>   1
Atom  16C    basis set group =>   1
Atom  17F    basis set group =>   4
Atom  18C    basis set group =>   1
Atom  19Cl   basis set group =>   5
Atom  20C    basis set group =>   1
Atom  21C    basis set group =>   1
Atom  22S    basis set group =>   6
Atom  23C    basis set group =>   1
Atom  24C    basis set group =>   1
Atom  25C    basis set group =>   1
Atom  26C    basis set group =>   1
Atom  27N    basis set group =>   2
Atom  28C    basis set group =>   1
Atom  29C    basis set group =>   1
Atom  30O    basis set group =>   3
Atom  31H    basis set group =>   7
Atom  32H    basis set group =>   7
Atom  33H    basis set group =>   7
Atom  34H    basis set group =>   7
Atom  35H    basis set group =>   7
Atom  36H    basis set group =>   7
Atom  37H    basis set group =>   7
Atom  38H    basis set group =>   7
Atom  39H    basis set group =>   7
Atom  40H    basis set group =>   7
Atom  41H    basis set group =>   7
Atom  42H    basis set group =>   7
Atom  43H    basis set group =>   7
Atom  44H    basis set group =>   7
Atom  45H    basis set group =>   7
Atom  46H    basis set group =>   7
------------------------------------------------------------------------------
                             ORCA STARTUP CALCULATIONS
                           -- RI-GTO INTEGRALS CHOSEN --
------------------------------------------------------------------------------
------------------------------------------------------------------------------
                   ___                                                        
                  /   \      - P O W E R E D   B Y -                         
                 /     \                                                     
                 |  |  |   _    _      __       _____    __    __             
                 |  |  |  | |  | |    /  \     |  _  \  |  |  /  |          
                  \  \/   | |  | |   /    \    | | | |  |  | /  /          
                 / \  \   | |__| |  /  /\  \   | |_| |  |  |/  /          
                |  |  |   |  __  | /  /__\  \  |    /   |      \           
                |  |  |   | |  | | |   __   |  |    \   |  |\   \          
                \     /   | |  | | |  |  |  |  | |\  \  |  | \   \       
                 \___/    |_|  |_| |__|  |__|  |_| \__\ |__|  \__/        
                                                                              
                      - O R C A' S   B I G   F R I E N D -                    
                                      &                                       
                       - I N T E G R A L  F E E D E R -                       
                                                                              
 v1 FN, 2020, v2 2021, v3 2022-2024                                           
------------------------------------------------------------------------------


----------------------
SHARK INTEGRAL PACKAGE
----------------------

Number of atoms                             ...     47
Number of basis functions                   ...    474
Number of shells                            ...    222
Maximum angular momentum                    ...      2
Integral batch strategy                     ... SHARK/LIBINT Hybrid
RI-J (if used) integral strategy            ... SPLIT-RIJ (Revised 2003 algorithm where possible)
Printlevel                                  ...      1
Contraction scheme used                     ... SEGMENTED contraction
Prescreening option                         ... SCHWARTZ
   Thresh                                   ... 1.000e-10
   Tcut                                     ... 1.000e-11
   Tpresel                                  ... 1.000e-11 
Coulomb Range Separation                    ... NOT USED
Exchange Range Separation                   ... NOT USED
Multipole approximations                    ... NOT USED
Finite Nucleus Model                        ... NOT USED
CABS basis                                  ... NOT available
Auxiliary Coulomb fitting basis             ... AVAILABLE
   # of basis functions in Aux-J            ...   1699
   # of shells in Aux-J                     ...    549
   Maximum angular momentum in Aux-J        ...      4
Auxiliary J/K fitting basis                 ... NOT available
Auxiliary Correlation fitting basis         ... NOT available
Auxiliary 'external' fitting basis          ... NOT available

Checking pre-screening integrals            ... done (  0.0 sec) Dimension = 222
Check shell pair data                       ... done (  0.0 sec)
Shell pair information
Shell pair cut-off parameter TPreSel        ...   1.0e-11
Total number of shell pairs                 ...     24753
Shell pairs after pre-screening             ...     13372
Total number of primitive shell pairs       ...    153940
Primitive shell pairs kept                  ...     42504
          la=0 lb=0:   4082 shell pairs
          la=1 lb=0:   4756 shell pairs
          la=1 lb=1:   1409 shell pairs
          la=2 lb=0:   1805 shell pairs
          la=2 lb=1:   1109 shell pairs
          la=2 lb=2:    211 shell pairs

Calculating one electron integrals          ... done (  0.2 sec)
Calculating RI/J V-Matrix + Cholesky decomp.... done (  0.4 sec)
Calculating Nuclear repulsion               ... done (  0.0 sec) ENN=   3204.643882326272 Eh

Diagonalization of the overlap matrix:
Smallest eigenvalue                        ... 3.372e-04
Time for diagonalization                   ...    0.043 sec
Threshold for overlap eigenvalues          ... 1.000e-07
Number of eigenvalues below threshold      ... 0
Time for construction of square roots      ...    0.093 sec
Total time needed                          ...    0.225 sec

-------------------
DFT GRID GENERATION
-------------------

General Integration Accuracy     IntAcc      ... 4.388
Radial Grid Type                 RadialGrid  ... OptM3 with GC (2021)
Angular Grid (max. ang.)         AngularGrid ... 4 (Lebedev-302)
Angular grid pruning method      GridPruning ... 4 (adaptive)
Weight generation scheme         WeightScheme... mBecke (2022)
Basis function cutoff            BFCut       ... 1.0000e-10
Integration weight cutoff        WCut        ... 1.0000e-14
Partially contracted basis set               ... off
Rotationally invariant grid construction     ... off
Angular grids for H and He will be reduced by one unit

Total number of grid points                  ...   239298
Total number of batches                      ...     3764
Average number of points per batch           ...       63
Average number of grid points per atom       ...     5091

--------------------
COSX GRID GENERATION
--------------------

GRIDX 1
-------
General Integration Accuracy     IntAcc      ... 3.816
Radial Grid Type                 RadialGrid  ... OptM3 with GC (2021)
Angular Grid (max. ang.)         AngularGrid ... 1 (Lebedev-50)
Angular grid pruning method      GridPruning ... 4 (adaptive)
Weight generation scheme         WeightScheme... mBecke (2022)
Basis function cutoff            BFCut       ... 1.0000e-10
Integration weight cutoff        WCut        ... 1.0000e-14
Partially contracted basis set               ... on
Rotationally invariant grid construction     ... off
Angular grids for H and He will be reduced by one unit

Total number of grid points                  ...    32356
Total number of batches                      ...      278
Average number of points per batch           ...      116
Average number of grid points per atom       ...      688
UseSFitting                                  ... on

GRIDX 2
-------
General Integration Accuracy     IntAcc      ... 4.020
Radial Grid Type                 RadialGrid  ... OptM3 with GC (2021)
Angular Grid (max. ang.)         AngularGrid ... 2 (Lebedev-110)
Angular grid pruning method      GridPruning ... 4 (adaptive)
Weight generation scheme         WeightScheme... mBecke (2022)
Basis function cutoff            BFCut       ... 1.0000e-10
Integration weight cutoff        WCut        ... 1.0000e-14
Partially contracted basis set               ... on
Rotationally invariant grid construction     ... off
Angular grids for H and He will be reduced by one unit

Total number of grid points                  ...    66635
Total number of batches                      ...      544
Average number of points per batch           ...      122
Average number of grid points per atom       ...     1418
UseSFitting                                  ... on

GRIDX 3
-------
General Integration Accuracy     IntAcc      ... 4.338
Radial Grid Type                 RadialGrid  ... OptM3 with GC (2021)
Angular Grid (max. ang.)         AngularGrid ... 3 (Lebedev-194)
Angular grid pruning method      GridPruning ... 4 (adaptive)
Weight generation scheme         WeightScheme... mBecke (2022)
Basis function cutoff            BFCut       ... 1.0000e-10
Integration weight cutoff        WCut        ... 1.0000e-14
Partially contracted basis set               ... on
Rotationally invariant grid construction     ... off
Angular grids for H and He will be reduced by one unit

Total number of grid points                  ...   147264
Total number of batches                      ...     1176
Average number of points per batch           ...      125
Average number of grid points per atom       ...     3133
UseSFitting                                  ... on
Initializing property integral containers    ... done (  0.0 sec)

SHARK setup successfully completed in  12.5 seconds

Maximum memory used throughout the entire STARTUP-calculation: 102.8 MB
-------------------------------------------------------------------------------
                                 ORCA GUESS
                   Start orbitals & Density for SCF / CASSCF
-------------------------------------------------------------------------------

------------
SCF SETTINGS
------------
Hamiltonian:
 Density Functional     Method          .... DFT(GTOs)
 Exchange Functional    Exchange        .... B88
   X-Alpha parameter    XAlpha          ....  0.666667
   Becke's b parameter  XBeta           ....  0.004200
 Correlation Functional Correlation     .... LYP
 LDA part of GGA corr.  LDAOpt          .... VWN-5
 Gradients option       PostSCFGGA      .... off
 Hybrid DFT is turned on
   Fraction HF Exchange ScalHFX         ....  0.200000
   Scaling of DF-GGA-X  ScalDFX         ....  0.720000
   Scaling of DF-GGA-C  ScalDFC         ....  0.810000
   Scaling of DF-LDA-C  ScalLDAC        ....  1.000000
   Perturbative correction              ....  0.000000
   NL short-range parameter             ....  4.800000
 RI-approximation to the Coulomb term is turned on
   Number of AuxJ basis functions       .... 1699
   RIJ-COSX (HFX calculated with COS-X)).... on


General Settings:
 Integral files         IntName         .... /home/nmrbox/aojoawo/Documents/ERDOS/inputs/CHEMBL3951379
 Hartree-Fock type      HFTyp           .... RHF
 Total Charge           Charge          ....    0
 Multiplicity           Mult            ....    1
 Number of Electrons    NEL             ....  236
 Basis Dimension        Dim             ....  474
 Nuclear Repulsion      ENuc            ....   3204.6438823263 Eh

Convergence Acceleration:
 AO-DIIS                CNVDIIS         .... on
   Start iteration      DIISMaxIt       ....    12
   Startup error        DIISStart       ....  0.200000
   # of expansion vecs  DIISMaxEq       ....     5
   Bias factor          DIISBfac        ....   1.050
   Max. coefficient     DIISMaxC        ....  10.000
 MO-DIIS                CNVKDIIS        .... off
 Trust-Rad. Augm. Hess. CNVTRAH         .... auto
   Auto Start mean grad. ratio tolernc. ....  1.125000
   Auto Start start iteration           ....    50
   Auto Start num. interpolation iter.  ....    10
   Max. Number of Micro iterations      ....    24
   Max. Number of Macro iterations      .... Maxiter - #DIIS iter
   Number of Davidson start vectors     ....     2
   Converg. threshold    (grad. norm)   ....   5.000e-05
   Grad. Scal. Fac. for Micro threshold ....   0.100
   Minimum threshold for Micro iter.    ....   1.000e-02
   NR start threshold (gradient norm)   ....   1.000e-04
   Initial trust radius                 ....   0.400
   Minimum AH scaling param. (alpha)    ....   1.000
   Maximum AH scaling param. (alpha)    .... 1000.000
   Quad. conv. algorithm                .... NR
   White noise on init. David. guess    .... on
   Maximum white noise                  ....   0.010
   Pseudo random numbers                .... off
   Inactive MOs                         .... canonical
   Orbital update algorithm             .... Taylor
   Preconditioner                       .... Diag
   Full preconditioner red. dimension   ....   250
 SOSCF                  CNVSOSCF        .... on
   Start iteration      SOSCFMaxIt      ....   150
   Startup grad/error   SOSCFStart      ....  0.003300
   Hessian update       SOSCFHessUp     .... L-BFGS
 Level Shifting         CNVShift        .... on
   Level shift para.    LevelShift      ....    0.2500
   Turn off err/grad.   ShiftErr        ....    0.0010
 Zerner damping         CNVZerner       .... off
 Static damping         CNVDamp         .... on
   Fraction old density DampFac         ....    0.7000
   Max. Damping (<1)    DampMax         ....    0.9800
   Min. Damping (>=0)   DampMin         ....    0.0000
   Turn off err/grad.   DampErr         ....    0.1000

SCF Procedure:
 Maximum # iterations   MaxIter         ....   125
 SCF integral mode      SCFMode         .... Direct
   Integral package                     .... SHARK and LIBINT hybrid scheme
 Reset frequency        DirectResetFreq ....    20
 Integral Threshold     Thresh          ....  1.000e-10 Eh
 Primitive CutOff       TCut            ....  1.000e-11 Eh

Convergence Tolerance:
 Convergence Check Mode ConvCheckMode   .... Total+1el-Energy
 Convergence forced     ConvForced      .... 0
 Energy Change          TolE            ....  1.000e-06 Eh
 1-El. energy change                    ....  1.000e-03 Eh
 Orbital Gradient       TolG            ....  5.000e-05
 Orbital Rotation angle TolX            ....  5.000e-05
 DIIS Error             TolErr          ....  1.000e-06

------------------------------
INITIAL GUESS: MODEL POTENTIAL
------------------------------
Loading Hartree-Fock densities                     ... done
Calculating cut-offs                               ... done
Initializing the effective Hamiltonian             ... done
Setting up the integral package (SHARK)            ... done
Starting the Coulomb interaction                   ... done (   3.2 sec)
Making the grid                                    ... done (   1.6 sec)
Mapping shells                                     ... done
Starting the XC term evaluation                    ... done (   1.1 sec)
  promolecular density results
     # of electrons  =    235.996207288
     EX              =   -226.253618597
     EC              =     -8.417251904
     EX+EC           =   -234.670870501
Transforming the Hamiltonian                       ... done (   0.0 sec)
Diagonalizing the Hamiltonian                      ... done (   0.0 sec)
Back transforming the eigenvectors                 ... done (   0.0 sec)
Now organizing SCF variables                       ... done
                      ------------------
                      INITIAL GUESS DONE (   5.9 sec)
                      ------------------
             **** ENERGY FILE WAS UPDATED (/home/nmrbox/aojoawo/Documents/ERDOS/inputs/CHEMBL3951379.en.tmp) ****
Finished Guess after   6.3 sec
Maximum memory used throughout the entire GUESS-calculation: 55.6 MB

-------------------------------------------------------------------------------------------
                                      ORCA LEAN-SCF
                              memory conserving SCF solver
-------------------------------------------------------------------------------------------

----------------------------------------D-I-I-S--------------------------------------------
Iteration    Energy (Eh)           Delta-E    RMSDP     MaxDP     DIISErr   Damp  Time(sec)
-------------------------------------------------------------------------------------------
               ***  Starting incremental Fock matrix formation  ***
    1    -2211.0466656783064536     0.00e+00  2.80e-03  1.30e-01  2.88e-01  0.700  58.5
    2    -2211.4547555349772665    -4.08e-01  1.61e-03  6.12e-02  9.78e-02  0.700  27.6
                               ***Turning on AO-DIIS***
    3    -2211.5800666183104113    -1.25e-01  6.14e-04  2.39e-02  3.95e-02  0.700  26.2
    4    -2211.6681151199663873    -8.80e-02  1.19e-03  6.38e-02  1.95e-02  0.000  23.6
    5    -2211.8715643863770310    -2.03e-01  2.84e-04  1.21e-02  9.16e-03  0.000  25.5
                              *** Initializing SOSCF ***
---------------------------------------S-O-S-C-F--------------------------------------
Iteration    Energy (Eh)           Delta-E    RMSDP     MaxDP     MaxGrad    Time(sec)
--------------------------------------------------------------------------------------
    6    -2211.8736110545714837    -2.05e-03  1.08e-04  5.36e-03  3.26e-03    22.0
               *** Restarting incremental Fock matrix formation ***
    7    -2211.8737636077958086    -1.53e-04  9.19e-05  4.29e-03  5.68e-04    58.5
    8    -2211.8736971896641990     6.64e-05  5.48e-05  2.62e-03  1.43e-03    35.5
    9    -2211.8738103895793756    -1.13e-04  1.21e-05  5.23e-04  9.94e-05    30.8
   10    -2211.8738090362830917     1.35e-06  6.96e-06  3.24e-04  2.16e-04    25.1
   11    -2211.8738110700778634    -2.03e-06  3.91e-06  1.49e-04  2.95e-05    21.9
   12    -2211.8738110018111911     6.83e-08  2.20e-06  9.39e-05  3.81e-05    20.4
                 **** Energy Check signals convergence ****

               *****************************************************
               *                     SUCCESS                       *
               *           SCF CONVERGED AFTER  12 CYCLES          *
               *****************************************************

Recomputing exchange energy using gridx3       ... done (  102.912 sec)
Old exchange energy                            :    -45.669197028 Eh
New exchange energy                            :    -45.669314681 Eh
Exchange energy change after final integration :     -0.000117653 Eh
Total energy after final integration           :  -2211.873928655 Eh
             **** ENERGY FILE WAS UPDATED (/home/nmrbox/aojoawo/Documents/ERDOS/inputs/CHEMBL3951379.en.tmp) ****

----------------
TOTAL SCF ENERGY
----------------

Total Energy       :      -2211.87392865480342 Eh          -60188.14951 eV

Components:
Nuclear Repulsion  :       3204.64388232627152 Eh           87202.79334 eV
Electronic Energy  :      -5416.51769332808180 Eh         -147390.93965 eV
One Electron Energy:      -9407.88034900978164 Eh         -256001.43916 eV
Two Electron Energy:       3991.36265568169938 Eh          108610.49951 eV

Virial components:
Potential Energy   :      -4413.72779383527995 Eh         -120103.63922 eV
Kinetic Energy     :       2201.85386518047699 Eh           59915.48972 eV
Virial Ratio       :          2.00455073955306

DFT components:
N(Alpha)           :      117.999965196810 electrons
N(Beta)            :      117.999965196810 electrons
N(Total)           :      235.999930393620 electrons
E(X)               :     -181.500494707836 Eh       
E(C)               :       -9.879322983317 Eh       
E(XC)              :     -191.379817691154 Eh       

---------------
SCF CONVERGENCE
---------------

  Last Energy change         ...   -6.8267e-08  Tolerance :   1.0000e-06
  Last MAX-Density change    ...    9.3886e-05  Tolerance :   1.0000e-05
  Last RMS-Density change    ...    2.1988e-06  Tolerance :   1.0000e-06
  Last DIIS Error            ...    3.2635e-03  Tolerance :   1.0000e-06
  Last Orbital Gradient      ...    3.8113e-05  Tolerance :   5.0000e-05
  Last Orbital Rotation      ...    5.2825e-05  Tolerance :   5.0000e-05


----------------
ORBITAL ENERGIES
----------------

  NO   OCC          E(Eh)            E(eV) 
   0   2.0000    -101.520291     -2762.5076 
   1   2.0000     -88.906456     -2419.2677 
   2   2.0000     -24.699306      -672.1023 
   3   2.0000     -19.110375      -520.0197 
   4   2.0000     -19.109588      -519.9983 
   5   2.0000     -19.108855      -519.9784 
   6   2.0000     -14.406232      -392.0135 
   7   2.0000     -14.395576      -391.7236 
   8   2.0000     -14.390350      -391.5813 
   9   2.0000     -14.322732      -389.7413 
  10   2.0000     -10.326790      -281.0062 
  11   2.0000     -10.296017      -280.1689 
  12   2.0000     -10.292540      -280.0743 
  13   2.0000     -10.288767      -279.9716 
  14   2.0000     -10.274541      -279.5845 
  15   2.0000     -10.265152      -279.3290 
  16   2.0000     -10.243080      -278.7284 
  17   2.0000     -10.237067      -278.5647 
  18   2.0000     -10.231029      -278.4004 
  19   2.0000     -10.225679      -278.2549 
  20   2.0000     -10.218755      -278.0665 
  21   2.0000     -10.215071      -277.9662 
  22   2.0000     -10.212938      -277.9082 
  23   2.0000     -10.208151      -277.7779 
  24   2.0000     -10.207756      -277.7672 
  25   2.0000     -10.203087      -277.6401 
  26   2.0000     -10.202971      -277.6369 
  27   2.0000     -10.202622      -277.6275 
  28   2.0000     -10.195609      -277.4366 
  29   2.0000     -10.194795      -277.4145 
  30   2.0000     -10.190734      -277.3040 
  31   2.0000      -9.451745      -257.1951 
  32   2.0000      -7.984217      -217.2616 
  33   2.0000      -7.215064      -196.3319 
  34   2.0000      -7.205313      -196.0665 
  35   2.0000      -7.204859      -196.0542 
  36   2.0000      -5.947299      -161.8342 
  37   2.0000      -5.943212      -161.7230 
  38   2.0000      -5.941010      -161.6631 
  39   2.0000      -1.212034       -32.9811 
  40   2.0000      -1.069322       -29.0977 
  41   2.0000      -1.022030       -27.8109 
  42   2.0000      -1.012703       -27.5571 
  43   2.0000      -0.973489       -26.4900 
  44   2.0000      -0.971404       -26.4333 
  45   2.0000      -0.938867       -25.5479 
  46   2.0000      -0.912196       -24.8221 
  47   2.0000      -0.882631       -24.0176 
  48   2.0000      -0.876640       -23.8546 
  49   2.0000      -0.835201       -22.7270 
  50   2.0000      -0.811441       -22.0804 
  51   2.0000      -0.803484       -21.8639 
  52   2.0000      -0.792785       -21.5728 
  53   2.0000      -0.771703       -20.9991 
  54   2.0000      -0.748727       -20.3739 
  55   2.0000      -0.738262       -20.0891 
  56   2.0000      -0.731604       -19.9079 
  57   2.0000      -0.716774       -19.5044 
  58   2.0000      -0.706376       -19.2215 
  59   2.0000      -0.658486       -17.9183 
  60   2.0000      -0.657197       -17.8832 
  61   2.0000      -0.633489       -17.2381 
  62   2.0000      -0.623437       -16.9646 
  63   2.0000      -0.616352       -16.7718 
  64   2.0000      -0.604369       -16.4457 
  65   2.0000      -0.587450       -15.9853 
  66   2.0000      -0.577584       -15.7169 
  67   2.0000      -0.553724       -15.0676 
  68   2.0000      -0.542812       -14.7707 
  69   2.0000      -0.538006       -14.6399 
  70   2.0000      -0.524036       -14.2597 
  71   2.0000      -0.519578       -14.1384 
  72   2.0000      -0.504718       -13.7341 
  73   2.0000      -0.493567       -13.4306 
  74   2.0000      -0.488198       -13.2845 
  75   2.0000      -0.485004       -13.1976 
  76   2.0000      -0.478654       -13.0248 
  77   2.0000      -0.467622       -12.7246 
  78   2.0000      -0.462425       -12.5832 
  79   2.0000      -0.461293       -12.5524 
  80   2.0000      -0.456926       -12.4336 
  81   2.0000      -0.453841       -12.3497 
  82   2.0000      -0.451311       -12.2808 
  83   2.0000      -0.437627       -11.9084 
  84   2.0000      -0.432164       -11.7598 
  85   2.0000      -0.429913       -11.6985 
  86   2.0000      -0.426418       -11.6034 
  87   2.0000      -0.422642       -11.5007 
  88   2.0000      -0.414830       -11.2881 
  89   2.0000      -0.406809       -11.0698 
  90   2.0000      -0.404037       -10.9944 
  91   2.0000      -0.402572       -10.9545 
  92   2.0000      -0.395661       -10.7665 
  93   2.0000      -0.389232       -10.5915 
  94   2.0000      -0.387242       -10.5374 
  95   2.0000      -0.385379       -10.4867 
  96   2.0000      -0.379491       -10.3265 
  97   2.0000      -0.373807       -10.1718 
  98   2.0000      -0.373255       -10.1568 
  99   2.0000      -0.365080        -9.9343 
 100   2.0000      -0.361757        -9.8439 
 101   2.0000      -0.359692        -9.7877 
 102   2.0000      -0.349841        -9.5197 
 103   2.0000      -0.330892        -9.0040 
 104   2.0000      -0.321441        -8.7469 
 105   2.0000      -0.302170        -8.2225 
 106   2.0000      -0.300221        -8.1694 
 107   2.0000      -0.290046        -7.8925 
 108   2.0000      -0.277808        -7.5595 
 109   2.0000      -0.273112        -7.4318 
 110   2.0000      -0.269330        -7.3288 
 111   2.0000      -0.263796        -7.1782 
 112   2.0000      -0.249231        -6.7819 
 113   2.0000      -0.245654        -6.6846 
 114   2.0000      -0.241620        -6.5748 
 115   2.0000      -0.237304        -6.4574 
 116   2.0000      -0.225397        -6.1334 
 117   2.0000      -0.207637        -5.6501 
 118   0.0000      -0.062810        -1.7092 
 119   0.0000      -0.036804        -1.0015 
 120   0.0000      -0.028904        -0.7865 
 121   0.0000      -0.013833        -0.3764 
 122   0.0000      -0.008224        -0.2238 
 123   0.0000       0.016399         0.4462 
 124   0.0000       0.019272         0.5244 
 125   0.0000       0.031975         0.8701 
 126   0.0000       0.035852         0.9756 
 127   0.0000       0.060707         1.6519 
 128   0.0000       0.071511         1.9459 
*Only the first 10 virtual orbitals were printed.

                    ********************************
                    * MULLIKEN POPULATION ANALYSIS *
                    ********************************

-----------------------
MULLIKEN ATOMIC CHARGES
-----------------------
   0 C :   -0.314527
   1 N :   -0.464049
   2 C :    0.499237
   3 O :   -0.470200
   4 C :    0.010206
   5 C :    0.097647
   6 C :   -0.422350
   7 C :    0.584906
   8 O :   -0.409213
   9 N :   -0.664751
  10 C :    0.258677
  11 N :   -0.375394
  12 C :    0.225225
  13 C :    0.114191
  14 C :   -0.165586
  15 C :   -0.209620
  16 C :    0.421078
  17 F :   -0.303965
  18 C :   -0.161125
  19 Cl:    0.003762
  20 C :   -0.167949
  21 C :   -0.400327
  22 S :    0.243043
  23 C :   -0.215322
  24 C :   -0.104565
  25 C :   -0.198061
  26 C :    0.320534
  27 N :   -0.511507
  28 C :   -0.336471
  29 C :    0.672002
  30 O :   -0.508617
  31 H :    0.183530
  32 H :    0.197596
  33 H :    0.193633
  34 H :    0.160501
  35 H :    0.220622
  36 H :    0.338946
  37 H :    0.132345
  38 H :    0.150987
  39 H :    0.207724
  40 H :    0.179805
  41 H :    0.131228
  42 H :    0.144087
  43 H :    0.143170
  44 H :    0.171470
  45 H :    0.171526
  46 H :    0.225921
Sum of atomic charges:   -0.0000000

--------------------------------
MULLIKEN REDUCED ORBITAL CHARGES
--------------------------------
  0 C s       :     3.269564  s :     3.269564
      pz      :     0.945607  p :     2.999966
      px      :     1.082160
      py      :     0.972199
      dz2     :     0.003402  d :     0.044997
      dxz     :     0.013027
      dyz     :     0.013430
      dx2y2   :     0.008229
      dxy     :     0.006909

  1 N s       :     3.601460  s :     3.601460
      pz      :     1.198445  p :     3.824558
      px      :     1.318148
      py      :     1.307965
      dz2     :     0.009678  d :     0.038031
      dxz     :     0.007903
      dyz     :     0.007219
      dx2y2   :     0.006275
      dxy     :     0.006957

  2 C s       :     2.961180  s :     2.961180
      pz      :     0.816326  p :     2.432381
      px      :     0.760231
      py      :     0.855824
      dz2     :     0.020389  d :     0.107201
      dxz     :     0.028272
      dyz     :     0.020293
      dx2y2   :     0.022189
      dxy     :     0.016058

  3 O s       :     3.898182  s :     3.898182
      pz      :     1.731060  p :     4.545808
      px      :     1.365755
      py      :     1.448993
      dz2     :     0.002936  d :     0.026210
      dxz     :     0.003807
      dyz     :     0.003172
      dx2y2   :     0.008791
      dxy     :     0.007506

  4 C s       :     3.151802  s :     3.151802
      pz      :     0.931097  p :     2.800983
      px      :     0.942669
      py      :     0.927217
      dz2     :     0.008275  d :     0.037009
      dxz     :     0.007325
      dyz     :     0.009329
      dx2y2   :     0.005967
      dxy     :     0.006113

  5 C s       :     3.174375  s :     3.174375
      pz      :     0.891113  p :     2.687411
      px      :     0.909062
      py      :     0.887236
      dz2     :     0.009874  d :     0.040567
      dxz     :     0.009447
      dyz     :     0.008303
      dx2y2   :     0.006618
      dxy     :     0.006325

  6 C s       :     3.296109  s :     3.296109
      pz      :     1.024777  p :     3.087192
      px      :     0.954328
      py      :     1.108087
      dz2     :     0.012081  d :     0.039050
      dxz     :     0.005992
      dyz     :     0.002954
      dx2y2   :     0.010149
      dxy     :     0.007874

  7 C s       :     3.005188  s :     3.005188
      pz      :     0.797933  p :     2.311661
      px      :     0.823229
      py      :     0.690499
      dz2     :     0.011637  d :     0.098245
      dxz     :     0.012364
      dyz     :     0.016733
      dx2y2   :     0.034623
      dxy     :     0.022888

  8 O s       :     3.900670  s :     3.900670
      pz      :     1.364198  p :     4.482035
      px      :     1.566665
      py      :     1.551172
      dz2     :     0.005299  d :     0.026508
      dxz     :     0.003965
      dyz     :     0.005695
      dx2y2   :     0.004917
      dxy     :     0.006631

  9 N s       :     3.620619  s :     3.620619
      pz      :     1.481971  p :     4.015728
      px      :     1.333656
      py      :     1.200100
      dz2     :     0.002904  d :     0.028405
      dxz     :     0.004667
      dyz     :     0.007128
      dx2y2   :     0.005540
      dxy     :     0.008166

 10 C s       :     3.044348  s :     3.044348
      pz      :     0.924741  p :     2.622809
      px      :     0.854590
      py      :     0.843478
      dz2     :     0.014244  d :     0.074166
      dxz     :     0.013680
      dyz     :     0.013124
      dx2y2   :     0.019344
      dxy     :     0.013774

 11 N s       :     3.735588  s :     3.735588
      pz      :     1.105243  p :     3.600327
      px      :     1.075976
      py      :     1.419107
      dz2     :     0.007246  d :     0.039479
      dxz     :     0.004125
      dyz     :     0.009808
      dx2y2   :     0.006479
      dxy     :     0.011821

 12 C s       :     3.057450  s :     3.057450
      pz      :     0.933194  p :     2.657727
      px      :     0.878156
      py      :     0.846377
      dz2     :     0.009105  d :     0.059597
      dxz     :     0.009904
      dyz     :     0.011837
      dx2y2   :     0.014732
      dxy     :     0.014018

 13 C s       :     3.137906  s :     3.137906
      pz      :     0.941567  p :     2.708259
      px      :     0.939883
      py      :     0.826809
      dz2     :     0.006837  d :     0.039644
      dxz     :     0.005712
      dyz     :     0.008935
      dx2y2   :     0.008672
      dxy     :     0.009488

 14 C s       :     3.189839  s :     3.189839
      pz      :     0.985129  p :     2.939704
      px      :     0.986290
      py      :     0.968285
      dz2     :     0.007693  d :     0.036044
      dxz     :     0.005433
      dyz     :     0.005924
      dx2y2   :     0.010913
      dxy     :     0.006082

 15 C s       :     3.206850  s :     3.206850
      pz      :     1.017041  p :     2.967950
      px      :     1.014561
      py      :     0.936349
      dz2     :     0.005015  d :     0.034820
      dxz     :     0.005531
      dyz     :     0.008185
      dx2y2   :     0.007543
      dxy     :     0.008547

 16 C s       :     3.080963  s :     3.080963
      pz      :     0.797126  p :     2.425883
      px      :     0.808524
      py      :     0.820232
      dz2     :     0.013650  d :     0.072076
      dxz     :     0.012101
      dyz     :     0.015894
      dx2y2   :     0.014497
      dxy     :     0.015934

 17 F s       :     3.973521  s :     3.973521
      pz      :     1.718983  p :     5.313078
      px      :     1.740197
      py      :     1.853898
      dz2     :     0.003747  d :     0.017366
      dxz     :     0.004869
      dyz     :     0.003169
      dx2y2   :     0.002604
      dxy     :     0.002976

 18 C s       :     3.202360  s :     3.202360
      pz      :     1.059511  p :     2.911166
      px      :     1.053135
      py      :     0.798521
      dz2     :     0.008020  d :     0.047599
      dxz     :     0.005435
      dyz     :     0.011328
      dx2y2   :     0.011586
      dxy     :     0.011230

 19 Cls       :     5.925481  s :     5.925481
      pz      :     3.926746  p :    11.041266
      px      :     3.941401
      py      :     3.173118
      dz2     :     0.004495  d :     0.029491
      dxz     :     0.000208
      dyz     :     0.006045
      dx2y2   :     0.013579
      dxy     :     0.005165

 20 C s       :     3.214083  s :     3.214083
      pz      :     0.956742  p :     2.919021
      px      :     0.965019
      py      :     0.997260
      dz2     :     0.005265  d :     0.034844
      dxz     :     0.005186
      dyz     :     0.008380
      dx2y2   :     0.006811
      dxy     :     0.009202

 21 C s       :     3.265040  s :     3.265040
      pz      :     1.038668  p :     3.101495
      px      :     0.994592
      py      :     1.068235
      dz2     :     0.006638  d :     0.033792
      dxz     :     0.005690
      dyz     :     0.005126
      dx2y2   :     0.007093
      dxy     :     0.009244

 22 S s       :     5.794356  s :     5.794356
      pz      :     3.429560  p :     9.855673
      px      :     3.236069
      py      :     3.190043
      dz2     :     0.020701  d :     0.106929
      dxz     :     0.021330
      dyz     :     0.014010
      dx2y2   :     0.031691
      dxy     :     0.019197

 23 C s       :     3.204685  s :     3.204685
      pz      :     0.989326  p :     2.974585
      px      :     0.997417
      py      :     0.987842
      dz2     :     0.008890  d :     0.036052
      dxz     :     0.008397
      dyz     :     0.006404
      dx2y2   :     0.006282
      dxy     :     0.006079

 24 C s       :     3.188405  s :     3.188405
      pz      :     0.966037  p :     2.878138
      px      :     0.946642
      py      :     0.965459
      dz2     :     0.007720  d :     0.038022
      dxz     :     0.007998
      dyz     :     0.010440
      dx2y2   :     0.006105
      dxy     :     0.005758

 25 C s       :     3.180772  s :     3.180772
      pz      :     0.973716  p :     2.983004
      px      :     1.009794
      py      :     0.999494
      dz2     :     0.008682  d :     0.034285
      dxz     :     0.007083
      dyz     :     0.007980
      dx2y2   :     0.003249
      dxy     :     0.007290

 26 C s       :     3.062707  s :     3.062707
      pz      :     0.739494  p :     2.558901
      px      :     0.899776
      py      :     0.919631
      dz2     :     0.016260  d :     0.057857
      dxz     :     0.013708
      dyz     :     0.011953
      dx2y2   :     0.008151
      dxy     :     0.007785

 27 N s       :     3.623694  s :     3.623694
      pz      :     1.180101  p :     3.848660
      px      :     1.348309
      py      :     1.320250
      dz2     :     0.008741  d :     0.039154
      dxz     :     0.009368
      dyz     :     0.008802
      dx2y2   :     0.006714
      dxy     :     0.005529

 28 C s       :     3.275722  s :     3.275722
      pz      :     1.141528  p :     3.015398
      px      :     0.917895
      py      :     0.955975
      dz2     :     0.008794  d :     0.045351
      dxz     :     0.010423
      dyz     :     0.002892
      dx2y2   :     0.012073
      dxy     :     0.011168

 29 C s       :     2.843489  s :     2.843489
      pz      :     0.746840  p :     2.360695
      px      :     0.807073
      py      :     0.806781
      dz2     :     0.028679  d :     0.123814
      dxz     :     0.026584
      dyz     :     0.034140
      dx2y2   :     0.019152
      dxy     :     0.015260

 30 O s       :     3.885837  s :     3.885837
      pz      :     1.364998  p :     4.597395
      px      :     1.568011
      py      :     1.664386
      dz2     :     0.009206  d :     0.025384
      dxz     :     0.007696
      dyz     :     0.005693
      dx2y2   :     0.001378
      dxy     :     0.001411

 31 H s       :     0.816470  s :     0.816470

 32 H s       :     0.802404  s :     0.802404

 33 H s       :     0.806367  s :     0.806367

 34 H s       :     0.839499  s :     0.839499

 35 H s       :     0.779378  s :     0.779378

 36 H s       :     0.661054  s :     0.661054

 37 H s       :     0.867655  s :     0.867655

 38 H s       :     0.849013  s :     0.849013

 39 H s       :     0.792276  s :     0.792276

 40 H s       :     0.820195  s :     0.820195

 41 H s       :     0.868772  s :     0.868772

 42 H s       :     0.855913  s :     0.855913

 43 H s       :     0.856830  s :     0.856830

 44 H s       :     0.828530  s :     0.828530

 45 H s       :     0.828474  s :     0.828474

 46 H s       :     0.774079  s :     0.774079



                     *******************************
                     * LOEWDIN POPULATION ANALYSIS *
                     *******************************

----------------------
LOEWDIN ATOMIC CHARGES
----------------------
   0 C :   -0.258220
   1 N :   -0.020363
   2 C :    0.110194
   3 O :   -0.265021
   4 C :   -0.071206
   5 C :    0.029311
   6 C :   -0.237552
   7 C :    0.155210
   8 O :   -0.221499
   9 N :   -0.212238
  10 C :   -0.078098
  11 N :   -0.152093
  12 C :   -0.000646
  13 C :   -0.020633
  14 C :   -0.119607
  15 C :   -0.152586
  16 C :    0.110756
  17 F :   -0.094489
  18 C :   -0.115939
  19 Cl:    0.051416
  20 C :   -0.108888
  21 C :   -0.351948
  22 S :    0.382715
  23 C :   -0.164439
  24 C :   -0.102012
  25 C :   -0.165072
  26 C :    0.055530
  27 N :   -0.027647
  28 C :   -0.265345
  29 C :    0.137142
  30 O :   -0.317519
  31 H :    0.143977
  32 H :    0.153797
  33 H :    0.151786
  34 H :    0.138846
  35 H :    0.175186
  36 H :    0.262111
  37 H :    0.134640
  38 H :    0.147521
  39 H :    0.172066
  40 H :    0.158893
  41 H :    0.131744
  42 H :    0.140094
  43 H :    0.141292
  44 H :    0.134821
  45 H :    0.135030
  46 H :    0.168986

-------------------------------
LOEWDIN REDUCED ORBITAL CHARGES
-------------------------------
  0 C s       :     2.972028  s :     2.972028
      pz      :     1.024494  p :     3.197439
      px      :     1.132602
      py      :     1.040343
      dz2     :     0.007040  d :     0.088753
      dxz     :     0.025458
      dyz     :     0.027227
      dx2y2   :     0.016229
      dxy     :     0.012799

  1 N s       :     3.078109  s :     3.078109
      pz      :     1.220709  p :     3.842127
      px      :     1.315762
      py      :     1.305657
      dz2     :     0.025387  d :     0.100126
      dxz     :     0.022326
      dyz     :     0.019842
      dx2y2   :     0.014361
      dxy     :     0.018210

  2 C s       :     2.824556  s :     2.824556
      pz      :     0.946009  p :     2.809893
      px      :     0.919589
      py      :     0.944296
      dz2     :     0.050130  d :     0.255357
      dxz     :     0.069555
      dyz     :     0.047332
      dx2y2   :     0.047774
      dxy     :     0.040566

  3 O s       :     3.584140  s :     3.584140
      pz      :     1.727585  p :     4.629084
      px      :     1.418712
      py      :     1.482787
      dz2     :     0.006947  d :     0.051798
      dxz     :     0.007337
      dyz     :     0.005608
      dx2y2   :     0.013058
      dxy     :     0.018848

  4 C s       :     2.863838  s :     2.863838
      pz      :     1.038885  p :     3.109579
      px      :     1.035434
      py      :     1.035260
      dz2     :     0.022882  d :     0.097789
      dxz     :     0.020048
      dyz     :     0.024501
      dx2y2   :     0.013559
      dxy     :     0.016799

  5 C s       :     2.883492  s :     2.883492
      pz      :     1.023892  p :     2.989893
      px      :     0.973607
      py      :     0.992393
      dz2     :     0.024241  d :     0.097304
      dxz     :     0.022610
      dyz     :     0.021763
      dx2y2   :     0.014193
      dxy     :     0.014497

  6 C s       :     2.935999  s :     2.935999
      pz      :     1.083631  p :     3.218740
      px      :     1.016665
      py      :     1.118444
      dz2     :     0.024391  d :     0.082813
      dxz     :     0.013791
      dyz     :     0.005228
      dx2y2   :     0.021774
      dxy     :     0.017630

  7 C s       :     2.867508  s :     2.867508
      pz      :     0.868114  p :     2.749774
      px      :     0.961973
      py      :     0.919688
      dz2     :     0.024213  d :     0.227507
      dxz     :     0.027939
      dyz     :     0.038660
      dx2y2   :     0.084469
      dxy     :     0.052227

  8 O s       :     3.595247  s :     3.595247
      pz      :     1.387784  p :     4.574912
      px      :     1.595218
      py      :     1.591909
      dz2     :     0.007663  d :     0.051341
      dxz     :     0.008516
      dyz     :     0.011651
      dx2y2   :     0.008541
      dxy     :     0.014970

  9 N s       :     3.149596  s :     3.149596
      pz      :     1.453482  p :     3.993123
      px      :     1.329148
      py      :     1.210494
      dz2     :     0.007525  d :     0.069519
      dxz     :     0.009199
      dyz     :     0.015802
      dx2y2   :     0.016041
      dxy     :     0.020951

 10 C s       :     2.895900  s :     2.895900
      pz      :     1.009519  p :     3.011324
      px      :     0.982759
      py      :     1.019046
      dz2     :     0.029534  d :     0.170874
      dxz     :     0.031089
      dyz     :     0.031012
      dx2y2   :     0.046467
      dxy     :     0.032773

 11 N s       :     3.252988  s :     3.252988
      pz      :     1.163994  p :     3.814159
      px      :     1.144562
      py      :     1.505603
      dz2     :     0.015274  d :     0.084946
      dxz     :     0.012297
      dyz     :     0.020007
      dx2y2   :     0.012158
      dxy     :     0.025210

 12 C s       :     2.862193  s :     2.862193
      pz      :     0.991065  p :     2.995170
      px      :     0.984214
      py      :     1.019891
      dz2     :     0.019450  d :     0.143282
      dxz     :     0.022283
      dyz     :     0.028842
      dx2y2   :     0.037697
      dxy     :     0.035010

 13 C s       :     2.869151  s :     2.869151
      pz      :     0.998727  p :     3.051370
      px      :     1.003735
      py      :     1.048908
      dz2     :     0.015523  d :     0.100112
      dxz     :     0.013466
      dyz     :     0.023018
      dx2y2   :     0.023517
      dxy     :     0.024589

 14 C s       :     2.913874  s :     2.913874
      pz      :     1.024934  p :     3.121939
      px      :     1.025370
      py      :     1.071635
      dz2     :     0.016503  d :     0.083794
      dxz     :     0.014343
      dyz     :     0.014509
      dx2y2   :     0.023307
      dxy     :     0.015131

 15 C s       :     2.919032  s :     2.919032
      pz      :     1.048889  p :     3.151093
      px      :     1.051557
      py      :     1.050647
      dz2     :     0.011601  d :     0.082460
      dxz     :     0.011428
      dyz     :     0.019694
      dx2y2   :     0.019936
      dxy     :     0.019801

 16 C s       :     2.863942  s :     2.863942
      pz      :     0.898766  p :     2.846753
      px      :     0.915931
      py      :     1.032056
      dz2     :     0.030454  d :     0.178550
      dxz     :     0.031962
      dyz     :     0.039969
      dx2y2   :     0.036438
      dxy     :     0.039727

 17 F s       :     3.735915  s :     3.735915
      pz      :     1.724566  p :     5.323701
      px      :     1.744730
      py      :     1.854405
      dz2     :     0.007541  d :     0.034873
      dxz     :     0.009936
      dyz     :     0.006299
      dx2y2   :     0.005165
      dxy     :     0.005933

 18 C s       :     2.917721  s :     2.917721
      pz      :     1.077497  p :     3.086430
      px      :     1.079842
      py      :     0.929091
      dz2     :     0.017679  d :     0.111787
      dxz     :     0.013974
      dyz     :     0.026179
      dx2y2   :     0.027339
      dxy     :     0.026617

 19 Cls       :     5.801382  s :     5.801382
      pz      :     3.922097  p :    11.113936
      px      :     3.935162
      py      :     3.256676
      dz2     :     0.005213  d :     0.033266
      dxz     :     0.000229
      dyz     :     0.006496
      dx2y2   :     0.015853
      dxy     :     0.005475

 20 C s       :     2.921320  s :     2.921320
      pz      :     1.014659  p :     3.105289
      px      :     1.023199
      py      :     1.067431
      dz2     :     0.011777  d :     0.082279
      dxz     :     0.011215
      dyz     :     0.020559
      dx2y2   :     0.017258
      dxy     :     0.021470

 21 C s       :     2.981026  s :     2.981026
      pz      :     1.102122  p :     3.291205
      px      :     1.088510
      py      :     1.100574
      dz2     :     0.014534  d :     0.079716
      dxz     :     0.014384
      dyz     :     0.012278
      dx2y2   :     0.018710
      dxy     :     0.019811

 22 S s       :     5.519625  s :     5.519625
      pz      :     3.446050  p :     9.971229
      px      :     3.258502
      py      :     3.266677
      dz2     :     0.024130  d :     0.126431
      dxz     :     0.025459
      dyz     :     0.015425
      dx2y2   :     0.038790
      dxy     :     0.022626

 23 C s       :     2.913869  s :     2.913869
      pz      :     1.060760  p :     3.164685
      px      :     1.056705
      py      :     1.047221
      dz2     :     0.019810  d :     0.085885
      dxz     :     0.018665
      dyz     :     0.016042
      dx2y2   :     0.014347
      dxy     :     0.017021

 24 C s       :     2.913473  s :     2.913473
      pz      :     1.057946  p :     3.098528
      px      :     1.020629
      py      :     1.019952
      dz2     :     0.019516  d :     0.090012
      dxz     :     0.020789
      dyz     :     0.022435
      dx2y2   :     0.013562
      dxy     :     0.013710

 25 C s       :     2.911124  s :     2.911124
      pz      :     1.056555  p :     3.172378
      px      :     1.064712
      py      :     1.051110
      dz2     :     0.022732  d :     0.081570
      dxz     :     0.017758
      dyz     :     0.020499
      dx2y2   :     0.006816
      dxy     :     0.013766

 26 C s       :     2.846430  s :     2.846430
      pz      :     0.951229  p :     2.957347
      px      :     0.989095
      py      :     1.017023
      dz2     :     0.039908  d :     0.140693
      dxz     :     0.034004
      dyz     :     0.030136
      dx2y2   :     0.018241
      dxy     :     0.018404

 27 N s       :     3.067793  s :     3.067793
      pz      :     1.203121  p :     3.859916
      px      :     1.335676
      py      :     1.321119
      dz2     :     0.024152  d :     0.099939
      dxz     :     0.023167
      dyz     :     0.024576
      dx2y2   :     0.014279
      dxy     :     0.013764

 28 C s       :     2.973561  s :     2.973561
      pz      :     1.165406  p :     3.202728
      px      :     1.003632
      py      :     1.033690
      dz2     :     0.016503  d :     0.089056
      dxz     :     0.019877
      dyz     :     0.005474
      dx2y2   :     0.024851
      dxy     :     0.022351

 29 C s       :     2.801648  s :     2.801648
      pz      :     0.959773  p :     2.772989
      px      :     0.907770
      py      :     0.905445
      dz2     :     0.068525  d :     0.288222
      dxz     :     0.062442
      dyz     :     0.079166
      dx2y2   :     0.042032
      dxy     :     0.036056

 30 O s       :     3.586063  s :     3.586063
      pz      :     1.437848  p :     4.681284
      px      :     1.581423
      py      :     1.662013
      dz2     :     0.019770  d :     0.050173
      dxz     :     0.016515
      dyz     :     0.009127
      dx2y2   :     0.002454
      dxy     :     0.002307

 31 H s       :     0.856023  s :     0.856023

 32 H s       :     0.846203  s :     0.846203

 33 H s       :     0.848214  s :     0.848214

 34 H s       :     0.861154  s :     0.861154

 35 H s       :     0.824814  s :     0.824814

 36 H s       :     0.737889  s :     0.737889

 37 H s       :     0.865360  s :     0.865360

 38 H s       :     0.852479  s :     0.852479

 39 H s       :     0.827934  s :     0.827934

 40 H s       :     0.841107  s :     0.841107

 41 H s       :     0.868256  s :     0.868256

 42 H s       :     0.859906  s :     0.859906

 43 H s       :     0.858708  s :     0.858708

 44 H s       :     0.865179  s :     0.865179

 45 H s       :     0.864970  s :     0.864970

 46 H s       :     0.831014  s :     0.831014



                      *****************************
                      * MAYER POPULATION ANALYSIS *
                      *****************************

  NA   - Mulliken gross atomic population
  ZA   - Total nuclear charge
  QA   - Mulliken gross atomic charge
  VA   - Mayer's total valence
  BVA  - Mayer's bonded valence
  FA   - Mayer's free valence

  ATOM       NA         ZA         QA         VA         BVA        FA
  0 C      6.3145     6.0000    -0.3145     3.7662     3.7662    -0.0000
  1 N      7.4640     7.0000    -0.4640     3.0664     3.0664     0.0000
  2 C      5.5008     6.0000     0.4992     3.8864     3.8864     0.0000
  3 O      8.4702     8.0000    -0.4702     2.0524     2.0524    -0.0000
  4 C      5.9898     6.0000     0.0102     3.8813     3.8813     0.0000
  5 C      5.9024     6.0000     0.0976     3.9399     3.9399     0.0000
  6 C      6.4224     6.0000    -0.4224     3.7972     3.7972     0.0000
  7 C      5.4151     6.0000     0.5849     3.8847     3.8847    -0.0000
  8 O      8.4092     8.0000    -0.4092     2.0943     2.0943     0.0000
  9 N      7.6648     7.0000    -0.6648     2.8903     2.8903    -0.0000
 10 C      5.7413     6.0000     0.2587     3.8188     3.8188    -0.0000
 11 N      7.3754     7.0000    -0.3754     2.9820     2.9820    -0.0000
 12 C      5.7748     6.0000     0.2252     3.9954     3.9954    -0.0000
 13 C      5.8858     6.0000     0.1142     3.9936     3.9936     0.0000
 14 C      6.1656     6.0000    -0.1656     3.8991     3.8991    -0.0000
 15 C      6.2096     6.0000    -0.2096     3.8870     3.8870     0.0000
 16 C      5.5789     6.0000     0.4211     3.7920     3.7920     0.0000
 17 F      9.3040     9.0000    -0.3040     1.0678     1.0678     0.0000
 18 C      6.1611     6.0000    -0.1611     3.8520     3.8520    -0.0000
 19 Cl    16.9962    17.0000     0.0038     1.1217     1.1217     0.0000
 20 C      6.1679     6.0000    -0.1679     3.8492     3.8492    -0.0000
 21 C      6.4003     6.0000    -0.4003     3.7538     3.7538    -0.0000
 22 S     15.7570    16.0000     0.2430     2.4564     2.4564     0.0000
 23 C      6.2153     6.0000    -0.2153     3.9205     3.9205    -0.0000
 24 C      6.1046     6.0000    -0.1046     3.9469     3.9469    -0.0000
 25 C      6.1981     6.0000    -0.1981     3.8926     3.8926    -0.0000
 26 C      5.6795     6.0000     0.3205     3.7689     3.7689     0.0000
 27 N      7.5115     7.0000    -0.5115     3.0854     3.0854    -0.0000
 28 C      6.3365     6.0000    -0.3365     3.7652     3.7652     0.0000
 29 C      5.3280     6.0000     0.6720     3.9461     3.9461    -0.0000
 30 O      8.5086     8.0000    -0.5086     2.0306     2.0306     0.0000
 31 H      0.8165     1.0000     0.1835     0.9270     0.9270     0.0000
 32 H      0.8024     1.0000     0.1976     0.9334     0.9334    -0.0000
 33 H      0.8064     1.0000     0.1936     0.9346     0.9346    -0.0000
 34 H      0.8395     1.0000     0.1605     0.9242     0.9242     0.0000
 35 H      0.7794     1.0000     0.2206     0.9341     0.9341     0.0000
 36 H      0.6611     1.0000     0.3389     0.8651     0.8651    -0.0000
 37 H      0.8677     1.0000     0.1323     0.9398     0.9398     0.0000
 38 H      0.8490     1.0000     0.1510     0.9367     0.9367     0.0000
 39 H      0.7923     1.0000     0.2077     0.9344     0.9344    -0.0000
 40 H      0.8202     1.0000     0.1798     0.9378     0.9378    -0.0000
 41 H      0.8688     1.0000     0.1312     0.9405     0.9405    -0.0000
 42 H      0.8559     1.0000     0.1441     0.9346     0.9346    -0.0000
 43 H      0.8568     1.0000     0.1432     0.9410     0.9410    -0.0000
 44 H      0.8285     1.0000     0.1715     0.9267     0.9267    -0.0000
 45 H      0.8285     1.0000     0.1715     0.9271     0.9271    -0.0000
 46 H      0.7741     1.0000     0.2259     0.9352     0.9352     0.0000

  Mayer bond orders larger than 0.100000
B(  0-C ,  1-N ) :   0.9150 B(  0-C , 31-H ) :   0.9394 B(  0-C , 32-H ) :   0.9238 
B(  0-C , 33-H ) :   0.9257 B(  1-N ,  2-C ) :   0.9919 B(  1-N , 29-C ) :   1.0456 
B(  2-C ,  3-O ) :   1.7706 B(  2-C ,  4-C ) :   1.0516 B(  4-C ,  5-C ) :   1.3672 
B(  4-C , 26-C ) :   1.2881 B(  5-C ,  6-C ) :   0.9771 B(  5-C , 23-C ) :   1.4194 
B(  6-C ,  7-C ) :   0.9542 B(  6-C , 34-H ) :   0.9135 B(  6-C , 35-H ) :   0.8950 
B(  7-C ,  8-O ) :   1.8993 B(  7-C ,  9-N ) :   0.9649 B(  9-N , 10-C ) :   0.9589 
B(  9-N , 36-H ) :   0.8137 B( 10-C , 11-N ) :   1.5109 B( 10-C , 21-C ) :   0.1076 
B( 10-C , 22-S ) :   1.1374 B( 11-N , 12-C ) :   1.2665 B( 12-C , 13-C ) :   1.0572 
B( 12-C , 21-C ) :   1.5125 B( 13-C , 14-C ) :   1.3983 B( 13-C , 20-C ) :   1.4008 
B( 14-C , 15-C ) :   1.4259 B( 14-C , 37-H ) :   0.9203 B( 15-C , 16-C ) :   1.3854 
B( 15-C , 38-H ) :   0.9190 B( 16-C , 17-F ) :   0.9463 B( 16-C , 18-C ) :   1.3200 
B( 18-C , 19-Cl) :   1.0361 B( 18-C , 20-C ) :   1.3709 B( 20-C , 39-H ) :   0.8953 
B( 21-C , 22-S ) :   1.1105 B( 21-C , 40-H ) :   0.9020 B( 23-C , 24-C ) :   1.4027 
B( 23-C , 41-H ) :   0.9244 B( 24-C , 25-C ) :   1.4741 B( 24-C , 42-H ) :   0.9258 
B( 25-C , 26-C ) :   1.3401 B( 25-C , 43-H ) :   0.9140 B( 26-C , 27-N ) :   0.9756 
B( 27-N , 28-C ) :   0.9344 B( 27-N , 29-C ) :   1.0380 B( 28-C , 44-H ) :   0.9320 
B( 28-C , 45-H ) :   0.9321 B( 28-C , 46-H ) :   0.9132 B( 29-C , 30-O ) :   1.7866 


-------
TIMINGS
-------

Total SCF time: 0 days 0 hours 7 min 59 sec 

Total time                  ....     479.326 sec
Sum of individual times     ....     479.001 sec  ( 99.9%)

SCF preparation             ....       0.399 sec  (  0.1%)
Fock matrix formation       ....     476.348 sec  ( 99.4%)
  Startup                   ....       0.084 sec  (  0.0% of F)
  Split-RI-J                ....      62.264 sec  ( 13.1% of F)
  Chain of spheres X        ....     371.963 sec  ( 78.1% of F)
  XC integration            ....      41.366 sec  (  8.7% of F)
    XC Preparation          ....       0.000 sec  (  0.0% of XC)
    Basis function eval.    ....      16.204 sec  ( 39.2% of XC)
    Density eval.           ....      10.115 sec  ( 24.5% of XC)
    XC-Functional eval.     ....       2.202 sec  (  5.3% of XC)
    XC-Potential eval.      ....      11.171 sec  ( 27.0% of XC)
Diagonalization             ....       0.000 sec  (  0.0%)
Density matrix formation    ....       0.301 sec  (  0.1%)
Total Energy calculation    ....       0.063 sec  (  0.0%)
Population analysis         ....       0.069 sec  (  0.0%)
Orbital Transformation      ....       0.273 sec  (  0.1%)
Orbital Orthonormalization  ....       0.000 sec  (  0.0%)
DIIS solution               ....       0.991 sec  (  0.2%)
SOSCF solution              ....       0.558 sec  (  0.1%)
Finished LeanSCF after 479.4 sec

Maximum memory used throughout the entire LEANSCF-calculation: 76.2 MB

-------------------------   --------------------
FINAL SINGLE POINT ENERGY     -2211.873928654803
-------------------------   --------------------


------------------------------------------------------------------------------
                              ORCA PROPERTY CALCULATIONS
------------------------------------------------------------------------------

GBWName                                 ... /home/nmrbox/aojoawo/Documents/ERDOS/inputs/CHEMBL3951379.gbw
Number of atoms                         ...     47
Number of basis functions               ...    474
Max core memory                         ...   1024 MB

Electric properties:
Dipole moment                           ... YES
Quadrupole moment                       ...  NO
Static polarizability (Dipole/Dipole)   ...  NO
Static polarizability (Dipole/Quad.)    ...  NO
Static polarizability (Quad./Quad.)     ...  NO
Static polarizability (Velocity)        ...  NO

Atomic electric properties:
Dipole moment                           ...  NO
Quadrupole moment                       ...  NO
Static polarizability                   ...  NO

Choice of electric origin               ... Center of mass
Position of electric origin             ...     1.558190     0.400453    -0.268168

General magnetic properties:
Magnetizability                         ...  NO

EPR properties:
g-Tensor (aka g-matrix)                 ...  NO
Zero-Field splitting spin-orbit         ...  NO
Zero-field splitting spin-spin          ...  NO
Hyperfine couplings                     ...  NO (   0 nuclei)
Quadrupole couplings                    ...  NO (   0 nuclei)
Contact density                         ...  NO (   0 nuclei)

NMR properties:
Chemical shifts                         ...  NO (   0 nuclei)
Spin-rotation constants                 ...  NO (   0 nuclei)
Spin-spin couplings                     ...  NO (   0 nuclei,    0 pairs)

Choice of magnetic origin               ... GIAO
Position of magnetic origin             ...     0.000000     0.000000     0.000000

Properties with geometric perturbations:
SCF Hessian                             ...  NO
IR spectrum                             ...  NO
VCD spectrum                            ...  NO
X-ray spectroscopy properties:
SCF XES/XAS/RIXS spectra                ...  NO


-------------
DIPOLE MOMENT
-------------

Method             : SCF
Type of density    : Electron Density
Multiplicity       :   1
Irrep              :   0
Energy             : -2211.8739286548034215 Eh
Relativity type    : 
Basis              : AO
                                X                 Y                 Z
Electronic contribution:     37.633104460       9.268245374      -9.077719655
Nuclear contribution   :    -39.722817700     -12.116829874      10.907149638
                        -----------------------------------------
Total Dipole Moment    :     -2.089713240      -2.848584499       1.829429983
                        -----------------------------------------
Magnitude (a.u.)       :      3.978460649
Magnitude (Debye)      :     10.112443322



--------------------
Rotational spectrum 
--------------------
 
Rotational constants in cm-1:             0.006505             0.002039             0.001794 
Rotational constants in MHz :           195.003681            61.141050            53.772723 

Dipole components along the rotational axes: 
x,y,z [a.u.] :    -2.651347     2.670741     1.290600 
x,y,z [Debye]:    -6.739190     6.788484     3.280445 

 

Dipole moment calculation done in   0.0 sec 

Maximum memory used throughout the entire PROP-calculation: 37.2 MB

--------------------------------
SUGGESTED CITATIONS FOR THIS RUN
--------------------------------

Below you find a list of papers that are relevant to this ORCA run
We neither can nor want to force you to cite these papers, but we appreciate if you do
You receive ORCA, which is the product of decades of hard work by many enthusiastic individuals, for free
The only thing we kindly ask in return is that you cite our papers,
We deeply appreciate it, if you show your appreciation for ORCA by not just citing the generic ORCA reference.

Please note that relegating all ORCA citations to the supporting information does *not* help us.
SI sections are not indexed - citations you put there will not count into any citation statistics
But we need these citations in order to attract the funding resources that allow us to do what we are doing

Therefore, if you are a happy ORCA user, please consider citing a few of the papers listed below in the main body of your paper

In addition to the list printed below, the program has created the file /home/nmrbox/aojoawo/Documents/ERDOS/inputs/CHEMBL3951379.bibtex that contains the list in bibtex format
You can import this file easily into all common literature databanks and citation aid programs


List of essential papers. We consider these as the minimum necessary citations

  1. Neese,F.
     Software update: the ORCA program system, version 5.0
     WIRES Comput. Molec. Sci., 2022 12(1)e1606
     doi.org/10.1002/wcms.1606

List of papers to cite with high priority. The work reported in these papers was absolutely
necessary for this run to complete.
Our perspective: the developers of density functionals and basis sets usually get cited in chemistry papers
Good! But without the algorithms to do something with them, the functionals or basis sets would not do anything.
Hence, in our opinion, the algorithm design and method developments papers are equally worthy of getting cited

  1. Neese,F.
     An improvement of the resolution of the identity approximation for the formation of the Coulomb matrix
     J. Comp. Chem., 2003 24(14)1740-1747
     doi.org/10.1002/jcc.10318
  2. Neese,F.; Wennmohs,F.; Hansen,A.; Becker,U.
     Efficient, approximate and parallel Hartree-Fock and hybrid DFT calculations. A 'chain-of-spheres' algorithm for the Hartree-Fock exchange
     Chem. Phys., 2009 356(1-3)98-109
     doi.org/10.1016/j.chemphys.2008.10.036
  3. Helmich-Paris,B.; de Souza,B.; Neese,F.; Izsák,R.
     An improved chain of spheres for exchange algorithm
     J. Chem. Phys., 2021 155 104109
     doi.org/doi: 10.1063/5.0058766.
  4. Neese,F.
     The SHARK Integral Generation and Digestion System
     J. Comp. Chem., 2022  1-16
     doi.org/10.1002/jcc.26942

List of suggested additional citations. These are papers that are important in the 'surrounding' of 
of this run, or papers that preceded the highly important papers. If you like your results we are grateful for a citation.

  1. Izsak,R.; Neese,F.
     An overlap fitted chain of spheres exchange method
     J. Chem. Phys., 2011 135 144105
     doi.org/10.1063/1.3646921
  2. Izsak,R.; Hansen,A.; Neese,F.
     The resolution of identity and chain of spheres approximations for the LPNO-CCSD singles Fock term
     Molec. Phys., 2012 110 2413-2417
     doi.org/10.1080/00268976.2012.687466
  3. Neese,F.
     The ORCA program system
     WIRES Comput. Molec. Sci., 2012 2(1)73-78
     doi.org/10.1002/wcms.81
  4. Izsak,R.; Neese,F.; Klopper,W.
     Robust fitting techniques in the chain of spheres approximation to the Fock exchange: The role of the complementary space
     J. Chem. Phys., 2013 139 
     doi.org/10.1063/1.4819264
  5. Neese,F.
     Software update: the ORCA program system, version 4.0
     WIRES Comput. Molec. Sci., 2018 8(1)1-6
     doi.org/10.1002/wcms.1327
  6. Neese,F.; Wennmohs,F.; Becker,U.; Riplinger,C.
     The ORCA quantum chemistry program package
     J. Chem. Phys., 2020 152 Art. No. L224108
     doi.org/10.1063/5.0004608

List of optional additional citations

  1. Neese,F.
     Approximate second-order SCF convergence for spin unrestricted wavefunctions
     Chem. Phys. Lett., 2000 325(1-3)93-98
     doi.org/10.1016/s0009-2614(00)00662-x

Timings for individual modules:

Sum of individual times          ...      498.595 sec (=   8.310 min)
Startup calculation              ...       12.616 sec (=   0.210 min)   2.5 %
SCF iterations                   ...      485.805 sec (=   8.097 min)  97.4 %
Property calculations            ...        0.174 sec (=   0.003 min)   0.0 %
                             ****ORCA TERMINATED NORMALLY****
TOTAL RUN TIME: 0 days 0 hours 8 minutes 19 seconds 209 msec
