
                                 *****************
                                 * O   R   C   A *
                                 *****************

                                            #,                                       
                                            ###                                      
                                            ####                                     
                                            #####                                    
                                            ######                                   
                                           ########,                                 
                                     ,,################,,,,,                         
                               ,,#################################,,                 
                          ,,##########################################,,             
                       ,#########################################, ''#####,          
                    ,#############################################,,   '####,        
                  ,##################################################,,,,####,       
                ,###########''''           ''''###############################       
              ,#####''   ,,,,##########,,,,          '''####'''          '####       
            ,##' ,,,,###########################,,,                        '##       
           ' ,,###''''                  '''############,,,                           
         ,,##''                                '''############,,,,        ,,,,,,###''
      ,#''                                            '''#######################'''  
     '                                                          ''''####''''         
             ,#######,   #######,   ,#######,      ##                                
            ,#'     '#,  ##    ##  ,#'     '#,    #''#        ,####,   ,####,        
            ##       ##  ##   ,#'  ##            #'  '#       #'       #'  '#        
            ##       ##  #######   ##           ,######,      #####,   #    #        
            '#,     ,#'  ##    ##  '#,     ,#' ,#      #,     #,   #   #,  ,#        
             '#######'   ##     ##  '#######'  #'      '#     '####' # '####'        



                #########################################################
                #                        -***-                          #
                #          Department of theory and spectroscopy        #
                #                                                       #
                #                      Frank Neese                      #
                #                                                       #
                #     Directorship, Architecture, Infrastructure        #
                #                    SHARK, DRIVERS                     #
                #        Core code/Algorithms in most modules           #
                #                                                       #
                #        Max Planck Institute fuer Kohlenforschung      #
                #                Kaiser Wilhelm Platz 1                 #
                #                 D-45470 Muelheim/Ruhr                 #
                #                      Germany                          #
                #                                                       #
                #                  All rights reserved                  #
                #                        -***-                          #
                #########################################################


                         Program Version 6.0.0  -   RELEASE  -


 With contributions from (in alphabetic order):
   Daniel Aravena         : Magnetic Suceptibility
   Michael Atanasov       : Ab Initio Ligand Field Theory (pilot matlab implementation)
   Alexander A. Auer      : GIAO ZORA, VPT2 properties, NMR spectrum
   Ute Becker             : All parallelization in ORCA, NUMFREQ, NUMCALC
   Giovanni Bistoni       : ED, misc. LED, open-shell LED, HFLD
   Martin Brehm           : Molecular dynamics
   Dmytro Bykov           : pre 5.0 version of the SCF Hessian
   Marcos Casanova-Páez   : Triplet and SCS-CIS(D). UHF-(DLPNO)-IP/EA/STEOM-CCSD. UHF-CVS-IP/STEOM-CCSD
   Vijay G. Chilkuri      : MRCI spin determinant printing, contributions to CSF-ICE
   Pauline Colinet        : FMM embedding
   Dipayan Datta          : RHF DLPNO-CCSD density
   Achintya Kumar Dutta   : EOM-CC, STEOM-CC
   Nicolas Foglia         : Exact transition moments, OPA infrastructure, MCD improvements
   Dmitry Ganyushin       : Spin-Orbit,Spin-Spin,Magnetic field MRCI
   Miquel Garcia          : C-PCM and meta-GGA Hessian, CCSD/C-PCM, Gaussian charge scheme
   Tiago L. C. Gouveia    : GS-ROHF, GS-ROCIS
   Yang Guo               : DLPNO-NEVPT2, F12-NEVPT2, CIM, IAO-localization
   Andreas Hansen         : Spin unrestricted coupled pair/coupled cluster methods
   Ingolf Harden          : AUTO-CI MPn and infrastructure 
   Benjamin Helmich-Paris : MC-RPA, TRAH-(SCF,CASSCF), AVAS, COSX integrals, SCF dyn. polar.
   Lee Huntington         : MR-EOM, pCC
   Robert Izsak           : Overlap fitted RIJCOSX, COSX-SCS-MP3, EOM
   Riya Kayal             : Wick's Theorem for AUTO-CI, AUTO-CI UHF-CCSDT
   Emily Kempfer          : AUTO-CI, RHF CISDT and CCSDT
   Christian Kollmar      : KDIIS, OOCD, Brueckner-CCSD(T), CCSD density, CASPT2, CASPT2-K, improved NEVPT2
   Axel Koslowski         : Symmetry handling
   Simone Kossmann        : Meta GGA functionals, TD-DFT gradient, OOMP2, (MP2 Hessian; deprecated post 5.0)
   Lucas Lang             : DCDCAS
   Marvin Lechner         : AUTO-CI (C++ implementation), FIC-MRCC
   Spencer Leger          : CASSCF response
   Dagmar Lenk            : GEPOL surface, SMD, ORCA-2-JSON
   Dimitrios Liakos       : Extrapolation schemes; Compound Job, initial MDCI parallelization
   Dimitrios Manganas     : Further ROCIS development; embedding schemes. LFT, Crystal Embedding
   Dimitrios Pantazis     : SARC Basis sets
   Anastasios Papadopoulos: AUTO-CI, single reference methods and gradients
   Taras Petrenko         : pre 6.0 DFT Hessian and TD-DFT gradient, (ASA, deprecated), ECA, 1-Electron XAS/XES, NRVS
   Peter Pinski           : DLPNO-MP2, DLPNO-MP2 Gradient
   Christoph Reimann      : Effective Core Potentials
   Marius Retegan         : Local ZFS, SOC
   Christoph Riplinger    : Optimizer, TS searches, QM/MM, DLPNO-CCSD(T), (RO)-DLPNO pert. Triples
   Michael Roemelt        : Original ROCIS implementation
   Masaaki Saitow         : Open-shell DLPNO-CCSD energy and density
   Barbara Sandhoefer     : DKH picture change effects
   Kantharuban Sivalingam : CASSCF convergence/infrastructure, NEVPT2 and variants, FIC-MRCI
   Bernardo de Souza      : ESD, SOC TD-DFT
   Georgi Stoychev        : AutoAux, RI-MP2 NMR, DLPNO-MP2 response, X2C
   Van Anh Tran           : RI-MP2 g-tensors
   Willem Van den Heuvel  : Paramagnetic NMR
   Zikuan Wang            : NOTCH, Electric field optimization 
   Frank Wennmohs         : Technical directorship and infrastructure
   Hang Xu                : AUTO-CI-Response properties 


 We gratefully acknowledge several colleagues who have allowed us to
 interface, adapt or use parts of their codes:
   Stefan Grimme, W. Hujo, H. Kruse, P. Pracht,  : VdW corrections, initial TS optimization,
                  C. Bannwarth, S. Ehlert,         DFT functionals, gCP, sTDA/sTD-DF
                  L. Wittmann, M. Mueller
   Ed Valeev, F. Pavosevic, A. Kumar             : LibInt (2-el integral package), F12 methods
   Garnet Chan, S. Sharma, J. Yang, R. Olivares  : DMRG
   Ulf Ekstrom                                   : XCFun DFT Library
   Mihaly Kallay                                 : mrcc  (arbitrary order and MRCC methods)
   Frank Weinhold                                : gennbo (NPA and NBO analysis)
   Simon Mueller                                 : openCOSMO-RS
   Christopher J. Cramer and Donald G. Truhlar   : smd solvation model
   Lars Goerigk                                  : TD-DFT with DH, B97 family of functionals
   V. Asgeirsson, H. Jonsson                     : NEB implementation
   FAccTs GmbH                                   : IRC, NEB, NEB-TS, DLPNO-Multilevel, CI-OPT
                                                   MM, QMMM, 2- and 3-layer-ONIOM, Crystal-QMMM,
                                                   LR-CPCM, SF, NACMEs, symmetry and pop. for TD-DFT,
                                                   nearIR, NL-DFT gradient (VV10), updates on ESD,
                                                   ML-optimized integration grids, MBIS, APM,
                                                   GOAT, DOCKER, SOLVATOR, interface openCOSMO-RS
   S Lehtola, MJT Oliveira, MAL Marques          : LibXC Library
   Liviu Ungur et al                             : ANISO software


 Your calculation uses the libint2 library for the computation of 2-el integrals
 For citations please refer to: http://libint.valeyev.net

 Your ORCA version has been built with support for libXC version: 6.2.2
 For citations please refer to: https://libxc.gitlab.io

 This ORCA versions uses:
   CBLAS   interface :  Fast vector & matrix operations
   LAPACKE interface :  Fast linear algebra routines
   SCALAPACK package :  Parallel linear algebra routines
   Shared memory     :  Shared parallel matrices
   BLAS/LAPACK       :  OpenBLAS 0.3.27  USE64BITINT DYNAMIC_ARCH NO_AFFINITY SkylakeX SINGLE_THREADED
        Core in use  :  SkylakeX
   Copyright (c) 2011-2014, The OpenBLAS Project


Warning: RI is on but no J-basis has been assigned. Assigning Def2/J (nothing to worry about!)
================================================================================

----- Orbital basis set information -----
Your calculation utilizes the basis: 6-31G*
   H-He, Li-Ne : W. J. Hehre, R. Ditchfield and J.A. Pople, J. Chem. Phys. 56, 2257 (1972).
                 Note: He and Ne are unpublished basis sets taken from the Gaussian program.
                 Note: Li and B from J. D. Dill and J. A. Pople, J. Chem. Phys. 62, 2921 (1975).
   Na - Ar     : M. M. Francl, W. J. Pietro, W. J. Hehre, J. S. Binkley, M. S. Gordon, 
                 D. J. DeFrees and J. A. Pople, J. Chem. Phys. 77, 3654 (1982).
   K - Zn      : V. A. Rassolov, J. A. Pople, M. A. Ratner, and T. L. Windus, J. Chem. Phys. 109, 1223 (1998).

----- AuxJ basis set information -----
Your calculation utilizes the auxiliary basis: def2/J
   F. Weigend, Phys. Chem. Chem. Phys. 8, 1057 (2006).

================================================================================
                                        WARNINGS
                       Please study these warnings very carefully!
================================================================================


================================================================================
                                       INPUT FILE
================================================================================
NAME = /home/nmrbox/aojoawo/Documents/ERDOS/inputs/CHEMBL3941901.inp
|  1> ! B3LYP 6-31G* SP
|  2> 
|  3> * xyz 0 1
|  4> C -3.0745 0.7976 -2.5045
|  5> N -3.7627 0.3816 -1.2696
|  6> C -3.2351 -0.6357 -0.5072
|  7> O -2.1624 -1.2014 -0.8526
|  8> C -3.9078 -1.0455 0.6492
|  9> C -3.5610 -2.0616 1.5887
| 10> C -2.3097 -2.8932 1.5361
| 11> C -1.1166 -2.0831 1.9519
| 12> O -1.1162 -1.5242 3.0822
| 13> N 0.0269 -1.9887 1.0880
| 14> C 1.0810 -1.0270 1.2367
| 15> N 2.1910 -1.0456 0.4691
| 16> C 3.0322 -0.0121 0.7537
| 17> C 4.3279 0.1439 0.0505
| 18> C 5.0028 -1.0013 -0.3988
| 19> C 6.2161 -0.8889 -1.0749
| 20> C 6.7818 0.3650 -1.3071
| 21> F 7.9471 0.4320 -1.9999
| 22> C 6.1391 1.5330 -0.8481
| 23> C 6.7242 2.8983 -1.1454
| 24> F 6.3808 3.8097 -0.1622
| 25> F 6.2416 3.3445 -2.3616
| 26> F 8.1061 2.8471 -1.2011
| 27> C 4.8880 1.4146 -0.2024
| 28> F 4.1907 2.5345 0.1207
| 29> C 2.5855 0.8385 1.7685
| 30> S 1.0922 0.2781 2.3003
| 31> N -4.4415 -2.2215 2.6175
| 32> S -5.6586 -1.1143 2.3644
| 33> C -5.0877 -0.4121 0.9655
| 34> N -5.6285 0.5865 0.2179
| 35> C -6.9211 1.1811 0.5875
| 36> C -4.9696 0.9608 -0.9287
| 37> O -5.4777 1.8401 -1.6809
| 38> H -3.2630 1.8688 -2.7310
| 39> H -3.4277 0.1767 -3.3546
| 40> H -1.9728 0.6912 -2.4076
| 41> H -2.4072 -3.7572 2.2279
| 42> H -2.1777 -3.3124 0.5169
| 43> H 0.0907 -2.6458 0.2783
| 44> H 4.5910 -1.9880 -0.2248
| 45> H 6.7191 -1.7810 -1.4257
| 46> H 3.1109 1.6916 2.1749
| 47> H -7.0289 1.2409 1.6912
| 48> H -7.7462 0.5653 0.1719
| 49> H -7.0128 2.2194 0.2037
| 50> *
| 51> 
| 52>                          ****END OF INPUT****
================================================================================

                       ****************************
                       * Single Point Calculation *
                       ****************************

---------------------------------
CARTESIAN COORDINATES (ANGSTROEM)
---------------------------------
  C     -3.074500    0.797600   -2.504500
  N     -3.762700    0.381600   -1.269600
  C     -3.235100   -0.635700   -0.507200
  O     -2.162400   -1.201400   -0.852600
  C     -3.907800   -1.045500    0.649200
  C     -3.561000   -2.061600    1.588700
  C     -2.309700   -2.893200    1.536100
  C     -1.116600   -2.083100    1.951900
  O     -1.116200   -1.524200    3.082200
  N      0.026900   -1.988700    1.088000
  C      1.081000   -1.027000    1.236700
  N      2.191000   -1.045600    0.469100
  C      3.032200   -0.012100    0.753700
  C      4.327900    0.143900    0.050500
  C      5.002800   -1.001300   -0.398800
  C      6.216100   -0.888900   -1.074900
  C      6.781800    0.365000   -1.307100
  F      7.947100    0.432000   -1.999900
  C      6.139100    1.533000   -0.848100
  C      6.724200    2.898300   -1.145400
  F      6.380800    3.809700   -0.162200
  F      6.241600    3.344500   -2.361600
  F      8.106100    2.847100   -1.201100
  C      4.888000    1.414600   -0.202400
  F      4.190700    2.534500    0.120700
  C      2.585500    0.838500    1.768500
  S      1.092200    0.278100    2.300300
  N     -4.441500   -2.221500    2.617500
  S     -5.658600   -1.114300    2.364400
  C     -5.087700   -0.412100    0.965500
  N     -5.628500    0.586500    0.217900
  C     -6.921100    1.181100    0.587500
  C     -4.969600    0.960800   -0.928700
  O     -5.477700    1.840100   -1.680900
  H     -3.263000    1.868800   -2.731000
  H     -3.427700    0.176700   -3.354600
  H     -1.972800    0.691200   -2.407600
  H     -2.407200   -3.757200    2.227900
  H     -2.177700   -3.312400    0.516900
  H      0.090700   -2.645800    0.278300
  H      4.591000   -1.988000   -0.224800
  H      6.719100   -1.781000   -1.425700
  H      3.110900    1.691600    2.174900
  H     -7.028900    1.240900    1.691200
  H     -7.746200    0.565300    0.171900
  H     -7.012800    2.219400    0.203700

----------------------------
CARTESIAN COORDINATES (A.U.)
----------------------------
  NO LB      ZA    FRAG     MASS         X           Y           Z
   0 C     6.0000    0    12.011   -5.809963    1.507246   -4.732819
   1 N     7.0000    0    14.007   -7.110473    0.721119   -2.399196
   2 C     6.0000    0    12.011   -6.113453   -1.201299   -0.958469
   3 O     8.0000    0    15.999   -4.086344   -2.270317   -1.611181
   4 C     6.0000    0    12.011   -7.384672   -1.975709    1.226810
   5 C     6.0000    0    12.011   -6.729315   -3.895859    3.002208
   6 C     6.0000    0    12.011   -4.364700   -5.467356    2.902808
   7 C     6.0000    0    12.011   -2.110068   -3.936489    3.688556
   8 O     8.0000    0    15.999   -2.109312   -2.880321    5.824514
   9 N     7.0000    0    14.007    0.050834   -3.758098    2.056022
  10 C     6.0000    0    12.011    2.042794   -1.940749    2.337024
  11 N     7.0000    0    14.007    4.140390   -1.975898    0.886471
  12 C     6.0000    0    12.011    5.730028   -0.022866    1.424287
  13 C     6.0000    0    12.011    8.178546    0.271932    0.095431
  14 C     6.0000    0    12.011    9.453922   -1.892183   -0.753623
  15 C     6.0000    0    12.011   11.746727   -1.679778   -2.031267
  16 C     6.0000    0    12.011   12.815745    0.689750   -2.470061
  17 F     9.0000    0    18.998   15.017843    0.816362   -3.779263
  18 C     6.0000    0    12.011   11.601218    2.896950   -1.602677
  19 C     6.0000    0    12.011   12.706896    5.476993   -2.164492
  20 F     9.0000    0    18.998   12.057965    7.199290   -0.306514
  21 F     9.0000    0    18.998   11.794915    6.320189   -4.462777
  22 F     9.0000    0    18.998   15.318309    5.380239   -2.269750
  23 C     6.0000    0    12.011    9.236981    2.673207   -0.382481
  24 F     9.0000    0    18.998    7.919275    4.789511    0.228090
  25 C     6.0000    0    12.011    4.885887    1.584535    3.341981
  26 S    16.0000    0    32.060    2.063959    0.525533    4.346937
  27 N     7.0000    0    14.007   -8.393219   -4.198027    4.946358
  28 S    16.0000    0    32.060  -10.693204   -2.105722    4.468068
  29 C     6.0000    0    12.011   -9.614360   -0.778756    1.824531
  30 N     7.0000    0    14.007  -10.636324    1.108324    0.411771
  31 C     6.0000    0    12.011  -13.078984    2.231956    1.110214
  32 C     6.0000    0    12.011   -9.391183    1.815649   -1.754989
  33 O     8.0000    0    15.999  -10.351353    3.477285   -3.176441
  34 H     1.0000    0     1.008   -6.166176    3.531520   -5.160842
  35 H     1.0000    0     1.008   -6.477414    0.333915   -6.339275
  36 H     1.0000    0     1.008   -3.728052    1.306179   -4.549705
  37 H     1.0000    0     1.008   -4.548949   -7.100079    4.210121
  38 H     1.0000    0     1.008   -4.115257   -6.259529    0.976799
  39 H     1.0000    0     1.008    0.171398   -4.999837    0.525911
  40 H     1.0000    0     1.008    8.675733   -3.756776   -0.424810
  41 H     1.0000    0     1.008   12.697259   -3.365602   -2.694183
  42 H     1.0000    0     1.008    5.878749    3.196661    4.109965
  43 H     1.0000    0     1.008  -13.282696    2.344961    3.195905
  44 H     1.0000    0     1.008  -14.638197    1.068262    0.324844
  45 H     1.0000    0     1.008  -13.252271    4.194058    0.384937

--------------------------------
INTERNAL COORDINATES (ANGSTROEM)
--------------------------------
 C      0   0   0     0.000000000000     0.00000000     0.00000000
 N      1   0   0     1.473653029040     0.00000000     0.00000000
 C      2   1   0     1.376413749568   119.59025912     0.00000000
 O      3   2   1     1.260953187077   120.39392823     0.72776236
 C      3   2   1     1.399186295673   119.33857977   181.34075920
 C      5   3   2     1.426670845009   129.49321854   180.14346469
 C      6   5   3     1.503355250764   124.97779818     2.59867847
 C      7   6   5     1.500879495496   110.69487052    73.99571160
 O      8   7   6     1.260931187655   119.19804575    56.67135645
 N      8   7   6     1.436254441246   120.11519753   234.48681616
 C     10   8   7     1.434609838946   124.52111852   165.59210902
 N     11  10   8     1.349687267481   122.41799568   174.35875369
 C     12  11  10     1.362621315700   112.23897604   177.80985265
 C     13  12  11     1.482452269046   121.35307992   178.58215361
 C     14  13  12     1.403154852466   119.10420396   329.37146201
 C     15  14  13     1.393499860065   120.55169479   179.35959178
 C     16  15  14     1.395062199330   120.41891023     0.42234942
 F     17  16  15     1.357344808809   118.51897890   181.69705187
 C     17  16  15     1.409953293553   120.36776950     0.65655828
 C     19  17  16     1.514850946463   120.44181128   182.36211577
 F     20  19  17     1.383927657069   110.99436008   208.34441999
 F     20  19  17     1.382439741906   109.19115159    88.13887671
 F     20  19  17     1.383969486658   111.11376656   327.91300924
 C     14  13  12     1.411505901511   121.77230497   148.10334117
 F     24  14  13     1.358233010201   119.73154418   355.46359826
 C     13  12  11     1.397454933084   114.58214684     0.26712865
 S     26  13  12     1.681310289625   108.10256658   359.39936601
 N      6   5   3     1.363553335957   115.04997923   180.34204958
 S     28   6   5     1.664717351384   106.22458993     0.38656235
 C      5   3   2     1.376010632226   117.86692743     0.65265108
 N     30   5   3     1.359622138684   123.55670463   359.88683314
 C     31  30   5     1.470023156280   120.56949109   177.52300820
 C     31  30   5     1.374387594531   117.90850050     1.32845048
 O     33  31  30     1.263779624776   119.55707890   176.57632305
 H      1   2   3     1.110992322206   111.33295227   208.63183053
 H      1   2   3     1.110376990035   109.58212100    87.70620940
 H      1   2   3     1.111059611362   111.28154250   326.84937599
 H      7   6   5     1.111120826013   109.59164550   193.60698039
 H      7   6   5     1.109919492576   109.87917874   310.62687001
 H     10   8   7     1.044731994341   118.25902845   347.27381149
 H     15  14  13     1.083250723517   120.60612690   359.25079778
 H     16  15  14     1.082548867257   119.69032122   180.72104073
 H     26  13  12     1.081196434511   126.71890412   177.49644688
 H     32  31  30     1.110563176951   110.91626688    36.09730868
 H     32  31  30     1.110280599668   109.57244576   275.39823003
 H     32  31  30     1.110755697712   111.33473701   154.57932815

---------------------------
INTERNAL COORDINATES (A.U.)
---------------------------
 C      0   0   0     0.000000000000     0.00000000     0.00000000
 N      1   0   0     2.784800641310     0.00000000     0.00000000
 C      2   1   0     2.601045033647   119.59025912     0.00000000
 O      3   2   1     2.382856191271   120.39392823     0.72776236
 C      3   2   1     2.644078909158   119.33857977   181.34075920
 C      5   3   2     2.696017180318   129.49321854   180.14346469
 C      6   5   3     2.840929705937   124.97779818     2.59867847
 C      7   6   5     2.836251206505   110.69487052    73.99571160
 O      8   7   6     2.382814618387   119.19804575    56.67135645
 N      8   7   6     2.714127552584   120.11519753   234.48681616
 C     10   8   7     2.711019704636   124.52111852   165.59210902
 N     11  10   8     2.550539301979   122.41799568   174.35875369
 C     12  11  10     2.574981110916   112.23897604   177.80985265
 C     13  12  11     2.801428795107   121.35307992   178.58215361
 C     14  13  12     2.651578394644   119.10420396   329.37146201
 C     15  14  13     2.633333103180   120.55169479   179.35959178
 C     16  15  14     2.636285496520   120.41891023     0.42234942
 F     17  16  15     2.565009957948   118.51897890   181.69705187
 C     17  16  15     2.664425586435   120.36776950     0.65655828
 C     19  17  16     2.862653422527   120.44181128   182.36211577
 F     20  19  17     2.615244261019   110.99436008   208.34441999
 F     20  19  17     2.612432508850   109.19115159    88.13887671
 F     20  19  17     2.615323307487   111.11376656   327.91300924
 C     14  13  12     2.667359590269   121.77230497   148.10334117
 F     24  14  13     2.566688415332   119.73154418   355.46359826
 C     13  12  11     2.640807108025   114.58214684     0.26712865
 S     26  13  12     3.177215993536   108.10256658   359.39936601
 N      6   5   3     2.576742373954   115.04997923   180.34204958
 S     28   6   5     3.145859884503   106.22458993     0.38656235
 C      5   3   2     2.600283252272   117.86692743     0.65265108
 N     30   5   3     2.569313487729   123.55670463   359.88683314
 C     31  30   5     2.777941175892   120.56949109   177.52300820
 C     31  30   5     2.597216155522   117.90850050     1.32845048
 O     33  31  30     2.388197384457   119.55707890   176.57632305
 H      1   2   3     2.099471225858   111.33295227   208.63183053
 H      1   2   3     2.098308416575   109.58212100    87.70620940
 H      1   2   3     2.099598383935   111.28154250   326.84937599
 H      7   6   5     2.099714062861   109.59164550   193.60698039
 H      7   6   5     2.097443871669   109.87917874   310.62687001
 H     10   8   7     1.974257352650   118.25902845   347.27381149
 H     15  14  13     2.047047201819   120.60612690   359.25079778
 H     16  15  14     2.045720885703   119.69032122   180.72104073
 H     26  13  12     2.043165158199   126.71890412   177.49644688
 H     32  31  30     2.098660258855   110.91626688    36.09730868
 H     32  31  30     2.098126265179   109.57244576   275.39823003
 H     32  31  30     2.099024070369   111.33473701   154.57932815

---------------------
BASIS SET INFORMATION
---------------------
There are 6 groups of distinct atoms

 Group   1 Type C   : 10s4p1d contracted to 3s2p1d pattern {631/31/1}
 Group   2 Type N   : 10s4p1d contracted to 3s2p1d pattern {631/31/1}
 Group   3 Type O   : 10s4p1d contracted to 3s2p1d pattern {631/31/1}
 Group   4 Type F   : 10s4p1d contracted to 3s2p1d pattern {631/31/1}
 Group   5 Type S   : 16s10p1d contracted to 4s3p1d pattern {6631/631/1}
 Group   6 Type H   : 4s contracted to 2s pattern {31}

Atom   0C    basis set group =>   1
Atom   1N    basis set group =>   2
Atom   2C    basis set group =>   1
Atom   3O    basis set group =>   3
Atom   4C    basis set group =>   1
Atom   5C    basis set group =>   1
Atom   6C    basis set group =>   1
Atom   7C    basis set group =>   1
Atom   8O    basis set group =>   3
Atom   9N    basis set group =>   2
Atom  10C    basis set group =>   1
Atom  11N    basis set group =>   2
Atom  12C    basis set group =>   1
Atom  13C    basis set group =>   1
Atom  14C    basis set group =>   1
Atom  15C    basis set group =>   1
Atom  16C    basis set group =>   1
Atom  17F    basis set group =>   4
Atom  18C    basis set group =>   1
Atom  19C    basis set group =>   1
Atom  20F    basis set group =>   4
Atom  21F    basis set group =>   4
Atom  22F    basis set group =>   4
Atom  23C    basis set group =>   1
Atom  24F    basis set group =>   4
Atom  25C    basis set group =>   1
Atom  26S    basis set group =>   5
Atom  27N    basis set group =>   2
Atom  28S    basis set group =>   5
Atom  29C    basis set group =>   1
Atom  30N    basis set group =>   2
Atom  31C    basis set group =>   1
Atom  32C    basis set group =>   1
Atom  33O    basis set group =>   3
Atom  34H    basis set group =>   6
Atom  35H    basis set group =>   6
Atom  36H    basis set group =>   6
Atom  37H    basis set group =>   6
Atom  38H    basis set group =>   6
Atom  39H    basis set group =>   6
Atom  40H    basis set group =>   6
Atom  41H    basis set group =>   6
Atom  42H    basis set group =>   6
Atom  43H    basis set group =>   6
Atom  44H    basis set group =>   6
Atom  45H    basis set group =>   6
---------------------------------
AUXILIARY/J BASIS SET INFORMATION
---------------------------------
There are 6 groups of distinct atoms

 Group   1 Type C   : 12s5p4d2f1g contracted to 6s4p3d1f1g pattern {711111/2111/211/2/1}
 Group   2 Type N   : 12s5p4d2f1g contracted to 6s4p3d1f1g pattern {711111/2111/211/2/1}
 Group   3 Type O   : 12s5p4d2f1g contracted to 6s4p3d1f1g pattern {711111/2111/211/2/1}
 Group   4 Type F   : 12s5p4d2f1g contracted to 6s4p3d1f1g pattern {711111/2111/211/2/1}
 Group   5 Type S   : 14s5p5d2f1g contracted to 8s4p3d1f1g pattern {71111111/2111/311/2/1}
 Group   6 Type H   : 5s2p1d contracted to 3s1p1d pattern {311/2/1}

Atom   0C    basis set group =>   1
Atom   1N    basis set group =>   2
Atom   2C    basis set group =>   1
Atom   3O    basis set group =>   3
Atom   4C    basis set group =>   1
Atom   5C    basis set group =>   1
Atom   6C    basis set group =>   1
Atom   7C    basis set group =>   1
Atom   8O    basis set group =>   3
Atom   9N    basis set group =>   2
Atom  10C    basis set group =>   1
Atom  11N    basis set group =>   2
Atom  12C    basis set group =>   1
Atom  13C    basis set group =>   1
Atom  14C    basis set group =>   1
Atom  15C    basis set group =>   1
Atom  16C    basis set group =>   1
Atom  17F    basis set group =>   4
Atom  18C    basis set group =>   1
Atom  19C    basis set group =>   1
Atom  20F    basis set group =>   4
Atom  21F    basis set group =>   4
Atom  22F    basis set group =>   4
Atom  23C    basis set group =>   1
Atom  24F    basis set group =>   4
Atom  25C    basis set group =>   1
Atom  26S    basis set group =>   5
Atom  27N    basis set group =>   2
Atom  28S    basis set group =>   5
Atom  29C    basis set group =>   1
Atom  30N    basis set group =>   2
Atom  31C    basis set group =>   1
Atom  32C    basis set group =>   1
Atom  33O    basis set group =>   3
Atom  34H    basis set group =>   6
Atom  35H    basis set group =>   6
Atom  36H    basis set group =>   6
Atom  37H    basis set group =>   6
Atom  38H    basis set group =>   6
Atom  39H    basis set group =>   6
Atom  40H    basis set group =>   6
Atom  41H    basis set group =>   6
Atom  42H    basis set group =>   6
Atom  43H    basis set group =>   6
Atom  44H    basis set group =>   6
Atom  45H    basis set group =>   6
------------------------------------------------------------------------------
                             ORCA STARTUP CALCULATIONS
                           -- RI-GTO INTEGRALS CHOSEN --
------------------------------------------------------------------------------
------------------------------------------------------------------------------
                   ___                                                        
                  /   \      - P O W E R E D   B Y -                         
                 /     \                                                     
                 |  |  |   _    _      __       _____    __    __             
                 |  |  |  | |  | |    /  \     |  _  \  |  |  /  |          
                  \  \/   | |  | |   /    \    | | | |  |  | /  /          
                 / \  \   | |__| |  /  /\  \   | |_| |  |  |/  /          
                |  |  |   |  __  | /  /__\  \  |    /   |      \           
                |  |  |   | |  | | |   __   |  |    \   |  |\   \          
                \     /   | |  | | |  |  |  |  | |\  \  |  | \   \       
                 \___/    |_|  |_| |__|  |__|  |_| \__\ |__|  \__/        
                                                                              
                      - O R C A' S   B I G   F R I E N D -                    
                                      &                                       
                       - I N T E G R A L  F E E D E R -                       
                                                                              
 v1 FN, 2020, v2 2021, v3 2022-2024                                           
------------------------------------------------------------------------------


----------------------
SHARK INTEGRAL PACKAGE
----------------------

Number of atoms                             ...     46
Number of basis functions                   ...    508
Number of shells                            ...    232
Maximum angular momentum                    ...      2
Integral batch strategy                     ... SHARK/LIBINT Hybrid
RI-J (if used) integral strategy            ... SPLIT-RIJ (Revised 2003 algorithm where possible)
Printlevel                                  ...      1
Contraction scheme used                     ... SEGMENTED contraction
Prescreening option                         ... SCHWARTZ
   Thresh                                   ... 1.000e-10
   Tcut                                     ... 1.000e-11
   Tpresel                                  ... 1.000e-11 
Coulomb Range Separation                    ... NOT USED
Exchange Range Separation                   ... NOT USED
Multipole approximations                    ... NOT USED
Finite Nucleus Model                        ... NOT USED
CABS basis                                  ... NOT available
Auxiliary Coulomb fitting basis             ... AVAILABLE
   # of basis functions in Aux-J            ...   1802
   # of shells in Aux-J                     ...    574
   Maximum angular momentum in Aux-J        ...      4
Auxiliary J/K fitting basis                 ... NOT available
Auxiliary Correlation fitting basis         ... NOT available
Auxiliary 'external' fitting basis          ... NOT available

Checking pre-screening integrals            ... done (  0.0 sec) Dimension = 232
Check shell pair data                       ... done (  0.0 sec)
Shell pair information
Shell pair cut-off parameter TPreSel        ...   1.0e-11
Total number of shell pairs                 ...     27028
Shell pairs after pre-screening             ...     13103
Total number of primitive shell pairs       ...    170463
Primitive shell pairs kept                  ...     43265
          la=0 lb=0:   3723 shell pairs
          la=1 lb=0:   4660 shell pairs
          la=1 lb=1:   1467 shell pairs
          la=2 lb=0:   1814 shell pairs
          la=2 lb=1:   1192 shell pairs
          la=2 lb=2:    247 shell pairs

Calculating one electron integrals          ... done (  0.1 sec)
Calculating RI/J V-Matrix + Cholesky decomp.... done (  0.6 sec)
Calculating Nuclear repulsion               ... done (  0.0 sec) ENN=   3796.647817372944 Eh

Diagonalization of the overlap matrix:
Smallest eigenvalue                        ... 5.183e-04
Time for diagonalization                   ...    0.037 sec
Threshold for overlap eigenvalues          ... 1.000e-07
Number of eigenvalues below threshold      ... 0
Time for construction of square roots      ...    0.252 sec
Total time needed                          ...    0.343 sec

-------------------
DFT GRID GENERATION
-------------------

General Integration Accuracy     IntAcc      ... 4.388
Radial Grid Type                 RadialGrid  ... OptM3 with GC (2021)
Angular Grid (max. ang.)         AngularGrid ... 4 (Lebedev-302)
Angular grid pruning method      GridPruning ... 4 (adaptive)
Weight generation scheme         WeightScheme... mBecke (2022)
Basis function cutoff            BFCut       ... 1.0000e-10
Integration weight cutoff        WCut        ... 1.0000e-14
Partially contracted basis set               ... off
Rotationally invariant grid construction     ... off
Angular grids for H and He will be reduced by one unit

Total number of grid points                  ...   245123
Total number of batches                      ...     3855
Average number of points per batch           ...       63
Average number of grid points per atom       ...     5329

--------------------
COSX GRID GENERATION
--------------------

GRIDX 1
-------
General Integration Accuracy     IntAcc      ... 3.816
Radial Grid Type                 RadialGrid  ... OptM3 with GC (2021)
Angular Grid (max. ang.)         AngularGrid ... 1 (Lebedev-50)
Angular grid pruning method      GridPruning ... 4 (adaptive)
Weight generation scheme         WeightScheme... mBecke (2022)
Basis function cutoff            BFCut       ... 1.0000e-10
Integration weight cutoff        WCut        ... 1.0000e-14
Partially contracted basis set               ... on
Rotationally invariant grid construction     ... off
Angular grids for H and He will be reduced by one unit

Total number of grid points                  ...    33005
Total number of batches                      ...      283
Average number of points per batch           ...      116
Average number of grid points per atom       ...      718
UseSFitting                                  ... on

GRIDX 2
-------
General Integration Accuracy     IntAcc      ... 4.020
Radial Grid Type                 RadialGrid  ... OptM3 with GC (2021)
Angular Grid (max. ang.)         AngularGrid ... 2 (Lebedev-110)
Angular grid pruning method      GridPruning ... 4 (adaptive)
Weight generation scheme         WeightScheme... mBecke (2022)
Basis function cutoff            BFCut       ... 1.0000e-10
Integration weight cutoff        WCut        ... 1.0000e-14
Partially contracted basis set               ... on
Rotationally invariant grid construction     ... off
Angular grids for H and He will be reduced by one unit

Total number of grid points                  ...    69440
Total number of batches                      ...      566
Average number of points per batch           ...      122
Average number of grid points per atom       ...     1510
UseSFitting                                  ... on

GRIDX 3
-------
General Integration Accuracy     IntAcc      ... 4.338
Radial Grid Type                 RadialGrid  ... OptM3 with GC (2021)
Angular Grid (max. ang.)         AngularGrid ... 3 (Lebedev-194)
Angular grid pruning method      GridPruning ... 4 (adaptive)
Weight generation scheme         WeightScheme... mBecke (2022)
Basis function cutoff            BFCut       ... 1.0000e-10
Integration weight cutoff        WCut        ... 1.0000e-14
Partially contracted basis set               ... on
Rotationally invariant grid construction     ... off
Angular grids for H and He will be reduced by one unit

Total number of grid points                  ...   153710
Total number of batches                      ...     1229
Average number of points per batch           ...      125
Average number of grid points per atom       ...     3342
UseSFitting                                  ... on
Initializing property integral containers    ... done (  0.0 sec)

SHARK setup successfully completed in   9.7 seconds

Maximum memory used throughout the entire STARTUP-calculation: 104.2 MB
-------------------------------------------------------------------------------
                                 ORCA GUESS
                   Start orbitals & Density for SCF / CASSCF
-------------------------------------------------------------------------------

------------
SCF SETTINGS
------------
Hamiltonian:
 Density Functional     Method          .... DFT(GTOs)
 Exchange Functional    Exchange        .... B88
   X-Alpha parameter    XAlpha          ....  0.666667
   Becke's b parameter  XBeta           ....  0.004200
 Correlation Functional Correlation     .... LYP
 LDA part of GGA corr.  LDAOpt          .... VWN-5
 Gradients option       PostSCFGGA      .... off
 Hybrid DFT is turned on
   Fraction HF Exchange ScalHFX         ....  0.200000
   Scaling of DF-GGA-X  ScalDFX         ....  0.720000
   Scaling of DF-GGA-C  ScalDFC         ....  0.810000
   Scaling of DF-LDA-C  ScalLDAC        ....  1.000000
   Perturbative correction              ....  0.000000
   NL short-range parameter             ....  4.800000
 RI-approximation to the Coulomb term is turned on
   Number of AuxJ basis functions       .... 1802
   RIJ-COSX (HFX calculated with COS-X)).... on


General Settings:
 Integral files         IntName         .... /home/nmrbox/aojoawo/Documents/ERDOS/inputs/CHEMBL3941901
 Hartree-Fock type      HFTyp           .... RHF
 Total Charge           Charge          ....    0
 Multiplicity           Mult            ....    1
 Number of Electrons    NEL             ....  262
 Basis Dimension        Dim             ....  508
 Nuclear Repulsion      ENuc            ....   3796.6478173729 Eh

Convergence Acceleration:
 AO-DIIS                CNVDIIS         .... on
   Start iteration      DIISMaxIt       ....    12
   Startup error        DIISStart       ....  0.200000
   # of expansion vecs  DIISMaxEq       ....     5
   Bias factor          DIISBfac        ....   1.050
   Max. coefficient     DIISMaxC        ....  10.000
 MO-DIIS                CNVKDIIS        .... off
 Trust-Rad. Augm. Hess. CNVTRAH         .... auto
   Auto Start mean grad. ratio tolernc. ....  1.125000
   Auto Start start iteration           ....    50
   Auto Start num. interpolation iter.  ....    10
   Max. Number of Micro iterations      ....    24
   Max. Number of Macro iterations      .... Maxiter - #DIIS iter
   Number of Davidson start vectors     ....     2
   Converg. threshold    (grad. norm)   ....   5.000e-05
   Grad. Scal. Fac. for Micro threshold ....   0.100
   Minimum threshold for Micro iter.    ....   1.000e-02
   NR start threshold (gradient norm)   ....   1.000e-04
   Initial trust radius                 ....   0.400
   Minimum AH scaling param. (alpha)    ....   1.000
   Maximum AH scaling param. (alpha)    .... 1000.000
   Quad. conv. algorithm                .... NR
   White noise on init. David. guess    .... on
   Maximum white noise                  ....   0.010
   Pseudo random numbers                .... off
   Inactive MOs                         .... canonical
   Orbital update algorithm             .... Taylor
   Preconditioner                       .... Diag
   Full preconditioner red. dimension   ....   250
 SOSCF                  CNVSOSCF        .... on
   Start iteration      SOSCFMaxIt      ....   150
   Startup grad/error   SOSCFStart      ....  0.003300
   Hessian update       SOSCFHessUp     .... L-BFGS
 Level Shifting         CNVShift        .... on
   Level shift para.    LevelShift      ....    0.2500
   Turn off err/grad.   ShiftErr        ....    0.0010
 Zerner damping         CNVZerner       .... off
 Static damping         CNVDamp         .... on
   Fraction old density DampFac         ....    0.7000
   Max. Damping (<1)    DampMax         ....    0.9800
   Min. Damping (>=0)   DampMin         ....    0.0000
   Turn off err/grad.   DampErr         ....    0.1000

SCF Procedure:
 Maximum # iterations   MaxIter         ....   125
 SCF integral mode      SCFMode         .... Direct
   Integral package                     .... SHARK and LIBINT hybrid scheme
 Reset frequency        DirectResetFreq ....    20
 Integral Threshold     Thresh          ....  1.000e-10 Eh
 Primitive CutOff       TCut            ....  1.000e-11 Eh

Convergence Tolerance:
 Convergence Check Mode ConvCheckMode   .... Total+1el-Energy
 Convergence forced     ConvForced      .... 0
 Energy Change          TolE            ....  1.000e-06 Eh
 1-El. energy change                    ....  1.000e-03 Eh
 Orbital Gradient       TolG            ....  5.000e-05
 Orbital Rotation angle TolX            ....  5.000e-05
 DIIS Error             TolErr          ....  1.000e-06

------------------------------
INITIAL GUESS: MODEL POTENTIAL
------------------------------
Loading Hartree-Fock densities                     ... done
Calculating cut-offs                               ... done
Initializing the effective Hamiltonian             ... done
Setting up the integral package (SHARK)            ... done
Starting the Coulomb interaction                   ... done (   1.8 sec)
Making the grid                                    ... done (   1.0 sec)
Mapping shells                                     ... done
Starting the XC term evaluation                    ... done (   0.8 sec)
  promolecular density results
     # of electrons  =    261.984639804
     EX              =   -259.079288793
     EC              =     -9.508641006
     EX+EC           =   -268.587929799
Transforming the Hamiltonian                       ... done (   0.0 sec)
Diagonalizing the Hamiltonian                      ... done (   0.0 sec)
Back transforming the eigenvectors                 ... done (   0.1 sec)
Now organizing SCF variables                       ... done
                      ------------------
                      INITIAL GUESS DONE (   3.9 sec)
                      ------------------
             **** ENERGY FILE WAS UPDATED (/home/nmrbox/aojoawo/Documents/ERDOS/inputs/CHEMBL3941901.en.tmp) ****
Finished Guess after   4.5 sec
Maximum memory used throughout the entire GUESS-calculation: 57.4 MB

-------------------------------------------------------------------------------------------
                                      ORCA LEAN-SCF
                              memory conserving SCF solver
-------------------------------------------------------------------------------------------

----------------------------------------D-I-I-S--------------------------------------------
Iteration    Energy (Eh)           Delta-E    RMSDP     MaxDP     DIISErr   Damp  Time(sec)
-------------------------------------------------------------------------------------------
               ***  Starting incremental Fock matrix formation  ***
    1    -2524.3773181960550573     0.00e+00  2.43e-03  1.16e-01  2.82e-01  0.700  37.5
    2    -2524.8062109150714605    -4.29e-01  1.45e-03  5.65e-02  9.62e-02  0.700  17.9
                               ***Turning on AO-DIIS***
    3    -2524.9407066656694951    -1.34e-01  5.28e-04  1.80e-02  3.39e-02  0.700  16.9
    4    -2525.0311345022191745    -9.04e-02  9.53e-04  6.17e-02  1.49e-02  0.000  16.5
    5    -2525.2406295559385399    -2.09e-01  2.43e-04  9.29e-03  7.92e-03  0.000  16.7
    6    -2525.2424202473948753    -1.79e-03  8.47e-05  4.03e-03  3.47e-03  0.000  14.4
                              *** Initializing SOSCF ***
---------------------------------------S-O-S-C-F--------------------------------------
Iteration    Energy (Eh)           Delta-E    RMSDP     MaxDP     MaxGrad    Time(sec)
--------------------------------------------------------------------------------------
    7    -2525.2425757854853146    -1.56e-04  3.05e-05  1.09e-03  1.82e-03    13.7
               *** Restarting incremental Fock matrix formation ***
    8    -2525.2426044212616034    -2.86e-05  2.93e-05  1.03e-03  1.63e-04    38.2
    9    -2525.2426021385172135     2.28e-06  1.59e-05  5.69e-04  4.93e-04    20.1
   10    -2525.2426108086938257    -8.67e-06  8.06e-06  2.79e-04  7.58e-05    17.6
   11    -2525.2426104119922456     3.97e-07  4.18e-06  1.95e-04  9.31e-05    16.2
                 **** Energy Check signals convergence ****

               *****************************************************
               *                     SUCCESS                       *
               *           SCF CONVERGED AFTER  11 CYCLES          *
               *****************************************************

Recomputing exchange energy using gridx3       ... done (   65.619 sec)
Old exchange energy                            :    -52.170995377 Eh
New exchange energy                            :    -52.171035505 Eh
Exchange energy change after final integration :     -0.000040128 Eh
Total energy after final integration           :  -2525.242650540 Eh
             **** ENERGY FILE WAS UPDATED (/home/nmrbox/aojoawo/Documents/ERDOS/inputs/CHEMBL3941901.en.tmp) ****

----------------
TOTAL SCF ENERGY
----------------

Total Energy       :      -2525.24265054000398 Eh          -68715.34594 eV

Components:
Nuclear Repulsion  :       3796.64781737294379 Eh          103312.03939 eV
Electronic Energy  :      -6321.89042778493604 Eh         -172027.38424 eV
One Electron Energy:     -11029.78699036133003 Eh         -300135.76262 eV
Two Electron Energy:       4707.89656257639399 Eh          128108.37837 eV

Virial components:
Potential Energy   :      -5038.58887334845713 Eh         -137106.97363 eV
Kinetic Energy     :       2513.34622280845315 Eh           68391.62769 eV
Virial Ratio       :          2.00473330240919

DFT components:
N(Alpha)           :      130.999926155905 electrons
N(Beta)            :      130.999926155905 electrons
N(Total)           :      261.999852311809 electrons
E(X)               :     -207.500874260607 Eh       
E(C)               :      -11.142196620981 Eh       
E(XC)              :     -218.643070881588 Eh       

---------------
SCF CONVERGENCE
---------------

  Last Energy change         ...   -3.9670e-07  Tolerance :   1.0000e-06
  Last MAX-Density change    ...    1.9456e-04  Tolerance :   1.0000e-05
  Last RMS-Density change    ...    4.1831e-06  Tolerance :   1.0000e-06
  Last DIIS Error            ...    1.8209e-03  Tolerance :   1.0000e-06
  Last Orbital Gradient      ...    9.3085e-05  Tolerance :   5.0000e-05
  Last Orbital Rotation      ...    1.5237e-04  Tolerance :   5.0000e-05


----------------
ORBITAL ENERGIES
----------------

  NO   OCC          E(Eh)            E(eV) 
   0   2.0000     -88.938781     -2420.1473 
   1   2.0000     -88.902295     -2419.1544 
   2   2.0000     -24.721374      -672.7028 
   3   2.0000     -24.715071      -672.5313 
   4   2.0000     -24.714753      -672.5226 
   5   2.0000     -24.714538      -672.5168 
   6   2.0000     -24.713819      -672.4972 
   7   2.0000     -19.133848      -520.6585 
   8   2.0000     -19.132088      -520.6106 
   9   2.0000     -19.128595      -520.5155 
  10   2.0000     -14.432441      -392.7267 
  11   2.0000     -14.412464      -392.1831 
  12   2.0000     -14.392920      -391.6513 
  13   2.0000     -14.373761      -391.1299 
  14   2.0000     -14.332351      -390.0031 
  15   2.0000     -10.439345      -284.0690 
  16   2.0000     -10.347707      -281.5754 
  17   2.0000     -10.315371      -280.6955 
  18   2.0000     -10.310035      -280.5503 
  19   2.0000     -10.299777      -280.2712 
  20   2.0000     -10.295710      -280.1605 
  21   2.0000     -10.290520      -280.0193 
  22   2.0000     -10.289640      -279.9954 
  23   2.0000     -10.265430      -279.3366 
  24   2.0000     -10.255406      -279.0638 
  25   2.0000     -10.230627      -278.3895 
  26   2.0000     -10.228939      -278.3436 
  27   2.0000     -10.228654      -278.3358 
  28   2.0000     -10.218749      -278.0663 
  29   2.0000     -10.218073      -278.0479 
  30   2.0000     -10.217452      -278.0310 
  31   2.0000     -10.209650      -277.8187 
  32   2.0000     -10.205897      -277.7166 
  33   2.0000     -10.203139      -277.6415 
  34   2.0000      -8.012950      -218.0435 
  35   2.0000      -7.978641      -217.1099 
  36   2.0000      -5.977261      -162.6495 
  37   2.0000      -5.971920      -162.5042 
  38   2.0000      -5.969005      -162.4249 
  39   2.0000      -5.941756      -161.6834 
  40   2.0000      -5.937502      -161.5676 
  41   2.0000      -5.935623      -161.5165 
  42   2.0000      -1.276829       -34.7443 
  43   2.0000      -1.233685       -33.5703 
  44   2.0000      -1.227678       -33.4068 
  45   2.0000      -1.200830       -32.6762 
  46   2.0000      -1.199146       -32.6304 
  47   2.0000      -1.088471       -29.6188 
  48   2.0000      -1.039096       -28.2752 
  49   2.0000      -1.034409       -28.1477 
  50   2.0000      -1.008185       -27.4341 
  51   2.0000      -0.978074       -26.6148 
  52   2.0000      -0.974651       -26.5216 
  53   2.0000      -0.955773       -26.0079 
  54   2.0000      -0.915624       -24.9154 
  55   2.0000      -0.883801       -24.0495 
  56   2.0000      -0.831269       -22.6200 
  57   2.0000      -0.820803       -22.3352 
  58   2.0000      -0.811753       -22.0889 
  59   2.0000      -0.799905       -21.7665 
  60   2.0000      -0.780214       -21.2307 
  61   2.0000      -0.770502       -20.9664 
  62   2.0000      -0.750975       -20.4351 
  63   2.0000      -0.729487       -19.8504 
  64   2.0000      -0.717804       -19.5324 
  65   2.0000      -0.699222       -19.0268 
  66   2.0000      -0.673442       -18.3253 
  67   2.0000      -0.659019       -17.9328 
  68   2.0000      -0.643551       -17.5119 
  69   2.0000      -0.640342       -17.4246 
  70   2.0000      -0.626110       -17.0373 
  71   2.0000      -0.607756       -16.5379 
  72   2.0000      -0.593929       -16.1616 
  73   2.0000      -0.583972       -15.8907 
  74   2.0000      -0.571797       -15.5594 
  75   2.0000      -0.569987       -15.5101 
  76   2.0000      -0.567757       -15.4494 
  77   2.0000      -0.558429       -15.1956 
  78   2.0000      -0.546669       -14.8756 
  79   2.0000      -0.531990       -14.4762 
  80   2.0000      -0.526270       -14.3205 
  81   2.0000      -0.525678       -14.3044 
  82   2.0000      -0.513854       -13.9827 
  83   2.0000      -0.512309       -13.9406 
  84   2.0000      -0.506047       -13.7702 
  85   2.0000      -0.495827       -13.4921 
  86   2.0000      -0.485497       -13.2110 
  87   2.0000      -0.482380       -13.1262 
  88   2.0000      -0.478467       -13.0197 
  89   2.0000      -0.475052       -12.9268 
  90   2.0000      -0.466018       -12.6810 
  91   2.0000      -0.461272       -12.5519 
  92   2.0000      -0.454736       -12.3740 
  93   2.0000      -0.449327       -12.2268 
  94   2.0000      -0.444517       -12.0959 
  95   2.0000      -0.442110       -12.0304 
  96   2.0000      -0.440862       -11.9965 
  97   2.0000      -0.436142       -11.8680 
  98   2.0000      -0.435408       -11.8481 
  99   2.0000      -0.428514       -11.6605 
 100   2.0000      -0.422284       -11.4909 
 101   2.0000      -0.418771       -11.3953 
 102   2.0000      -0.417598       -11.3634 
 103   2.0000      -0.413736       -11.2583 
 104   2.0000      -0.412458       -11.2236 
 105   2.0000      -0.405772       -11.0416 
 106   2.0000      -0.405440       -11.0326 
 107   2.0000      -0.403612       -10.9828 
 108   2.0000      -0.399067       -10.8592 
 109   2.0000      -0.395839       -10.7713 
 110   2.0000      -0.394884       -10.7453 
 111   2.0000      -0.381159       -10.3719 
 112   2.0000      -0.378294       -10.2939 
 113   2.0000      -0.371790       -10.1169 
 114   2.0000      -0.362130        -9.8541 
 115   2.0000      -0.359994        -9.7959 
 116   2.0000      -0.353285        -9.6134 
 117   2.0000      -0.344859        -9.3841 
 118   2.0000      -0.326427        -8.8825 
 119   2.0000      -0.313460        -8.5297 
 120   2.0000      -0.293027        -7.9737 
 121   2.0000      -0.291503        -7.9322 
 122   2.0000      -0.283925        -7.7260 
 123   2.0000      -0.280856        -7.6425 
 124   2.0000      -0.278360        -7.5746 
 125   2.0000      -0.270529        -7.3615 
 126   2.0000      -0.267913        -7.2903 
 127   2.0000      -0.264742        -7.2040 
 128   2.0000      -0.255347        -6.9484 
 129   2.0000      -0.254895        -6.9361 
 130   2.0000      -0.214316        -5.8318 
 131   0.0000      -0.053544        -1.4570 
 132   0.0000      -0.045293        -1.2325 
 133   0.0000      -0.039211        -1.0670 
 134   0.0000      -0.034034        -0.9261 
 135   0.0000      -0.024899        -0.6775 
 136   0.0000      -0.004478        -0.1218 
 137   0.0000       0.006999         0.1905 
 138   0.0000       0.022146         0.6026 
 139   0.0000       0.049915         1.3583 
 140   0.0000       0.056708         1.5431 
 141   0.0000       0.060831         1.6553 
*Only the first 10 virtual orbitals were printed.

                    ********************************
                    * MULLIKEN POPULATION ANALYSIS *
                    ********************************

-----------------------
MULLIKEN ATOMIC CHARGES
-----------------------
   0 C :   -0.318043
   1 N :   -0.479847
   2 C :    0.522096
   3 O :   -0.508058
   4 C :    0.054064
   5 C :    0.195063
   6 C :   -0.407448
   7 C :    0.571952
   8 O :   -0.450496
   9 N :   -0.626501
  10 C :    0.260085
  11 N :   -0.430770
  12 C :    0.205634
  13 C :    0.022909
  14 C :   -0.130125
  15 C :   -0.213485
  16 C :    0.406151
  17 F :   -0.299114
  18 C :   -0.216460
  19 C :    0.928025
  20 F :   -0.300295
  21 F :   -0.293692
  22 F :   -0.298511
  23 C :    0.348252
  24 F :   -0.294500
  25 C :   -0.387440
  26 S :    0.315899
  27 N :   -0.473829
  28 S :    0.405925
  29 C :    0.044189
  30 N :   -0.447599
  31 C :   -0.341448
  32 C :    0.687664
  33 O :   -0.494070
  34 H :    0.199182
  35 H :    0.180750
  36 H :    0.201111
  37 H :    0.203372
  38 H :    0.181646
  39 H :    0.361583
  40 H :    0.171147
  41 H :    0.156428
  42 H :    0.190350
  43 H :    0.185606
  44 H :    0.191801
  45 H :    0.220846
Sum of atomic charges:    0.0000000

--------------------------------
MULLIKEN REDUCED ORBITAL CHARGES
--------------------------------
  0 C s       :     3.272005  s :     3.272005
      pz      :     0.849430  p :     3.000961
      px      :     1.052129
      py      :     1.099403
      dz2     :     0.012370  d :     0.045077
      dxz     :     0.008833
      dyz     :     0.009596
      dx2y2   :     0.010869
      dxy     :     0.003409

  1 N s       :     3.606750  s :     3.606750
      pz      :     1.280131  p :     3.835687
      px      :     1.220725
      py      :     1.334831
      dz2     :     0.007770  d :     0.037410
      dxz     :     0.007429
      dyz     :     0.007777
      dx2y2   :     0.007879
      dxy     :     0.006556

  2 C s       :     2.957303  s :     2.957303
      pz      :     0.861787  p :     2.412482
      px      :     0.775096
      py      :     0.775599
      dz2     :     0.017806  d :     0.108118
      dxz     :     0.027722
      dyz     :     0.015123
      dx2y2   :     0.024816
      dxy     :     0.022652

  3 O s       :     3.887520  s :     3.887520
      pz      :     1.679315  p :     4.595311
      px      :     1.369913
      py      :     1.546082
      dz2     :     0.003122  d :     0.025227
      dxz     :     0.005402
      dyz     :     0.002404
      dx2y2   :     0.007597
      dxy     :     0.006703

  4 C s       :     3.115372  s :     3.115372
      pz      :     0.943081  p :     2.791472
      px      :     0.865156
      py      :     0.983235
      dz2     :     0.008271  d :     0.039092
      dxz     :     0.008337
      dyz     :     0.007514
      dx2y2   :     0.007762
      dxy     :     0.007209

  5 C s       :     3.120463  s :     3.120463
      pz      :     0.849651  p :     2.625465
      px      :     0.864353
      py      :     0.911461
      dz2     :     0.013545  d :     0.059009
      dxz     :     0.013700
      dyz     :     0.010524
      dx2y2   :     0.010473
      dxy     :     0.010766

  6 C s       :     3.272229  s :     3.272229
      pz      :     1.096096  p :     3.097048
      px      :     0.966596
      py      :     1.034357
      dz2     :     0.008105  d :     0.038171
      dxz     :     0.003806
      dyz     :     0.009774
      dx2y2   :     0.006988
      dxy     :     0.009498

  7 C s       :     3.008984  s :     3.008984
      pz      :     0.733610  p :     2.319771
      px      :     0.787734
      py      :     0.798427
      dz2     :     0.025963  d :     0.099294
      dxz     :     0.033056
      dyz     :     0.017705
      dx2y2   :     0.010470
      dxy     :     0.012100

  8 O s       :     3.899602  s :     3.899602
      pz      :     1.342735  p :     4.524947
      px      :     1.741302
      py      :     1.440910
      dz2     :     0.009615  d :     0.025948
      dxz     :     0.005341
      dyz     :     0.007953
      dx2y2   :     0.001709
      dxy     :     0.001330

  9 N s       :     3.623909  s :     3.623909
      pz      :     1.350431  p :     3.974379
      px      :     1.250277
      py      :     1.373671
      dz2     :     0.004297  d :     0.028213
      dxz     :     0.005257
      dyz     :     0.007437
      dx2y2   :     0.005745
      dxy     :     0.005476

 10 C s       :     3.044897  s :     3.044897
      pz      :     0.944356  p :     2.622330
      px      :     0.830953
      py      :     0.847022
      dz2     :     0.013002  d :     0.072688
      dxz     :     0.012976
      dyz     :     0.010848
      dx2y2   :     0.017564
      dxy     :     0.018298

 11 N s       :     3.697074  s :     3.697074
      pz      :     1.333334  p :     3.695364
      px      :     1.032992
      py      :     1.329038
      dz2     :     0.006933  d :     0.038332
      dxz     :     0.009552
      dyz     :     0.006197
      dx2y2   :     0.008215
      dxy     :     0.007434

 12 C s       :     3.059563  s :     3.059563
      pz      :     0.927312  p :     2.675283
      px      :     0.881394
      py      :     0.866577
      dz2     :     0.010541  d :     0.059520
      dxz     :     0.011430
      dyz     :     0.009761
      dx2y2   :     0.014638
      dxy     :     0.013149

 13 C s       :     3.147214  s :     3.147214
      pz      :     1.009310  p :     2.790873
      px      :     0.935849
      py      :     0.845715
      dz2     :     0.005080  d :     0.039004
      dxz     :     0.005695
      dyz     :     0.007193
      dx2y2   :     0.010705
      dxy     :     0.010331

 14 C s       :     3.203374  s :     3.203374
      pz      :     0.950273  p :     2.890159
      px      :     0.940687
      py      :     0.999200
      dz2     :     0.005601  d :     0.036592
      dxz     :     0.005304
      dyz     :     0.005089
      dx2y2   :     0.010323
      dxy     :     0.010276

 15 C s       :     3.206834  s :     3.206834
      pz      :     1.028146  p :     2.972161
      px      :     0.994342
      py      :     0.949673
      dz2     :     0.004249  d :     0.034490
      dxz     :     0.004818
      dyz     :     0.006129
      dx2y2   :     0.008159
      dxy     :     0.011135

 16 C s       :     3.099311  s :     3.099311
      pz      :     0.868487  p :     2.421596
      px      :     0.661712
      py      :     0.891397
      dz2     :     0.009860  d :     0.072941
      dxz     :     0.013808
      dyz     :     0.011498
      dx2y2   :     0.019276
      dxy     :     0.018501

 17 F s       :     3.976671  s :     3.976671
      pz      :     1.785561  p :     5.304698
      px      :     1.596373
      py      :     1.922763
      dz2     :     0.002933  d :     0.017746
      dxz     :     0.005886
      dyz     :     0.001197
      dx2y2   :     0.004524
      dxy     :     0.003206

 18 C s       :     3.179341  s :     3.179341
      pz      :     1.085896  p :     3.002095
      px      :     0.993681
      py      :     0.922518
      dz2     :     0.005387  d :     0.035023
      dxz     :     0.005103
      dyz     :     0.005989
      dx2y2   :     0.009678
      dxy     :     0.008867

 19 C s       :     2.799859  s :     2.799859
      pz      :     0.629268  p :     2.133169
      px      :     0.658239
      py      :     0.845663
      dz2     :     0.031066  d :     0.138947
      dxz     :     0.026287
      dyz     :     0.029887
      dx2y2   :     0.029681
      dxy     :     0.022026

 20 F s       :     3.981148  s :     3.981148
      pz      :     1.691486  p :     5.302463
      px      :     1.883600
      py      :     1.727377
      dz2     :     0.003488  d :     0.016684
      dxz     :     0.002405
      dyz     :     0.005896
      dx2y2   :     0.002626
      dxy     :     0.002270

 21 F s       :     3.977358  s :     3.977358
      pz      :     1.575327  p :     5.299929
      px      :     1.853035
      py      :     1.871567
      dz2     :     0.005639  d :     0.016406
      dxz     :     0.004360
      dyz     :     0.004209
      dx2y2   :     0.001171
      dxy     :     0.001026

 22 F s       :     3.981395  s :     3.981395
      pz      :     1.903334  p :     5.300383
      px      :     1.482994
      py      :     1.914055
      dz2     :     0.002317  d :     0.016733
      dxz     :     0.003575
      dyz     :     0.000341
      dx2y2   :     0.006630
      dxy     :     0.003870

 23 C s       :     3.134021  s :     3.134021
      pz      :     0.954432  p :     2.445592
      px      :     0.830280
      py      :     0.660879
      dz2     :     0.008062  d :     0.072135
      dxz     :     0.008516
      dyz     :     0.013695
      dx2y2   :     0.020643
      dxy     :     0.021221

 24 F s       :     3.980685  s :     3.980685
      pz      :     1.872173  p :     5.296073
      px      :     1.795808
      py      :     1.628092
      dz2     :     0.002247  d :     0.017742
      dxz     :     0.001591
      dyz     :     0.003735
      dx2y2   :     0.004348
      dxy     :     0.005821

 25 C s       :     3.277435  s :     3.277435
      pz      :     1.067327  p :     3.075826
      px      :     0.931869
      py      :     1.076631
      dz2     :     0.006229  d :     0.034179
      dxz     :     0.005760
      dyz     :     0.007279
      dx2y2   :     0.007291
      dxy     :     0.007620

 26 S s       :     5.810927  s :     5.810927
      pz      :     3.408776  p :     9.763977
      px      :     3.199025
      py      :     3.156176
      dz2     :     0.013045  d :     0.109197
      dxz     :     0.018417
      dyz     :     0.028157
      dx2y2   :     0.034004
      dxy     :     0.015574

 27 N s       :     3.784640  s :     3.784640
      pz      :     1.354660  p :     3.649735
      px      :     1.044921
      py      :     1.250154
      dz2     :     0.010045  d :     0.039455
      dxz     :     0.008028
      dyz     :     0.007146
      dx2y2   :     0.004969
      dxy     :     0.009266

 28 S s       :     5.804157  s :     5.804157
      pz      :     3.198706  p :     9.660578
      px      :     3.262600
      py      :     3.199272
      dz2     :     0.031163  d :     0.129340
      dxz     :     0.021041
      dyz     :     0.026466
      dx2y2   :     0.021154
      dxy     :     0.029515

 29 C s       :     3.102008  s :     3.102008
      pz      :     0.865471  p :     2.790984
      px      :     1.027441
      py      :     0.898072
      dz2     :     0.013831  d :     0.062819
      dxz     :     0.011911
      dyz     :     0.011567
      dx2y2   :     0.014096
      dxy     :     0.011414

 30 N s       :     3.587747  s :     3.587747
      pz      :     1.235187  p :     3.819340
      px      :     1.252384
      py      :     1.331770
      dz2     :     0.008561  d :     0.040512
      dxz     :     0.009271
      dyz     :     0.006742
      dx2y2   :     0.008095
      dxy     :     0.007842

 31 C s       :     3.285649  s :     3.285649
      pz      :     1.076035  p :     3.009934
      px      :     0.832106
      py      :     1.101792
      dz2     :     0.012242  d :     0.045866
      dxz     :     0.006128
      dyz     :     0.004187
      dx2y2   :     0.011748
      dxy     :     0.011560

 32 C s       :     2.846074  s :     2.846074
      pz      :     0.766473  p :     2.343858
      px      :     0.778272
      py      :     0.799113
      dz2     :     0.031830  d :     0.122404
      dxz     :     0.022518
      dyz     :     0.020554
      dx2y2   :     0.022954
      dxy     :     0.024549

 33 O s       :     3.889629  s :     3.889629
      pz      :     1.535319  p :     4.578688
      px      :     1.639569
      py      :     1.403800
      dz2     :     0.004944  d :     0.025753
      dxz     :     0.004576
      dyz     :     0.006348
      dx2y2   :     0.005589
      dxy     :     0.004296

 34 H s       :     0.800818  s :     0.800818

 35 H s       :     0.819250  s :     0.819250

 36 H s       :     0.798889  s :     0.798889

 37 H s       :     0.796628  s :     0.796628

 38 H s       :     0.818354  s :     0.818354

 39 H s       :     0.638417  s :     0.638417

 40 H s       :     0.828853  s :     0.828853

 41 H s       :     0.843572  s :     0.843572

 42 H s       :     0.809650  s :     0.809650

 43 H s       :     0.814394  s :     0.814394

 44 H s       :     0.808199  s :     0.808199

 45 H s       :     0.779154  s :     0.779154



                     *******************************
                     * LOEWDIN POPULATION ANALYSIS *
                     *******************************

----------------------
LOEWDIN ATOMIC CHARGES
----------------------
   0 C :   -0.259561
   1 N :   -0.026245
   2 C :    0.116890
   3 O :   -0.299791
   4 C :   -0.128429
   5 C :    0.050531
   6 C :   -0.243153
   7 C :    0.157424
   8 O :   -0.256813
   9 N :   -0.187418
  10 C :   -0.076497
  11 N :   -0.187692
  12 C :   -0.013047
  13 C :   -0.046874
  14 C :   -0.086740
  15 C :   -0.159617
  16 C :    0.136956
  17 F :   -0.089089
  18 C :   -0.125821
  19 C :    0.317342
  20 F :   -0.109976
  21 F :   -0.111195
  22 F :   -0.108090
  23 C :    0.141689
  24 F :   -0.083886
  25 C :   -0.340997
  26 S :    0.426464
  27 N :   -0.311056
  28 S :    0.479747
  29 C :   -0.118155
  30 N :   -0.021079
  31 C :   -0.262367
  32 C :    0.146506
  33 O :   -0.302626
  34 H :    0.154845
  35 H :    0.142003
  36 H :    0.155767
  37 H :    0.167951
  38 H :    0.151679
  39 H :    0.279846
  40 H :    0.156009
  41 H :    0.150328
  42 H :    0.165988
  43 H :    0.145936
  44 H :    0.145130
  45 H :    0.167180

-------------------------------
LOEWDIN REDUCED ORBITAL CHARGES
-------------------------------
  0 C s       :     2.971732  s :     2.971732
      pz      :     0.951521  p :     3.198617
      px      :     1.105347
      py      :     1.141750
      dz2     :     0.025808  d :     0.089211
      dxz     :     0.018151
      dyz     :     0.019130
      dx2y2   :     0.019804
      dxy     :     0.006318

  1 N s       :     3.084046  s :     3.084046
      pz      :     1.273825  p :     3.844625
      px      :     1.242168
      py      :     1.328631
      dz2     :     0.019454  d :     0.097574
      dxz     :     0.019834
      dyz     :     0.019330
      dx2y2   :     0.019695
      dxy     :     0.019261

  2 C s       :     2.821639  s :     2.821639
      pz      :     0.954881  p :     2.803777
      px      :     0.949334
      py      :     0.899562
      dz2     :     0.041588  d :     0.257695
      dxz     :     0.066713
      dyz     :     0.036740
      dx2y2   :     0.055997
      dxy     :     0.056656

  3 O s       :     3.581569  s :     3.581569
      pz      :     1.677930  p :     4.668008
      px      :     1.430508
      py      :     1.559569
      dz2     :     0.006442  d :     0.050214
      dxz     :     0.010920
      dyz     :     0.004138
      dx2y2   :     0.013587
      dxy     :     0.015127

  4 C s       :     2.854596  s :     2.854596
      pz      :     1.058506  p :     3.164774
      px      :     1.042776
      py      :     1.063492
      dz2     :     0.022133  d :     0.109059
      dxz     :     0.024221
      dyz     :     0.021523
      dx2y2   :     0.021122
      dxy     :     0.020060

  5 C s       :     2.874900  s :     2.874900
      pz      :     0.974541  p :     2.936716
      px      :     0.983784
      py      :     0.978391
      dz2     :     0.030645  d :     0.137853
      dxz     :     0.034780
      dyz     :     0.024580
      dx2y2   :     0.024030
      dxy     :     0.023817

  6 C s       :     2.932742  s :     2.932742
      pz      :     1.119993  p :     3.228660
      px      :     1.026897
      py      :     1.081770
      dz2     :     0.016211  d :     0.081752
      dxz     :     0.008137
      dyz     :     0.018897
      dx2y2   :     0.015441
      dxy     :     0.023065

  7 C s       :     2.867817  s :     2.867817
      pz      :     0.940181  p :     2.745626
      px      :     0.929693
      py      :     0.875751
      dz2     :     0.058544  d :     0.229133
      dxz     :     0.080334
      dyz     :     0.040370
      dx2y2   :     0.023117
      dxy     :     0.026768

  8 O s       :     3.590516  s :     3.590516
      pz      :     1.421761  p :     4.615462
      px      :     1.733464
      py      :     1.460237
      dz2     :     0.019483  d :     0.050835
      dxz     :     0.009039
      dyz     :     0.017147
      dx2y2   :     0.002817
      dxy     :     0.002349

  9 N s       :     3.153557  s :     3.153557
      pz      :     1.341808  p :     3.965129
      px      :     1.263103
      py      :     1.360217
      dz2     :     0.010473  d :     0.068732
      dxz     :     0.014948
      dyz     :     0.014411
      dx2y2   :     0.014817
      dxy     :     0.014082

 10 C s       :     2.896268  s :     2.896268
      pz      :     1.037684  p :     3.012774
      px      :     0.978581
      py      :     0.996509
      dz2     :     0.028002  d :     0.167455
      dxz     :     0.030947
      dyz     :     0.026320
      dx2y2   :     0.040520
      dxy     :     0.041666

 11 N s       :     3.246652  s :     3.246652
      pz      :     1.370589  p :     3.857166
      px      :     1.129133
      py      :     1.357445
      dz2     :     0.011245  d :     0.083874
      dxz     :     0.023997
      dyz     :     0.010442
      dx2y2   :     0.020176
      dxy     :     0.018014

 12 C s       :     2.855945  s :     2.855945
      pz      :     1.018050  p :     3.013052
      px      :     0.996100
      py      :     0.998901
      dz2     :     0.024580  d :     0.144050
      dxz     :     0.026074
      dyz     :     0.025242
      dx2y2   :     0.034617
      dxy     :     0.033537

 13 C s       :     2.870154  s :     2.870154
      pz      :     1.010401  p :     3.078174
      px      :     1.022324
      py      :     1.045449
      dz2     :     0.010659  d :     0.098546
      dxz     :     0.012647
      dyz     :     0.017461
      dx2y2   :     0.029581
      dxy     :     0.028197

 14 C s       :     2.915329  s :     2.915329
      pz      :     0.974137  p :     3.085605
      px      :     1.032172
      py      :     1.079296
      dz2     :     0.011140  d :     0.085806
      dxz     :     0.013357
      dyz     :     0.011399
      dx2y2   :     0.024962
      dxy     :     0.024948

 15 C s       :     2.917999  s :     2.917999
      pz      :     1.037211  p :     3.159326
      px      :     1.061323
      py      :     1.060792
      dz2     :     0.008747  d :     0.082292
      dxz     :     0.011414
      dyz     :     0.013091
      dx2y2   :     0.021683
      dxy     :     0.027356

 16 C s       :     2.863048  s :     2.863048
      pz      :     0.922549  p :     2.821053
      px      :     0.825508
      py      :     1.072996
      dz2     :     0.021296  d :     0.178943
      dxz     :     0.034369
      dyz     :     0.027365
      dx2y2   :     0.047224
      dxy     :     0.048688

 17 F s       :     3.737102  s :     3.737102
      pz      :     1.786413  p :     5.316854
      px      :     1.610758
      py      :     1.919683
      dz2     :     0.005748  d :     0.035133
      dxz     :     0.011904
      dyz     :     0.002287
      dx2y2   :     0.009074
      dxy     :     0.006120

 18 C s       :     2.893155  s :     2.893155
      pz      :     1.072055  p :     3.143404
      px      :     1.051829
      py      :     1.019520
      dz2     :     0.011256  d :     0.089261
      dxz     :     0.012510
      dyz     :     0.013877
      dx2y2   :     0.026879
      dxy     :     0.024739

 19 C s       :     2.848993  s :     2.848993
      pz      :     0.781911  p :     2.503271
      px      :     0.796383
      py      :     0.924976
      dz2     :     0.076604  d :     0.330394
      dxz     :     0.059859
      dyz     :     0.071124
      dx2y2   :     0.073031
      dxy     :     0.049776

 20 F s       :     3.760256  s :     3.760256
      pz      :     1.702413  p :     5.318313
      px      :     1.879693
      py      :     1.736207
      dz2     :     0.005941  d :     0.031407
      dxz     :     0.004280
      dyz     :     0.012417
      dx2y2   :     0.004934
      dxy     :     0.003834

 21 F s       :     3.761959  s :     3.761959
      pz      :     1.596758  p :     5.317931
      px      :     1.852214
      py      :     1.868958
      dz2     :     0.010906  d :     0.031306
      dxz     :     0.008030
      dyz     :     0.008547
      dx2y2   :     0.002022
      dxy     :     0.001802

 22 F s       :     3.760286  s :     3.760286
      pz      :     1.900361  p :     5.316365
      px      :     1.507419
      py      :     1.908585
      dz2     :     0.004700  d :     0.031439
      dxz     :     0.005639
      dyz     :     0.000529
      dx2y2   :     0.013997
      dxy     :     0.006574

 23 C s       :     2.864256  s :     2.864256
      pz      :     0.978747  p :     2.818159
      px      :     0.968389
      py      :     0.871023
      dz2     :     0.018513  d :     0.175895
      dxz     :     0.020036
      dyz     :     0.030355
      dx2y2   :     0.053498
      dxy     :     0.053493

 24 F s       :     3.737296  s :     3.737296
      pz      :     1.869872  p :     5.311103
      px      :     1.798287
      py      :     1.642943
      dz2     :     0.004552  d :     0.035487
      dxz     :     0.003162
      dyz     :     0.007611
      dx2y2   :     0.008707
      dxy     :     0.011454

 25 C s       :     2.985585  s :     2.985585
      pz      :     1.101576  p :     3.275462
      px      :     1.054879
      py      :     1.119007
      dz2     :     0.013886  d :     0.079950
      dxz     :     0.014905
      dyz     :     0.016419
      dx2y2   :     0.017666
      dxy     :     0.017074

 26 S s       :     5.530781  s :     5.530781
      pz      :     3.447852  p :     9.912986
      px      :     3.269515
      py      :     3.195619
      dz2     :     0.014087  d :     0.129769
      dxz     :     0.020730
      dyz     :     0.034849
      dx2y2   :     0.041288
      dxy     :     0.018815

 27 N s       :     3.390150  s :     3.390150
      pz      :     1.396559  p :     3.840099
      px      :     1.137011
      py      :     1.306530
      dz2     :     0.017908  d :     0.080807
      dxz     :     0.018219
      dyz     :     0.010677
      dx2y2   :     0.011446
      dxy     :     0.022557

 28 S s       :     5.546816  s :     5.546816
      pz      :     3.246372  p :     9.817491
      px      :     3.346237
      py      :     3.224882
      dz2     :     0.036701  d :     0.155945
      dxz     :     0.024312
      dyz     :     0.034732
      dx2y2   :     0.024120
      dxy     :     0.036081

 29 C s       :     2.883571  s :     2.883571
      pz      :     1.031678  p :     3.081856
      px      :     1.056539
      py      :     0.993639
      dz2     :     0.032729  d :     0.152729
      dxz     :     0.029395
      dyz     :     0.029899
      dx2y2   :     0.032201
      dxy     :     0.028505

 30 N s       :     3.060392  s :     3.060392
      pz      :     1.262011  p :     3.854909
      px      :     1.258370
      py      :     1.334527
      dz2     :     0.022963  d :     0.105779
      dxz     :     0.024451
      dyz     :     0.019446
      dx2y2   :     0.019653
      dxy     :     0.019265

 31 C s       :     2.973090  s :     2.973090
      pz      :     1.127069  p :     3.198756
      px      :     0.937912
      py      :     1.133775
      dz2     :     0.023235  d :     0.090521
      dxz     :     0.012599
      dyz     :     0.007573
      dx2y2   :     0.023849
      dxy     :     0.023264

 32 C s       :     2.803944  s :     2.803944
      pz      :     0.924410  p :     2.765486
      px      :     0.923557
      py      :     0.917519
      dz2     :     0.072455  d :     0.284065
      dxz     :     0.053338
      dyz     :     0.049937
      dx2y2   :     0.049983
      dxy     :     0.058351

 33 O s       :     3.587518  s :     3.587518
      pz      :     1.566687  p :     4.664598
      px      :     1.651560
      py      :     1.446350
      dz2     :     0.007747  d :     0.050511
      dxz     :     0.008812
      dyz     :     0.015360
      dx2y2   :     0.009115
      dxy     :     0.009478

 34 H s       :     0.845155  s :     0.845155

 35 H s       :     0.857997  s :     0.857997

 36 H s       :     0.844233  s :     0.844233

 37 H s       :     0.832049  s :     0.832049

 38 H s       :     0.848321  s :     0.848321

 39 H s       :     0.720154  s :     0.720154

 40 H s       :     0.843991  s :     0.843991

 41 H s       :     0.849672  s :     0.849672

 42 H s       :     0.834012  s :     0.834012

 43 H s       :     0.854064  s :     0.854064

 44 H s       :     0.854870  s :     0.854870

 45 H s       :     0.832820  s :     0.832820



                      *****************************
                      * MAYER POPULATION ANALYSIS *
                      *****************************

  NA   - Mulliken gross atomic population
  ZA   - Total nuclear charge
  QA   - Mulliken gross atomic charge
  VA   - Mayer's total valence
  BVA  - Mayer's bonded valence
  FA   - Mayer's free valence

  ATOM       NA         ZA         QA         VA         BVA        FA
  0 C      6.3180     6.0000    -0.3180     3.7624     3.7624    -0.0000
  1 N      7.4798     7.0000    -0.4798     3.0600     3.0600    -0.0000
  2 C      5.4779     6.0000     0.5221     3.9018     3.9018    -0.0000
  3 O      8.5081     8.0000    -0.5081     2.0277     2.0277    -0.0000
  4 C      5.9459     6.0000     0.0541     3.8682     3.8682    -0.0000
  5 C      5.8049     6.0000     0.1951     3.9459     3.9459    -0.0000
  6 C      6.4074     6.0000    -0.4074     3.7879     3.7879    -0.0000
  7 C      5.4280     6.0000     0.5720     3.8791     3.8791    -0.0000
  8 O      8.4505     8.0000    -0.4505     2.0718     2.0718    -0.0000
  9 N      7.6265     7.0000    -0.6265     2.9537     2.9537    -0.0000
 10 C      5.7399     6.0000     0.2601     3.8287     3.8287     0.0000
 11 N      7.4308     7.0000    -0.4308     2.9703     2.9703    -0.0000
 12 C      5.7944     6.0000     0.2056     3.9815     3.9815    -0.0000
 13 C      5.9771     6.0000     0.0229     3.8897     3.8897     0.0000
 14 C      6.1301     6.0000    -0.1301     3.8962     3.8962     0.0000
 15 C      6.2135     6.0000    -0.2135     3.8699     3.8699     0.0000
 16 C      5.5938     6.0000     0.4062     3.8240     3.8240     0.0000
 17 F      9.2991     9.0000    -0.2991     1.0748     1.0748     0.0000
 18 C      6.2165     6.0000    -0.2165     3.7759     3.7759    -0.0000
 19 C      5.0720     6.0000     0.9280     3.9207     3.9207    -0.0000
 20 F      9.3003     9.0000    -0.3003     1.0618     1.0618     0.0000
 21 F      9.2937     9.0000    -0.2937     1.0622     1.0622     0.0000
 22 F      9.2985     9.0000    -0.2985     1.0652     1.0652     0.0000
 23 C      5.6517     6.0000     0.3483     3.7805     3.7805     0.0000
 24 F      9.2945     9.0000    -0.2945     1.0809     1.0809    -0.0000
 25 C      6.3874     6.0000    -0.3874     3.7798     3.7798    -0.0000
 26 S     15.6841    16.0000     0.3159     2.5568     2.5568     0.0000
 27 N      7.4738     7.0000    -0.4738     2.8752     2.8752    -0.0000
 28 S     15.5941    16.0000     0.4059     2.5073     2.5073     0.0000
 29 C      5.9558     6.0000     0.0442     3.7229     3.7229    -0.0000
 30 N      7.4476     7.0000    -0.4476     3.1015     3.1015     0.0000
 31 C      6.3414     6.0000    -0.3414     3.7524     3.7524    -0.0000
 32 C      5.3123     6.0000     0.6877     3.9390     3.9390    -0.0000
 33 O      8.4941     8.0000    -0.4941     2.0441     2.0441     0.0000
 34 H      0.8008     1.0000     0.1992     0.9329     0.9329    -0.0000
 35 H      0.8193     1.0000     0.1807     0.9270     0.9270     0.0000
 36 H      0.7989     1.0000     0.2011     0.9324     0.9324     0.0000
 37 H      0.7966     1.0000     0.2034     0.9234     0.9234     0.0000
 38 H      0.8184     1.0000     0.1816     0.9363     0.9363    -0.0000
 39 H      0.6384     1.0000     0.3616     0.8520     0.8520    -0.0000
 40 H      0.8289     1.0000     0.1711     0.9400     0.9400     0.0000
 41 H      0.8436     1.0000     0.1564     0.9360     0.9360    -0.0000
 42 H      0.8097     1.0000     0.1903     0.9416     0.9416     0.0000
 43 H      0.8144     1.0000     0.1856     0.9267     0.9267     0.0000
 44 H      0.8082     1.0000     0.1918     0.9203     0.9203     0.0000
 45 H      0.7792     1.0000     0.2208     0.9312     0.9312    -0.0000

  Mayer bond orders larger than 0.100000
B(  0-C ,  1-N ) :   0.9133 B(  0-C , 34-H ) :   0.9250 B(  0-C , 35-H ) :   0.9396 
B(  0-C , 36-H ) :   0.9228 B(  1-N ,  2-C ) :   0.9861 B(  1-N , 32-C ) :   1.0413 
B(  2-C ,  3-O ) :   1.7549 B(  2-C ,  4-C ) :   1.0928 B(  4-C ,  5-C ) :   1.2395 
B(  4-C , 29-C ) :   1.3480 B(  5-C ,  6-C ) :   1.0067 B(  5-C , 27-N ) :   1.5394 
B(  6-C ,  7-C ) :   0.9444 B(  6-C , 37-H ) :   0.9021 B(  6-C , 38-H ) :   0.9054 
B(  7-C ,  8-O ) :   1.8334 B(  7-C ,  9-N ) :   1.0314 B(  9-N , 10-C ) :   0.9538 
B(  9-N , 39-H ) :   0.8053 B( 10-C , 11-N ) :   1.4843 B( 10-C , 25-C ) :   0.1078 
B( 10-C , 26-S ) :   1.1794 B( 11-N , 12-C ) :   1.2912 B( 12-C , 13-C ) :   1.0141 
B( 12-C , 25-C ) :   1.5274 B( 13-C , 14-C ) :   1.4008 B( 13-C , 23-C ) :   1.3323 
B( 14-C , 15-C ) :   1.4143 B( 14-C , 40-H ) :   0.9126 B( 15-C , 16-C ) :   1.3865 
B( 15-C , 41-H ) :   0.9178 B( 16-C , 17-F ) :   0.9497 B( 16-C , 18-C ) :   1.3234 
B( 18-C , 19-C ) :   0.9450 B( 18-C , 23-C ) :   1.3107 B( 19-C , 20-F ) :   0.9563 
B( 19-C , 21-F ) :   0.9978 B( 19-C , 22-F ) :   0.9584 B( 23-C , 24-F ) :   0.9529 
B( 25-C , 26-S ) :   1.1148 B( 25-C , 42-H ) :   0.9007 B( 27-N , 28-S ) :   1.0951 
B( 27-N , 29-C ) :   0.1321 B( 28-S , 29-C ) :   1.1613 B( 29-C , 30-N ) :   0.9981 
B( 30-N , 31-C ) :   0.9221 B( 30-N , 32-C ) :   1.0271 B( 31-C , 43-H ) :   0.9236 
B( 31-C , 44-H ) :   0.9316 B( 31-C , 45-H ) :   0.9185 B( 32-C , 33-O ) :   1.8010 


-------
TIMINGS
-------

Total SCF time: 0 days 0 hours 4 min 52 sec 

Total time                  ....     292.231 sec
Sum of individual times     ....     291.330 sec  ( 99.7%)

SCF preparation             ....       0.567 sec  (  0.2%)
Fock matrix formation       ....     287.679 sec  ( 98.4%)
  Startup                   ....       0.165 sec  (  0.1% of F)
  Split-RI-J                ....      40.096 sec  ( 13.9% of F)
  Chain of spheres X        ....     219.409 sec  ( 76.3% of F)
  XC integration            ....      25.971 sec  (  9.0% of F)
    XC Preparation          ....       0.000 sec  (  0.0% of XC)
    Basis function eval.    ....       9.476 sec  ( 36.5% of XC)
    Density eval.           ....       5.714 sec  ( 22.0% of XC)
    XC-Functional eval.     ....       1.151 sec  (  4.4% of XC)
    XC-Potential eval.      ....       7.338 sec  ( 28.3% of XC)
Diagonalization             ....       0.000 sec  (  0.0%)
Density matrix formation    ....       0.804 sec  (  0.3%)
Total Energy calculation    ....       0.096 sec  (  0.0%)
Population analysis         ....       0.068 sec  (  0.0%)
Orbital Transformation      ....       0.180 sec  (  0.1%)
Orbital Orthonormalization  ....       0.000 sec  (  0.0%)
DIIS solution               ....       1.387 sec  (  0.5%)
SOSCF solution              ....       0.550 sec  (  0.2%)
Finished LeanSCF after 292.3 sec

Maximum memory used throughout the entire LEANSCF-calculation: 79.0 MB

-------------------------   --------------------
FINAL SINGLE POINT ENERGY     -2525.242650540004
-------------------------   --------------------


------------------------------------------------------------------------------
                              ORCA PROPERTY CALCULATIONS
------------------------------------------------------------------------------

GBWName                                 ... /home/nmrbox/aojoawo/Documents/ERDOS/inputs/CHEMBL3941901.gbw
Number of atoms                         ...     46
Number of basis functions               ...    508
Max core memory                         ...   1024 MB

Electric properties:
Dipole moment                           ... YES
Quadrupole moment                       ...  NO
Static polarizability (Dipole/Dipole)   ...  NO
Static polarizability (Dipole/Quad.)    ...  NO
Static polarizability (Quad./Quad.)     ...  NO
Static polarizability (Velocity)        ...  NO

Atomic electric properties:
Dipole moment                           ...  NO
Quadrupole moment                       ...  NO
Static polarizability                   ...  NO

Choice of electric origin               ... Center of mass
Position of electric origin             ...     1.116825     0.427668     0.433791

General magnetic properties:
Magnetizability                         ...  NO

EPR properties:
g-Tensor (aka g-matrix)                 ...  NO
Zero-Field splitting spin-orbit         ...  NO
Zero-field splitting spin-spin          ...  NO
Hyperfine couplings                     ...  NO (   0 nuclei)
Quadrupole couplings                    ...  NO (   0 nuclei)
Contact density                         ...  NO (   0 nuclei)

NMR properties:
Chemical shifts                         ...  NO (   0 nuclei)
Spin-rotation constants                 ...  NO (   0 nuclei)
Spin-spin couplings                     ...  NO (   0 nuclei,    0 pairs)

Choice of magnetic origin               ... GIAO
Position of magnetic origin             ...     0.000000     0.000000     0.000000

Properties with geometric perturbations:
SCF Hessian                             ...  NO
IR spectrum                             ...  NO
VCD spectrum                            ...  NO
X-ray spectroscopy properties:
SCF XES/XAS/RIXS spectra                ...  NO


-------------
DIPOLE MOMENT
-------------

Method             : SCF
Type of density    : Electron Density
Multiplicity       :   1
Irrep              :   0
Energy             : -2525.2426505400039787 Eh
Relativity type    : 
Basis              : AO
                                X                 Y                 Z
Electronic contribution:     51.586451107      17.208287449      -1.058850952
Nuclear contribution   :    -53.692602345     -18.249687343       0.857643875
                        -----------------------------------------
Total Dipole Moment    :     -2.106151238      -1.041399894      -0.201207077
                        -----------------------------------------
Magnitude (a.u.)       :      2.358149924
Magnitude (Debye)      :      5.993940761



--------------------
Rotational spectrum 
--------------------
 
Rotational constants in cm-1:             0.007810             0.001284             0.001196 
Rotational constants in MHz :           234.143184            38.487462            35.857963 

Dipole components along the rotational axes: 
x,y,z [a.u.] :    -2.215241     0.113160    -0.800484 
x,y,z [Debye]:    -5.630694     0.287630    -2.034669 

 

Dipole moment calculation done in   0.0 sec 

Maximum memory used throughout the entire PROP-calculation: 39.3 MB

--------------------------------
SUGGESTED CITATIONS FOR THIS RUN
--------------------------------

Below you find a list of papers that are relevant to this ORCA run
We neither can nor want to force you to cite these papers, but we appreciate if you do
You receive ORCA, which is the product of decades of hard work by many enthusiastic individuals, for free
The only thing we kindly ask in return is that you cite our papers,
We deeply appreciate it, if you show your appreciation for ORCA by not just citing the generic ORCA reference.

Please note that relegating all ORCA citations to the supporting information does *not* help us.
SI sections are not indexed - citations you put there will not count into any citation statistics
But we need these citations in order to attract the funding resources that allow us to do what we are doing

Therefore, if you are a happy ORCA user, please consider citing a few of the papers listed below in the main body of your paper

In addition to the list printed below, the program has created the file /home/nmrbox/aojoawo/Documents/ERDOS/inputs/CHEMBL3941901.bibtex that contains the list in bibtex format
You can import this file easily into all common literature databanks and citation aid programs


List of essential papers. We consider these as the minimum necessary citations

  1. Neese,F.
     Software update: the ORCA program system, version 5.0
     WIRES Comput. Molec. Sci., 2022 12(1)e1606
     doi.org/10.1002/wcms.1606

List of papers to cite with high priority. The work reported in these papers was absolutely
necessary for this run to complete.
Our perspective: the developers of density functionals and basis sets usually get cited in chemistry papers
Good! But without the algorithms to do something with them, the functionals or basis sets would not do anything.
Hence, in our opinion, the algorithm design and method developments papers are equally worthy of getting cited

  1. Neese,F.
     An improvement of the resolution of the identity approximation for the formation of the Coulomb matrix
     J. Comp. Chem., 2003 24(14)1740-1747
     doi.org/10.1002/jcc.10318
  2. Neese,F.; Wennmohs,F.; Hansen,A.; Becker,U.
     Efficient, approximate and parallel Hartree-Fock and hybrid DFT calculations. A 'chain-of-spheres' algorithm for the Hartree-Fock exchange
     Chem. Phys., 2009 356(1-3)98-109
     doi.org/10.1016/j.chemphys.2008.10.036
  3. Helmich-Paris,B.; de Souza,B.; Neese,F.; Izsák,R.
     An improved chain of spheres for exchange algorithm
     J. Chem. Phys., 2021 155 104109
     doi.org/doi: 10.1063/5.0058766.
  4. Neese,F.
     The SHARK Integral Generation and Digestion System
     J. Comp. Chem., 2022  1-16
     doi.org/10.1002/jcc.26942

List of suggested additional citations. These are papers that are important in the 'surrounding' of 
of this run, or papers that preceded the highly important papers. If you like your results we are grateful for a citation.

  1. Izsak,R.; Neese,F.
     An overlap fitted chain of spheres exchange method
     J. Chem. Phys., 2011 135 144105
     doi.org/10.1063/1.3646921
  2. Izsak,R.; Hansen,A.; Neese,F.
     The resolution of identity and chain of spheres approximations for the LPNO-CCSD singles Fock term
     Molec. Phys., 2012 110 2413-2417
     doi.org/10.1080/00268976.2012.687466
  3. Neese,F.
     The ORCA program system
     WIRES Comput. Molec. Sci., 2012 2(1)73-78
     doi.org/10.1002/wcms.81
  4. Izsak,R.; Neese,F.; Klopper,W.
     Robust fitting techniques in the chain of spheres approximation to the Fock exchange: The role of the complementary space
     J. Chem. Phys., 2013 139 
     doi.org/10.1063/1.4819264
  5. Neese,F.
     Software update: the ORCA program system, version 4.0
     WIRES Comput. Molec. Sci., 2018 8(1)1-6
     doi.org/10.1002/wcms.1327
  6. Neese,F.; Wennmohs,F.; Becker,U.; Riplinger,C.
     The ORCA quantum chemistry program package
     J. Chem. Phys., 2020 152 Art. No. L224108
     doi.org/10.1063/5.0004608

List of optional additional citations

  1. Neese,F.
     Approximate second-order SCF convergence for spin unrestricted wavefunctions
     Chem. Phys. Lett., 2000 325(1-3)93-98
     doi.org/10.1016/s0009-2614(00)00662-x

Timings for individual modules:

Sum of individual times          ...      307.091 sec (=   5.118 min)
Startup calculation              ...        9.924 sec (=   0.165 min)   3.2 %
SCF iterations                   ...      296.987 sec (=   4.950 min)  96.7 %
Property calculations            ...        0.180 sec (=   0.003 min)   0.1 %
                             ****ORCA TERMINATED NORMALLY****
TOTAL RUN TIME: 0 days 0 hours 5 minutes 8 seconds 375 msec
