
                                 *****************
                                 * O   R   C   A *
                                 *****************

                                            #,                                       
                                            ###                                      
                                            ####                                     
                                            #####                                    
                                            ######                                   
                                           ########,                                 
                                     ,,################,,,,,                         
                               ,,#################################,,                 
                          ,,##########################################,,             
                       ,#########################################, ''#####,          
                    ,#############################################,,   '####,        
                  ,##################################################,,,,####,       
                ,###########''''           ''''###############################       
              ,#####''   ,,,,##########,,,,          '''####'''          '####       
            ,##' ,,,,###########################,,,                        '##       
           ' ,,###''''                  '''############,,,                           
         ,,##''                                '''############,,,,        ,,,,,,###''
      ,#''                                            '''#######################'''  
     '                                                          ''''####''''         
             ,#######,   #######,   ,#######,      ##                                
            ,#'     '#,  ##    ##  ,#'     '#,    #''#        ,####,   ,####,        
            ##       ##  ##   ,#'  ##            #'  '#       #'       #'  '#        
            ##       ##  #######   ##           ,######,      #####,   #    #        
            '#,     ,#'  ##    ##  '#,     ,#' ,#      #,     #,   #   #,  ,#        
             '#######'   ##     ##  '#######'  #'      '#     '####' # '####'        



                #########################################################
                #                        -***-                          #
                #          Department of theory and spectroscopy        #
                #                                                       #
                #                      Frank Neese                      #
                #                                                       #
                #     Directorship, Architecture, Infrastructure        #
                #                    SHARK, DRIVERS                     #
                #        Core code/Algorithms in most modules           #
                #                                                       #
                #        Max Planck Institute fuer Kohlenforschung      #
                #                Kaiser Wilhelm Platz 1                 #
                #                 D-45470 Muelheim/Ruhr                 #
                #                      Germany                          #
                #                                                       #
                #                  All rights reserved                  #
                #                        -***-                          #
                #########################################################


                         Program Version 6.0.0  -   RELEASE  -


 With contributions from (in alphabetic order):
   Daniel Aravena         : Magnetic Suceptibility
   Michael Atanasov       : Ab Initio Ligand Field Theory (pilot matlab implementation)
   Alexander A. Auer      : GIAO ZORA, VPT2 properties, NMR spectrum
   Ute Becker             : All parallelization in ORCA, NUMFREQ, NUMCALC
   Giovanni Bistoni       : ED, misc. LED, open-shell LED, HFLD
   Martin Brehm           : Molecular dynamics
   Dmytro Bykov           : pre 5.0 version of the SCF Hessian
   Marcos Casanova-Páez   : Triplet and SCS-CIS(D). UHF-(DLPNO)-IP/EA/STEOM-CCSD. UHF-CVS-IP/STEOM-CCSD
   Vijay G. Chilkuri      : MRCI spin determinant printing, contributions to CSF-ICE
   Pauline Colinet        : FMM embedding
   Dipayan Datta          : RHF DLPNO-CCSD density
   Achintya Kumar Dutta   : EOM-CC, STEOM-CC
   Nicolas Foglia         : Exact transition moments, OPA infrastructure, MCD improvements
   Dmitry Ganyushin       : Spin-Orbit,Spin-Spin,Magnetic field MRCI
   Miquel Garcia          : C-PCM and meta-GGA Hessian, CCSD/C-PCM, Gaussian charge scheme
   Tiago L. C. Gouveia    : GS-ROHF, GS-ROCIS
   Yang Guo               : DLPNO-NEVPT2, F12-NEVPT2, CIM, IAO-localization
   Andreas Hansen         : Spin unrestricted coupled pair/coupled cluster methods
   Ingolf Harden          : AUTO-CI MPn and infrastructure 
   Benjamin Helmich-Paris : MC-RPA, TRAH-(SCF,CASSCF), AVAS, COSX integrals, SCF dyn. polar.
   Lee Huntington         : MR-EOM, pCC
   Robert Izsak           : Overlap fitted RIJCOSX, COSX-SCS-MP3, EOM
   Riya Kayal             : Wick's Theorem for AUTO-CI, AUTO-CI UHF-CCSDT
   Emily Kempfer          : AUTO-CI, RHF CISDT and CCSDT
   Christian Kollmar      : KDIIS, OOCD, Brueckner-CCSD(T), CCSD density, CASPT2, CASPT2-K, improved NEVPT2
   Axel Koslowski         : Symmetry handling
   Simone Kossmann        : Meta GGA functionals, TD-DFT gradient, OOMP2, (MP2 Hessian; deprecated post 5.0)
   Lucas Lang             : DCDCAS
   Marvin Lechner         : AUTO-CI (C++ implementation), FIC-MRCC
   Spencer Leger          : CASSCF response
   Dagmar Lenk            : GEPOL surface, SMD, ORCA-2-JSON
   Dimitrios Liakos       : Extrapolation schemes; Compound Job, initial MDCI parallelization
   Dimitrios Manganas     : Further ROCIS development; embedding schemes. LFT, Crystal Embedding
   Dimitrios Pantazis     : SARC Basis sets
   Anastasios Papadopoulos: AUTO-CI, single reference methods and gradients
   Taras Petrenko         : pre 6.0 DFT Hessian and TD-DFT gradient, (ASA, deprecated), ECA, 1-Electron XAS/XES, NRVS
   Peter Pinski           : DLPNO-MP2, DLPNO-MP2 Gradient
   Christoph Reimann      : Effective Core Potentials
   Marius Retegan         : Local ZFS, SOC
   Christoph Riplinger    : Optimizer, TS searches, QM/MM, DLPNO-CCSD(T), (RO)-DLPNO pert. Triples
   Michael Roemelt        : Original ROCIS implementation
   Masaaki Saitow         : Open-shell DLPNO-CCSD energy and density
   Barbara Sandhoefer     : DKH picture change effects
   Kantharuban Sivalingam : CASSCF convergence/infrastructure, NEVPT2 and variants, FIC-MRCI
   Bernardo de Souza      : ESD, SOC TD-DFT
   Georgi Stoychev        : AutoAux, RI-MP2 NMR, DLPNO-MP2 response, X2C
   Van Anh Tran           : RI-MP2 g-tensors
   Willem Van den Heuvel  : Paramagnetic NMR
   Zikuan Wang            : NOTCH, Electric field optimization 
   Frank Wennmohs         : Technical directorship and infrastructure
   Hang Xu                : AUTO-CI-Response properties 


 We gratefully acknowledge several colleagues who have allowed us to
 interface, adapt or use parts of their codes:
   Stefan Grimme, W. Hujo, H. Kruse, P. Pracht,  : VdW corrections, initial TS optimization,
                  C. Bannwarth, S. Ehlert,         DFT functionals, gCP, sTDA/sTD-DF
                  L. Wittmann, M. Mueller
   Ed Valeev, F. Pavosevic, A. Kumar             : LibInt (2-el integral package), F12 methods
   Garnet Chan, S. Sharma, J. Yang, R. Olivares  : DMRG
   Ulf Ekstrom                                   : XCFun DFT Library
   Mihaly Kallay                                 : mrcc  (arbitrary order and MRCC methods)
   Frank Weinhold                                : gennbo (NPA and NBO analysis)
   Simon Mueller                                 : openCOSMO-RS
   Christopher J. Cramer and Donald G. Truhlar   : smd solvation model
   Lars Goerigk                                  : TD-DFT with DH, B97 family of functionals
   V. Asgeirsson, H. Jonsson                     : NEB implementation
   FAccTs GmbH                                   : IRC, NEB, NEB-TS, DLPNO-Multilevel, CI-OPT
                                                   MM, QMMM, 2- and 3-layer-ONIOM, Crystal-QMMM,
                                                   LR-CPCM, SF, NACMEs, symmetry and pop. for TD-DFT,
                                                   nearIR, NL-DFT gradient (VV10), updates on ESD,
                                                   ML-optimized integration grids, MBIS, APM,
                                                   GOAT, DOCKER, SOLVATOR, interface openCOSMO-RS
   S Lehtola, MJT Oliveira, MAL Marques          : LibXC Library
   Liviu Ungur et al                             : ANISO software


 Your calculation uses the libint2 library for the computation of 2-el integrals
 For citations please refer to: http://libint.valeyev.net

 Your ORCA version has been built with support for libXC version: 6.2.2
 For citations please refer to: https://libxc.gitlab.io

 This ORCA versions uses:
   CBLAS   interface :  Fast vector & matrix operations
   LAPACKE interface :  Fast linear algebra routines
   SCALAPACK package :  Parallel linear algebra routines
   Shared memory     :  Shared parallel matrices
   BLAS/LAPACK       :  OpenBLAS 0.3.27  USE64BITINT DYNAMIC_ARCH NO_AFFINITY SkylakeX SINGLE_THREADED
        Core in use  :  SkylakeX
   Copyright (c) 2011-2014, The OpenBLAS Project


Warning: RI is on but no J-basis has been assigned. Assigning Def2/J (nothing to worry about!)
================================================================================

----- Orbital basis set information -----
Your calculation utilizes the basis: 6-31G*
   H-He, Li-Ne : W. J. Hehre, R. Ditchfield and J.A. Pople, J. Chem. Phys. 56, 2257 (1972).
                 Note: He and Ne are unpublished basis sets taken from the Gaussian program.
                 Note: Li and B from J. D. Dill and J. A. Pople, J. Chem. Phys. 62, 2921 (1975).
   Na - Ar     : M. M. Francl, W. J. Pietro, W. J. Hehre, J. S. Binkley, M. S. Gordon, 
                 D. J. DeFrees and J. A. Pople, J. Chem. Phys. 77, 3654 (1982).
   K - Zn      : V. A. Rassolov, J. A. Pople, M. A. Ratner, and T. L. Windus, J. Chem. Phys. 109, 1223 (1998).

----- AuxJ basis set information -----
Your calculation utilizes the auxiliary basis: def2/J
   F. Weigend, Phys. Chem. Chem. Phys. 8, 1057 (2006).

================================================================================
                                        WARNINGS
                       Please study these warnings very carefully!
================================================================================


================================================================================
                                       INPUT FILE
================================================================================
NAME = /home/nmrbox/aojoawo/Documents/ERDOS/inputs/CHEMBL3682569.inp
|  1> ! B3LYP 6-31G* SP
|  2> 
|  3> * xyz 0 1
|  4> C -2.4219 1.2484 1.5287
|  5> C -1.5511 1.7603 0.4050
|  6> C -1.0202 0.8662 -0.5549
|  7> N -1.1724 -0.5547 -0.4260
|  8> C -0.4303 -1.3088 0.5904
|  9> C 1.0170 -0.8962 0.6146
| 10> C 1.5011 -0.0585 1.6434
| 11> C 2.8326 0.3807 1.6320
| 12> C 3.6643 -0.0191 0.5848
| 13> C 3.1995 -0.8270 -0.4212
| 14> C 1.8767 -1.2776 -0.4330
| 15> C 4.2302 -1.0951 -1.4509
| 16> C 5.5105 -0.3901 -0.9046
| 17> C 6.0760 0.5895 -1.9522
| 18> C 6.5876 -1.4377 -0.5566
| 19> C 5.0756 0.3780 0.3833
| 20> S -2.1585 -1.4056 -1.5723
| 21> O -2.7483 -0.4428 -2.5655
| 22> O -1.3188 -2.4061 -2.3177
| 23> C -3.4612 -2.2100 -0.7063
| 24> C -4.5885 -1.4816 -0.3104
| 25> C -5.5974 -2.0940 0.4379
| 26> C -5.4892 -3.4467 0.8062
| 27> C -6.5455 -4.0851 1.6225
| 28> O -6.4495 -5.2979 1.9568
| 29> O -7.6490 -3.3478 2.0427
| 30> C -4.3538 -4.1745 0.4031
| 31> C -3.3478 -3.5585 -0.3462
| 32> N -0.3130 1.3435 -1.6121
| 33> C -0.0629 2.6634 -1.7859
| 34> C -0.5134 3.5922 -0.8460
| 35> C -0.2282 4.9566 -1.0073
| 36> C -0.6583 5.8808 -0.0545
| 37> C -1.3647 5.4504 1.0695
| 38> C -1.6606 4.0949 1.2407
| 39> C -1.2521 3.1429 0.2785
| 40> H -2.8085 0.2287 1.3302
| 41> H -3.3199 1.8905 1.6460
| 42> H -1.8438 1.2391 2.4758
| 43> H -0.4912 -2.3983 0.3812
| 44> H -0.8959 -1.1532 1.5856
| 45> H 0.8453 0.2641 2.4428
| 46> H 3.2026 1.0295 2.4152
| 47> H 1.5176 -1.8942 -1.2482
| 48> H 4.3621 -2.1931 -1.5720
| 49> H 3.8926 -0.6685 -2.4215
| 50> H 6.3656 0.0450 -2.8765
| 51> H 5.3154 1.3555 -2.2172
| 52> H 6.9732 1.1098 -1.5526
| 53> H 6.8861 -2.0063 -1.4643
| 54> H 7.4915 -0.9429 -0.1404
| 55> H 6.1999 -2.1570 0.1980
| 56> H 5.1254 1.4827 0.2550
| 57> H 5.6748 0.0948 1.2769
| 58> H -4.6791 -0.4336 -0.5642
| 59> H -6.4533 -1.5034 0.7403
| 60> H -8.3748 -3.7748 2.6066
| 61> H -4.2377 -5.2167 0.6763
| 62> H -2.4740 -4.1298 -0.6305
| 63> H 0.5048 2.9822 -2.6517
| 64> H 0.3286 5.3069 -1.8690
| 65> H -0.4357 6.9332 -0.1819
| 66> H -1.6854 6.1712 1.8118
| 67> H -2.2008 3.8063 2.1316
| 68> *
| 69> 
| 70>                          ****END OF INPUT****
================================================================================

                       ****************************
                       * Single Point Calculation *
                       ****************************

---------------------------------
CARTESIAN COORDINATES (ANGSTROEM)
---------------------------------
  C     -2.421900    1.248400    1.528700
  C     -1.551100    1.760300    0.405000
  C     -1.020200    0.866200   -0.554900
  N     -1.172400   -0.554700   -0.426000
  C     -0.430300   -1.308800    0.590400
  C      1.017000   -0.896200    0.614600
  C      1.501100   -0.058500    1.643400
  C      2.832600    0.380700    1.632000
  C      3.664300   -0.019100    0.584800
  C      3.199500   -0.827000   -0.421200
  C      1.876700   -1.277600   -0.433000
  C      4.230200   -1.095100   -1.450900
  C      5.510500   -0.390100   -0.904600
  C      6.076000    0.589500   -1.952200
  C      6.587600   -1.437700   -0.556600
  C      5.075600    0.378000    0.383300
  S     -2.158500   -1.405600   -1.572300
  O     -2.748300   -0.442800   -2.565500
  O     -1.318800   -2.406100   -2.317700
  C     -3.461200   -2.210000   -0.706300
  C     -4.588500   -1.481600   -0.310400
  C     -5.597400   -2.094000    0.437900
  C     -5.489200   -3.446700    0.806200
  C     -6.545500   -4.085100    1.622500
  O     -6.449500   -5.297900    1.956800
  O     -7.649000   -3.347800    2.042700
  C     -4.353800   -4.174500    0.403100
  C     -3.347800   -3.558500   -0.346200
  N     -0.313000    1.343500   -1.612100
  C     -0.062900    2.663400   -1.785900
  C     -0.513400    3.592200   -0.846000
  C     -0.228200    4.956600   -1.007300
  C     -0.658300    5.880800   -0.054500
  C     -1.364700    5.450400    1.069500
  C     -1.660600    4.094900    1.240700
  C     -1.252100    3.142900    0.278500
  H     -2.808500    0.228700    1.330200
  H     -3.319900    1.890500    1.646000
  H     -1.843800    1.239100    2.475800
  H     -0.491200   -2.398300    0.381200
  H     -0.895900   -1.153200    1.585600
  H      0.845300    0.264100    2.442800
  H      3.202600    1.029500    2.415200
  H      1.517600   -1.894200   -1.248200
  H      4.362100   -2.193100   -1.572000
  H      3.892600   -0.668500   -2.421500
  H      6.365600    0.045000   -2.876500
  H      5.315400    1.355500   -2.217200
  H      6.973200    1.109800   -1.552600
  H      6.886100   -2.006300   -1.464300
  H      7.491500   -0.942900   -0.140400
  H      6.199900   -2.157000    0.198000
  H      5.125400    1.482700    0.255000
  H      5.674800    0.094800    1.276900
  H     -4.679100   -0.433600   -0.564200
  H     -6.453300   -1.503400    0.740300
  H     -8.374800   -3.774800    2.606600
  H     -4.237700   -5.216700    0.676300
  H     -2.474000   -4.129800   -0.630500
  H      0.504800    2.982200   -2.651700
  H      0.328600    5.306900   -1.869000
  H     -0.435700    6.933200   -0.181900
  H     -1.685400    6.171200    1.811800
  H     -2.200800    3.806300    2.131600

----------------------------
CARTESIAN COORDINATES (A.U.)
----------------------------
  NO LB      ZA    FRAG     MASS         X           Y           Z
   0 C     6.0000    0    12.011   -4.576728    2.359134    2.888824
   1 C     6.0000    0    12.011   -2.931154    3.326485    0.765339
   2 C     6.0000    0    12.011   -1.927899    1.636881   -1.048609
   3 N     7.0000    0    14.007   -2.215515   -1.048231   -0.805023
   4 C     6.0000    0    12.011   -0.813149   -2.473274    1.115694
   5 C     6.0000    0    12.011    1.921851   -1.693573    1.161426
   6 C     6.0000    0    12.011    2.836668   -0.110549    3.105576
   7 C     6.0000    0    12.011    5.352838    0.719419    3.084033
   8 C     6.0000    0    12.011    6.924523   -0.036094    1.105112
   9 C     6.0000    0    12.011    6.046179   -1.562804   -0.795953
  10 C     6.0000    0    12.011    3.546449   -2.414314   -0.818251
  11 C     6.0000    0    12.011    7.993919   -2.069439   -2.741804
  12 C     6.0000    0    12.011   10.413336   -0.737182   -1.709446
  13 C     6.0000    0    12.011   11.481976    1.113994   -3.689123
  14 C     6.0000    0    12.011   12.448760   -2.716859   -1.051822
  15 C     6.0000    0    12.011    9.591494    0.714316    0.724332
  16 S    16.0000    0    32.060   -4.078974   -2.656199   -2.971216
  17 O     8.0000    0    15.999   -5.193534   -0.836771   -4.848092
  18 O     8.0000    0    15.999   -2.492171   -4.546870   -4.379818
  19 C     6.0000    0    12.011   -6.540720   -4.176295   -1.334714
  20 C     6.0000    0    12.011   -8.671008   -2.799818   -0.586571
  21 C     6.0000    0    12.011  -10.577553   -3.957087    0.827511
  22 C     6.0000    0    12.011  -10.373085   -6.513319    1.523497
  23 C     6.0000    0    12.011  -12.369202   -7.719720    3.066081
  24 O     8.0000    0    15.999  -12.187789  -10.011580    3.697816
  25 O     8.0000    0    15.999  -14.454515   -6.326425    3.860144
  26 C     6.0000    0    12.011   -8.227490   -7.888662    0.761749
  27 C     6.0000    0    12.011   -6.326425   -6.724590   -0.654223
  28 N     7.0000    0    14.007   -0.591484    2.538847   -3.046428
  29 C     6.0000    0    12.011   -0.118864    5.033097   -3.374862
  30 C     6.0000    0    12.011   -0.970185    6.788274   -1.598708
  31 C     6.0000    0    12.011   -0.431236    9.366617   -1.903521
  32 C     6.0000    0    12.011   -1.244007   11.113101   -0.102990
  33 C     6.0000    0    12.011   -2.578909   10.299763    2.021062
  34 C     6.0000    0    12.011   -3.138079    7.738240    2.344583
  35 C     6.0000    0    12.011   -2.366126    5.939220    0.526289
  36 H     1.0000    0     1.008   -5.307296    0.432180    2.513714
  37 H     1.0000    0     1.008   -6.273702    3.572527    3.110489
  38 H     1.0000    0     1.008   -3.484277    2.341560    4.678584
  39 H     1.0000    0     1.008   -0.928233   -4.532130    0.720364
  40 H     1.0000    0     1.008   -1.693006   -2.179232    2.996350
  41 H     1.0000    0     1.008    1.597386    0.499077    4.616223
  42 H     1.0000    0     1.008    6.052037    1.945473    4.564067
  43 H     1.0000    0     1.008    2.867848   -3.579519   -2.358756
  44 H     1.0000    0     1.008    8.243174   -4.144358   -2.970649
  45 H     1.0000    0     1.008    7.355948   -1.263282   -4.575972
  46 H     1.0000    0     1.008   12.029241    0.085038   -5.435797
  47 H     1.0000    0     1.008   10.044650    2.561524   -4.189901
  48 H     1.0000    0     1.008   13.177438    2.097218   -2.933989
  49 H     1.0000    0     1.008   13.012843   -3.791358   -2.767126
  50 H     1.0000    0     1.008   14.156883   -1.781823   -0.265318
  51 H     1.0000    0     1.008   11.716113   -4.076139    0.374166
  52 H     1.0000    0     1.008    9.685602    2.801897    0.481880
  53 H     1.0000    0     1.008   10.723818    0.179146    2.412991
  54 H     1.0000    0     1.008   -8.842218   -0.819385   -1.066183
  55 H     1.0000    0     1.008  -12.194970   -2.841014    1.398964
  56 H     1.0000    0     1.008  -15.826078   -7.133338    4.925760
  57 H     1.0000    0     1.008   -8.008092   -9.858134    1.278022
  58 H     1.0000    0     1.008   -4.675182   -7.804191   -1.191472
  59 H     1.0000    0     1.008    0.953934    5.635541   -5.010987
  60 H     1.0000    0     1.008    0.620964   10.028588   -3.531898
  61 H     1.0000    0     1.008   -0.823354   13.101849   -0.343741
  62 H     1.0000    0     1.008   -3.184944   11.661878    3.423806
  63 H     1.0000    0     1.008   -4.158909    7.192865    4.028140

--------------------------------
INTERNAL COORDINATES (ANGSTROEM)
--------------------------------
 C      0   0   0     0.000000000000     0.00000000     0.00000000
 C      1   0   0     1.510971852815     0.00000000     0.00000000
 C      2   1   0     1.415159930891   120.43798177     0.00000000
 N      3   2   1     1.434829906296   121.66402815   353.68307658
 C      4   3   2     1.467122414797   121.17083590   288.17115739
 C      5   4   3     1.505158360439   110.89248197   314.13038771
 C      6   5   4     1.412276014099   120.25930022   103.87199036
 C      7   6   5     1.402112281524   120.35760647   183.15224188
 C      8   7   6     1.395776762237   118.83158702     0.32292774
 C      9   8   7     1.371414397620   121.14074645     0.00000000
 C     10   9   8     1.397490407838   121.12765520     0.02596711
 C     10   9   8     1.481385226739   112.37641963   178.18806673
 C     12  10   9     1.560332265897   104.22692747     3.51751966
 C     13  12  10     1.541710793242   110.49673288   234.56038415
 C     13  12  10     1.542308065855   110.18987586   113.80273987
 C      9   8   7     1.479884573202   126.40927783   177.88751782
 S      4   3   2     1.735058416884   119.11663654   112.89900311
 O     17   4   3     1.503759994148   110.19857127   359.01614153
 O     17   4   3     1.503900761354   109.65680889   118.40558607
 C     17   4   3     1.758989098886   108.65771352   239.50877740
 C     20  17   4     1.399324358396   119.85925467    79.93370217
 C     21  20  17     1.397449770117   120.33110119   183.31517816
 C     22  21  20     1.406111453620   120.41650439     0.26157467
 C     23  22  21     1.479753337553   120.30464489   178.72279987
 O     24  23  22     1.261687889298   120.43478352   180.15392862
 O     24  23  22     1.392081743290   120.25647310   359.40712639
 C     23  22  21     1.407592131976   118.97793161   359.64294503
 C     27  23  22     1.397477187649   120.41764993     0.29792350
 N      3   2   1     1.358535597620   120.07684725   175.59060700
 C     29   3   2     1.354582024095   122.56779909     1.26322359
 C     30  29   3     1.396077254309   120.15222566     1.29953381
 C     31  30  29     1.403190681982   120.25988282   178.48004146
 C     32  31  30     1.395334902452   120.19167225   181.16419317
 C     33  32  31     1.395571968764   120.11384887     0.54219240
 C     34  33  32     1.397943668393   120.31909040   359.20433147
 C     35  34  33     1.413861764813   120.55664216   359.86000701
 H      1   2   3     1.108444811436   112.30211182   343.31389243
 H      1   2   3     1.110160213663   110.41441030   225.74912710
 H      1   2   3     1.109632601360   109.71544854   104.79777697
 H      5   4   3     1.111073219909   110.23383634   193.40536187
 H      5   4   3     1.109692642131   109.69446613    76.48858203
 H      7   6   5     1.083136538023   120.44857621     2.26895220
 H      8   7   6     1.082240121230   120.43558133   179.47668888
 H     11  10   9     1.083374085900   120.23950976   178.40766068
 H     12  10   9     1.112504750552   109.68045192   124.47739932
 H     12  10   9     1.112666023567   109.01695925   243.29980819
 H     14  13  12     1.111161059433   110.45490380   298.67788332
 H     14  13  12     1.111527489539   110.41913723    58.72400985
 H     14  13  12     1.111467538887   110.44038404   178.59186251
 H     15  13  12     1.111902648616   110.52606680    61.63338829
 H     15  13  12     1.111343641724   110.49316099   181.57207364
 H     15  13  12     1.112261183356   110.42102963   301.61647098
 H     16   9   8     1.113239875319   108.94295809   298.54953965
 H     16   9   8     1.112548354005   109.63065962    57.41961423
 H     21  20  17     1.082093711284   120.34652717     2.13806146
 H     22  21  20     1.082967649563   118.75842114   179.31101224
 H     26  24  23     1.013458361256   120.83051294   180.36212425
 H     27  23  22     1.083650446408   120.76361536   179.60062534
 H     28  27  23     1.082005831777   119.30709674   178.84966569
 H     30  29   3     1.083294221345   119.08159552   180.18917803
 H     32  31  30     1.084095576967   120.66087657     1.04954662
 H     33  32  31     1.083202326438   119.99063717   179.95473607
 H     34  33  32     1.083240702706   119.77204100   179.25168259
 H     35  34  33     1.081114614645   117.74417228   179.37960723

---------------------------
INTERNAL COORDINATES (A.U.)
---------------------------
 C      0   0   0     0.000000000000     0.00000000     0.00000000
 C      1   0   0     2.855322997884     0.00000000     0.00000000
 C      2   1   0     2.674264705083   120.43798177     0.00000000
 N      3   2   1     2.711435571658   121.66402815   353.68307658
 C      4   3   2     2.772459568904   121.17083590   288.17115739
 C      5   4   3     2.844337089412   110.89248197   314.13038771
 C      6   5   4     2.668814892153   120.25930022   103.87199036
 C      7   6   5     2.649608221088   120.35760647   183.15224188
 C      8   7   6     2.637635824719   118.83158702     0.32292774
 C      9   8   7     2.591597627619   121.14074645     0.00000000
 C     10   9   8     2.640874145596   121.12765520     0.02596711
 C     10   9   8     2.799412377373   112.37641963   178.18806673
 C     12  10   9     2.948600660467   104.22692747     3.51751966
 C     13  12  10     2.913411176939   110.49673288   234.56038415
 C     13  12  10     2.914539858603   110.18987586   113.80273987
 C      9   8   7     2.796576553166   126.40927783   177.88751782
 S      4   3   2     3.278785234266   119.11663654   112.89900311
 O     17   4   3     2.841694560087   110.19857127   359.01614153
 O     17   4   3     2.841960571554   109.65680889   118.40558607
 C     17   4   3     3.324007669448   108.65771352   239.50877740
 C     20  17   4     2.644339809893   119.85925467    79.93370217
 C     21  20  17     2.640797351432   120.33110119   183.31517816
 C     22  21  20     2.657165561111   120.41650439     0.26157467
 C     23  22  21     2.796328553732   120.30464489   178.72279987
 O     24  23  22     2.384244577257   120.43478352   180.15392862
 O     24  23  22     2.630653250849   120.25647310   359.40712639
 C     23  22  21     2.659963637696   118.97793161   359.64294503
 C     27  23  22     2.640849163060   120.41764993     0.29792350
 N      3   2   1     2.567260222684   120.07684725   175.59060700
 C     29   3   2     2.559789051471   122.56779909     1.26322359
 C     30  29   3     2.638203672441   120.15222566     1.29953381
 C     31  30  29     2.651646102615   120.25988282   178.48004146
 C     32  31  30     2.636800830736   120.19167225   181.16419317
 C     33  32  31     2.637248821141   120.11384887     0.54219240
 C     34  33  32     2.641730683912   120.31909040   359.20433147
 C     35  34  33     2.671811526719   120.55664216   359.86000701
 H      1   2   3     2.094657128181   112.30211182   343.31389243
 H      1   2   3     2.097898768598   110.41441030   225.74912710
 H      1   2   3     2.096901725840   109.71544854   104.79777697
 H      5   4   3     2.099624100363   110.23383634   193.40536187
 H      5   4   3     2.097015186455   109.69446613    76.48858203
 H      7   6   5     2.046831422507   120.44857621     2.26895220
 H      8   7   6     2.045137440266   120.43558133   179.47668888
 H     11  10   9     2.047280322939   120.23950976   178.40766068
 H     12  10   9     2.102329301229   109.68045192   124.47739932
 H     12  10   9     2.102634063060   109.01695925   243.29980819
 H     14  13  12     2.099790093006   110.45490380   298.67788332
 H     14  13  12     2.100482545553   110.41913723    58.72400985
 H     14  13  12     2.100369255240   110.44038404   178.59186251
 H     15  13  12     2.101191493467   110.52606680    61.63338829
 H     15  13  12     2.100135123533   110.49316099   181.57207364
 H     15  13  12     2.101869025934   110.42102963   301.61647098
 H     16   9   8     2.103718485713   108.94295809   298.54953965
 H     16   9   8     2.102411699815   109.63065962    57.41961423
 H     21  20  17     2.044860765565   120.34652717     2.13806146
 H     22  21  20     2.046512269570   118.75842114   179.31101224
 H     26  24  23     1.915158750907   120.83051294   180.36212425
 H     27  23  22     2.047802568612   120.76361536   179.60062534
 H     28  27  23     2.044694697365   119.30709674   178.84966569
 H     30  29   3     2.047129400802   119.08159552   180.18917803
 H     32  31  30     2.048643743463   120.66087657     1.04954662
 H     33  32  31     2.046955744594   119.99063717   179.95473607
 H     34  33  32     2.047028265232   119.77204100   179.25168259
 H     35  34  33     2.043010541060   117.74417228   179.37960723

---------------------
BASIS SET INFORMATION
---------------------
There are 5 groups of distinct atoms

 Group   1 Type C   : 10s4p1d contracted to 3s2p1d pattern {631/31/1}
 Group   2 Type N   : 10s4p1d contracted to 3s2p1d pattern {631/31/1}
 Group   3 Type S   : 16s10p1d contracted to 4s3p1d pattern {6631/631/1}
 Group   4 Type O   : 10s4p1d contracted to 3s2p1d pattern {631/31/1}
 Group   5 Type H   : 4s contracted to 2s pattern {31}

Atom   0C    basis set group =>   1
Atom   1C    basis set group =>   1
Atom   2C    basis set group =>   1
Atom   3N    basis set group =>   2
Atom   4C    basis set group =>   1
Atom   5C    basis set group =>   1
Atom   6C    basis set group =>   1
Atom   7C    basis set group =>   1
Atom   8C    basis set group =>   1
Atom   9C    basis set group =>   1
Atom  10C    basis set group =>   1
Atom  11C    basis set group =>   1
Atom  12C    basis set group =>   1
Atom  13C    basis set group =>   1
Atom  14C    basis set group =>   1
Atom  15C    basis set group =>   1
Atom  16S    basis set group =>   3
Atom  17O    basis set group =>   4
Atom  18O    basis set group =>   4
Atom  19C    basis set group =>   1
Atom  20C    basis set group =>   1
Atom  21C    basis set group =>   1
Atom  22C    basis set group =>   1
Atom  23C    basis set group =>   1
Atom  24O    basis set group =>   4
Atom  25O    basis set group =>   4
Atom  26C    basis set group =>   1
Atom  27C    basis set group =>   1
Atom  28N    basis set group =>   2
Atom  29C    basis set group =>   1
Atom  30C    basis set group =>   1
Atom  31C    basis set group =>   1
Atom  32C    basis set group =>   1
Atom  33C    basis set group =>   1
Atom  34C    basis set group =>   1
Atom  35C    basis set group =>   1
Atom  36H    basis set group =>   5
Atom  37H    basis set group =>   5
Atom  38H    basis set group =>   5
Atom  39H    basis set group =>   5
Atom  40H    basis set group =>   5
Atom  41H    basis set group =>   5
Atom  42H    basis set group =>   5
Atom  43H    basis set group =>   5
Atom  44H    basis set group =>   5
Atom  45H    basis set group =>   5
Atom  46H    basis set group =>   5
Atom  47H    basis set group =>   5
Atom  48H    basis set group =>   5
Atom  49H    basis set group =>   5
Atom  50H    basis set group =>   5
Atom  51H    basis set group =>   5
Atom  52H    basis set group =>   5
Atom  53H    basis set group =>   5
Atom  54H    basis set group =>   5
Atom  55H    basis set group =>   5
Atom  56H    basis set group =>   5
Atom  57H    basis set group =>   5
Atom  58H    basis set group =>   5
Atom  59H    basis set group =>   5
Atom  60H    basis set group =>   5
Atom  61H    basis set group =>   5
Atom  62H    basis set group =>   5
Atom  63H    basis set group =>   5
---------------------------------
AUXILIARY/J BASIS SET INFORMATION
---------------------------------
There are 5 groups of distinct atoms

 Group   1 Type C   : 12s5p4d2f1g contracted to 6s4p3d1f1g pattern {711111/2111/211/2/1}
 Group   2 Type N   : 12s5p4d2f1g contracted to 6s4p3d1f1g pattern {711111/2111/211/2/1}
 Group   3 Type S   : 14s5p5d2f1g contracted to 8s4p3d1f1g pattern {71111111/2111/311/2/1}
 Group   4 Type O   : 12s5p4d2f1g contracted to 6s4p3d1f1g pattern {711111/2111/211/2/1}
 Group   5 Type H   : 5s2p1d contracted to 3s1p1d pattern {311/2/1}

Atom   0C    basis set group =>   1
Atom   1C    basis set group =>   1
Atom   2C    basis set group =>   1
Atom   3N    basis set group =>   2
Atom   4C    basis set group =>   1
Atom   5C    basis set group =>   1
Atom   6C    basis set group =>   1
Atom   7C    basis set group =>   1
Atom   8C    basis set group =>   1
Atom   9C    basis set group =>   1
Atom  10C    basis set group =>   1
Atom  11C    basis set group =>   1
Atom  12C    basis set group =>   1
Atom  13C    basis set group =>   1
Atom  14C    basis set group =>   1
Atom  15C    basis set group =>   1
Atom  16S    basis set group =>   3
Atom  17O    basis set group =>   4
Atom  18O    basis set group =>   4
Atom  19C    basis set group =>   1
Atom  20C    basis set group =>   1
Atom  21C    basis set group =>   1
Atom  22C    basis set group =>   1
Atom  23C    basis set group =>   1
Atom  24O    basis set group =>   4
Atom  25O    basis set group =>   4
Atom  26C    basis set group =>   1
Atom  27C    basis set group =>   1
Atom  28N    basis set group =>   2
Atom  29C    basis set group =>   1
Atom  30C    basis set group =>   1
Atom  31C    basis set group =>   1
Atom  32C    basis set group =>   1
Atom  33C    basis set group =>   1
Atom  34C    basis set group =>   1
Atom  35C    basis set group =>   1
Atom  36H    basis set group =>   5
Atom  37H    basis set group =>   5
Atom  38H    basis set group =>   5
Atom  39H    basis set group =>   5
Atom  40H    basis set group =>   5
Atom  41H    basis set group =>   5
Atom  42H    basis set group =>   5
Atom  43H    basis set group =>   5
Atom  44H    basis set group =>   5
Atom  45H    basis set group =>   5
Atom  46H    basis set group =>   5
Atom  47H    basis set group =>   5
Atom  48H    basis set group =>   5
Atom  49H    basis set group =>   5
Atom  50H    basis set group =>   5
Atom  51H    basis set group =>   5
Atom  52H    basis set group =>   5
Atom  53H    basis set group =>   5
Atom  54H    basis set group =>   5
Atom  55H    basis set group =>   5
Atom  56H    basis set group =>   5
Atom  57H    basis set group =>   5
Atom  58H    basis set group =>   5
Atom  59H    basis set group =>   5
Atom  60H    basis set group =>   5
Atom  61H    basis set group =>   5
Atom  62H    basis set group =>   5
Atom  63H    basis set group =>   5
------------------------------------------------------------------------------
                             ORCA STARTUP CALCULATIONS
                           -- RI-GTO INTEGRALS CHOSEN --
------------------------------------------------------------------------------
------------------------------------------------------------------------------
                   ___                                                        
                  /   \      - P O W E R E D   B Y -                         
                 /     \                                                     
                 |  |  |   _    _      __       _____    __    __             
                 |  |  |  | |  | |    /  \     |  _  \  |  |  /  |          
                  \  \/   | |  | |   /    \    | | | |  |  | /  /          
                 / \  \   | |__| |  /  /\  \   | |_| |  |  |/  /          
                |  |  |   |  __  | /  /__\  \  |    /   |      \           
                |  |  |   | |  | | |   __   |  |    \   |  |\   \          
                \     /   | |  | | |  |  |  |  | |\  \  |  | \   \       
                 \___/    |_|  |_| |__|  |__|  |_| \__\ |__|  \__/        
                                                                              
                      - O R C A' S   B I G   F R I E N D -                    
                                      &                                       
                       - I N T E G R A L  F E E D E R -                       
                                                                              
 v1 FN, 2020, v2 2021, v3 2022-2024                                           
------------------------------------------------------------------------------


----------------------
SHARK INTEGRAL PACKAGE
----------------------

Number of atoms                             ...     64
Number of basis functions                   ...    564
Number of shells                            ...    274
Maximum angular momentum                    ...      2
Integral batch strategy                     ... SHARK/LIBINT Hybrid
RI-J (if used) integral strategy            ... SPLIT-RIJ (Revised 2003 algorithm where possible)
Printlevel                                  ...      1
Contraction scheme used                     ... SEGMENTED contraction
Prescreening option                         ... SCHWARTZ
   Thresh                                   ... 1.000e-10
   Tcut                                     ... 1.000e-11
   Tpresel                                  ... 1.000e-11 
Coulomb Range Separation                    ... NOT USED
Exchange Range Separation                   ... NOT USED
Multipole approximations                    ... NOT USED
Finite Nucleus Model                        ... NOT USED
CABS basis                                  ... NOT available
Auxiliary Coulomb fitting basis             ... AVAILABLE
   # of basis functions in Aux-J            ...   2074
   # of shells in Aux-J                     ...    682
   Maximum angular momentum in Aux-J        ...      4
Auxiliary J/K fitting basis                 ... NOT available
Auxiliary Correlation fitting basis         ... NOT available
Auxiliary 'external' fitting basis          ... NOT available

Checking pre-screening integrals            ... done (  0.0 sec) Dimension = 274
Check shell pair data                       ... done (  0.0 sec)
Shell pair information
Shell pair cut-off parameter TPreSel        ...   1.0e-11
Total number of shell pairs                 ...     37675
Shell pairs after pre-screening             ...     19921
Total number of primitive shell pairs       ...    221650
Primitive shell pairs kept                  ...     59891
          la=0 lb=0:   6718 shell pairs
          la=1 lb=0:   7032 shell pairs
          la=1 lb=1:   1858 shell pairs
          la=2 lb=0:   2603 shell pairs
          la=2 lb=1:   1450 shell pairs
          la=2 lb=2:    260 shell pairs

Calculating one electron integrals          ... done (  0.3 sec)
Calculating RI/J V-Matrix + Cholesky decomp.... done (  0.5 sec)
Calculating Nuclear repulsion               ... done (  0.0 sec) ENN=   3972.863962395554 Eh

Diagonalization of the overlap matrix:
Smallest eigenvalue                        ... 3.555e-04
Time for diagonalization                   ...    0.052 sec
Threshold for overlap eigenvalues          ... 1.000e-07
Number of eigenvalues below threshold      ... 0
Time for construction of square roots      ...    0.046 sec
Total time needed                          ...    0.112 sec

-------------------
DFT GRID GENERATION
-------------------

General Integration Accuracy     IntAcc      ... 4.388
Radial Grid Type                 RadialGrid  ... OptM3 with GC (2021)
Angular Grid (max. ang.)         AngularGrid ... 4 (Lebedev-302)
Angular grid pruning method      GridPruning ... 4 (adaptive)
Weight generation scheme         WeightScheme... mBecke (2022)
Basis function cutoff            BFCut       ... 1.0000e-10
Integration weight cutoff        WCut        ... 1.0000e-14
Partially contracted basis set               ... off
Rotationally invariant grid construction     ... off
Angular grids for H and He will be reduced by one unit

Total number of grid points                  ...   304398
Total number of batches                      ...     4793
Average number of points per batch           ...       63
Average number of grid points per atom       ...     4756

--------------------
COSX GRID GENERATION
--------------------

GRIDX 1
-------
General Integration Accuracy     IntAcc      ... 3.816
Radial Grid Type                 RadialGrid  ... OptM3 with GC (2021)
Angular Grid (max. ang.)         AngularGrid ... 1 (Lebedev-50)
Angular grid pruning method      GridPruning ... 4 (adaptive)
Weight generation scheme         WeightScheme... mBecke (2022)
Basis function cutoff            BFCut       ... 1.0000e-10
Integration weight cutoff        WCut        ... 1.0000e-14
Partially contracted basis set               ... on
Rotationally invariant grid construction     ... off
Angular grids for H and He will be reduced by one unit

Total number of grid points                  ...    39610
Total number of batches                      ...      349
Average number of points per batch           ...      113
Average number of grid points per atom       ...      619
UseSFitting                                  ... on

GRIDX 2
-------
General Integration Accuracy     IntAcc      ... 4.020
Radial Grid Type                 RadialGrid  ... OptM3 with GC (2021)
Angular Grid (max. ang.)         AngularGrid ... 2 (Lebedev-110)
Angular grid pruning method      GridPruning ... 4 (adaptive)
Weight generation scheme         WeightScheme... mBecke (2022)
Basis function cutoff            BFCut       ... 1.0000e-10
Integration weight cutoff        WCut        ... 1.0000e-14
Partially contracted basis set               ... on
Rotationally invariant grid construction     ... off
Angular grids for H and He will be reduced by one unit

Total number of grid points                  ...    83147
Total number of batches                      ...      683
Average number of points per batch           ...      121
Average number of grid points per atom       ...     1299
UseSFitting                                  ... on

GRIDX 3
-------
General Integration Accuracy     IntAcc      ... 4.338
Radial Grid Type                 RadialGrid  ... OptM3 with GC (2021)
Angular Grid (max. ang.)         AngularGrid ... 3 (Lebedev-194)
Angular grid pruning method      GridPruning ... 4 (adaptive)
Weight generation scheme         WeightScheme... mBecke (2022)
Basis function cutoff            BFCut       ... 1.0000e-10
Integration weight cutoff        WCut        ... 1.0000e-14
Partially contracted basis set               ... on
Rotationally invariant grid construction     ... off
Angular grids for H and He will be reduced by one unit

Total number of grid points                  ...   181640
Total number of batches                      ...     1454
Average number of points per batch           ...      124
Average number of grid points per atom       ...     2838
UseSFitting                                  ... on
Initializing property integral containers    ... done (  0.0 sec)

SHARK setup successfully completed in  19.4 seconds

Maximum memory used throughout the entire STARTUP-calculation: 133.3 MB
-------------------------------------------------------------------------------
                                 ORCA GUESS
                   Start orbitals & Density for SCF / CASSCF
-------------------------------------------------------------------------------

------------
SCF SETTINGS
------------
Hamiltonian:
 Density Functional     Method          .... DFT(GTOs)
 Exchange Functional    Exchange        .... B88
   X-Alpha parameter    XAlpha          ....  0.666667
   Becke's b parameter  XBeta           ....  0.004200
 Correlation Functional Correlation     .... LYP
 LDA part of GGA corr.  LDAOpt          .... VWN-5
 Gradients option       PostSCFGGA      .... off
 Hybrid DFT is turned on
   Fraction HF Exchange ScalHFX         ....  0.200000
   Scaling of DF-GGA-X  ScalDFX         ....  0.720000
   Scaling of DF-GGA-C  ScalDFC         ....  0.810000
   Scaling of DF-LDA-C  ScalLDAC        ....  1.000000
   Perturbative correction              ....  0.000000
   NL short-range parameter             ....  4.800000
 RI-approximation to the Coulomb term is turned on
   Number of AuxJ basis functions       .... 2074
   RIJ-COSX (HFX calculated with COS-X)).... on


General Settings:
 Integral files         IntName         .... /home/nmrbox/aojoawo/Documents/ERDOS/inputs/CHEMBL3682569
 Hartree-Fock type      HFTyp           .... RHF
 Total Charge           Charge          ....    0
 Multiplicity           Mult            ....    1
 Number of Electrons    NEL             ....  264
 Basis Dimension        Dim             ....  564
 Nuclear Repulsion      ENuc            ....   3972.8639623956 Eh

Convergence Acceleration:
 AO-DIIS                CNVDIIS         .... on
   Start iteration      DIISMaxIt       ....    12
   Startup error        DIISStart       ....  0.200000
   # of expansion vecs  DIISMaxEq       ....     5
   Bias factor          DIISBfac        ....   1.050
   Max. coefficient     DIISMaxC        ....  10.000
 MO-DIIS                CNVKDIIS        .... off
 Trust-Rad. Augm. Hess. CNVTRAH         .... auto
   Auto Start mean grad. ratio tolernc. ....  1.125000
   Auto Start start iteration           ....    50
   Auto Start num. interpolation iter.  ....    10
   Max. Number of Micro iterations      ....    24
   Max. Number of Macro iterations      .... Maxiter - #DIIS iter
   Number of Davidson start vectors     ....     2
   Converg. threshold    (grad. norm)   ....   5.000e-05
   Grad. Scal. Fac. for Micro threshold ....   0.100
   Minimum threshold for Micro iter.    ....   1.000e-02
   NR start threshold (gradient norm)   ....   1.000e-04
   Initial trust radius                 ....   0.400
   Minimum AH scaling param. (alpha)    ....   1.000
   Maximum AH scaling param. (alpha)    .... 1000.000
   Quad. conv. algorithm                .... NR
   White noise on init. David. guess    .... on
   Maximum white noise                  ....   0.010
   Pseudo random numbers                .... off
   Inactive MOs                         .... canonical
   Orbital update algorithm             .... Taylor
   Preconditioner                       .... Diag
   Full preconditioner red. dimension   ....   250
 SOSCF                  CNVSOSCF        .... on
   Start iteration      SOSCFMaxIt      ....   150
   Startup grad/error   SOSCFStart      ....  0.003300
   Hessian update       SOSCFHessUp     .... L-BFGS
 Level Shifting         CNVShift        .... on
   Level shift para.    LevelShift      ....    0.2500
   Turn off err/grad.   ShiftErr        ....    0.0010
 Zerner damping         CNVZerner       .... off
 Static damping         CNVDamp         .... on
   Fraction old density DampFac         ....    0.7000
   Max. Damping (<1)    DampMax         ....    0.9800
   Min. Damping (>=0)   DampMin         ....    0.0000
   Turn off err/grad.   DampErr         ....    0.1000

SCF Procedure:
 Maximum # iterations   MaxIter         ....   125
 SCF integral mode      SCFMode         .... Direct
   Integral package                     .... SHARK and LIBINT hybrid scheme
 Reset frequency        DirectResetFreq ....    20
 Integral Threshold     Thresh          ....  1.000e-10 Eh
 Primitive CutOff       TCut            ....  1.000e-11 Eh

Convergence Tolerance:
 Convergence Check Mode ConvCheckMode   .... Total+1el-Energy
 Convergence forced     ConvForced      .... 0
 Energy Change          TolE            ....  1.000e-06 Eh
 1-El. energy change                    ....  1.000e-03 Eh
 Orbital Gradient       TolG            ....  5.000e-05
 Orbital Rotation angle TolX            ....  5.000e-05
 DIIS Error             TolErr          ....  1.000e-06

------------------------------
INITIAL GUESS: MODEL POTENTIAL
------------------------------
Loading Hartree-Fock densities                     ... done
Calculating cut-offs                               ... done
Initializing the effective Hamiltonian             ... done
Setting up the integral package (SHARK)            ... done
Starting the Coulomb interaction                   ... done (   5.7 sec)
Making the grid                                    ... done (   2.3 sec)
Mapping shells                                     ... done
Starting the XC term evaluation                    ... done (   1.7 sec)
  promolecular density results
     # of electrons  =    263.991552207
     EX              =   -228.431348889
     EC              =     -9.109959798
     EX+EC           =   -237.541308687
Transforming the Hamiltonian                       ... done (   0.0 sec)
Diagonalizing the Hamiltonian                      ... done (   0.1 sec)
Back transforming the eigenvectors                 ... done (   0.0 sec)
Now organizing SCF variables                       ... done
                      ------------------
                      INITIAL GUESS DONE (   9.9 sec)
                      ------------------
             **** ENERGY FILE WAS UPDATED (/home/nmrbox/aojoawo/Documents/ERDOS/inputs/CHEMBL3682569.en.tmp) ****
Finished Guess after  10.3 sec
Maximum memory used throughout the entire GUESS-calculation: 72.6 MB

-------------------------------------------------------------------------------------------
                                      ORCA LEAN-SCF
                              memory conserving SCF solver
-------------------------------------------------------------------------------------------

----------------------------------------D-I-I-S--------------------------------------------
Iteration    Energy (Eh)           Delta-E    RMSDP     MaxDP     DIISErr   Damp  Time(sec)
-------------------------------------------------------------------------------------------
               ***  Starting incremental Fock matrix formation  ***
    1    -1928.3871207123597742     0.00e+00  2.43e-03  1.88e-01  2.99e-01  0.700  97.9
    2    -1928.8928173638009866    -5.06e-01  1.50e-03  7.69e-02  9.78e-02  0.700  43.6
                               ***Turning on AO-DIIS***
    3    -1929.0710186794417496    -1.78e-01  6.05e-04  1.76e-02  3.44e-02  0.700  42.0
    4    -1929.1869585969820946    -1.16e-01  1.06e-03  3.32e-02  1.59e-02  0.000  38.5
    5    -1929.4451807477084913    -2.58e-01  2.35e-04  9.53e-03  6.81e-03  0.000  40.0
                              *** Initializing SOSCF ***
---------------------------------------S-O-S-C-F--------------------------------------
Iteration    Energy (Eh)           Delta-E    RMSDP     MaxDP     MaxGrad    Time(sec)
--------------------------------------------------------------------------------------
    6    -1929.4471511565111541    -1.97e-03  7.63e-05  3.24e-03  2.73e-03    35.1
               *** Restarting incremental Fock matrix formation ***
    7    -1929.4470918883284867     5.93e-05  6.18e-05  3.18e-03  4.69e-04    98.8
    8    -1929.4470417679308412     5.01e-05  3.85e-05  2.24e-03  8.35e-04    53.6
    9    -1929.4471183046148326    -7.65e-05  1.54e-05  8.52e-04  1.34e-04    47.7
   10    -1929.4471141559274656     4.15e-06  9.93e-06  5.63e-04  2.96e-04    40.8
   11    -1929.4471198403939525    -5.68e-06  2.87e-06  1.05e-04  3.42e-05    37.7
   12    -1929.4471198681817441    -2.78e-08  1.71e-06  7.58e-05  5.14e-05    28.5
                 **** Energy Check signals convergence ****

               *****************************************************
               *                     SUCCESS                       *
               *           SCF CONVERGED AFTER  12 CYCLES          *
               *****************************************************

Recomputing exchange energy using gridx3       ... done (  172.406 sec)
Old exchange energy                            :    -46.306929041 Eh
New exchange energy                            :    -46.306967240 Eh
Exchange energy change after final integration :     -0.000038199 Eh
Total energy after final integration           :  -1929.447158067 Eh
             **** ENERGY FILE WAS UPDATED (/home/nmrbox/aojoawo/Documents/ERDOS/inputs/CHEMBL3682569.en.tmp) ****

----------------
TOTAL SCF ENERGY
----------------

Total Energy       :      -1929.44715806724389 Eh          -52502.92637 eV

Components:
Nuclear Repulsion  :       3972.86396239555370 Eh          108107.12448 eV
Electronic Energy  :      -5902.31108226373544 Eh         -160610.04981 eV
One Electron Energy:     -10537.50246328710091 Eh         -286740.01961 eV
Two Electron Energy:       4635.19138102336547 Eh          126129.96980 eV

Virial components:
Potential Energy   :      -3848.12162231500952 Eh         -104712.71283 eV
Kinetic Energy     :       1918.67446424776585 Eh           52209.78647 eV
Virial Ratio       :          2.00561465429400

DFT components:
N(Alpha)           :      131.999717602973 electrons
N(Beta)            :      131.999717602973 electrons
N(Total)           :      263.999435205947 electrons
E(X)               :     -183.933148540418 Eh       
E(C)               :      -10.714122324161 Eh       
E(XC)              :     -194.647270864579 Eh       

---------------
SCF CONVERGENCE
---------------

  Last Energy change         ...    2.7788e-08  Tolerance :   1.0000e-06
  Last MAX-Density change    ...    7.5803e-05  Tolerance :   1.0000e-05
  Last RMS-Density change    ...    1.7104e-06  Tolerance :   1.0000e-06
  Last DIIS Error            ...    2.7343e-03  Tolerance :   1.0000e-06
  Last Orbital Gradient      ...    5.1389e-05  Tolerance :   5.0000e-05
  Last Orbital Rotation      ...    7.9369e-05  Tolerance :   5.0000e-05


----------------
ORBITAL ENERGIES
----------------

  NO   OCC          E(Eh)            E(eV) 
   0   2.0000     -89.091213     -2424.2952 
   1   2.0000     -19.197338      -522.3861 
   2   2.0000     -19.138343      -520.7808 
   3   2.0000     -19.118764      -520.2480 
   4   2.0000     -19.118422      -520.2387 
   5   2.0000     -14.364948      -390.8901 
   6   2.0000     -14.322164      -389.7259 
   7   2.0000     -10.335984      -281.2564 
   8   2.0000     -10.255398      -279.0636 
   9   2.0000     -10.240935      -278.6700 
  10   2.0000     -10.232330      -278.4359 
  11   2.0000     -10.228054      -278.3195 
  12   2.0000     -10.220003      -278.1004 
  13   2.0000     -10.219619      -278.0900 
  14   2.0000     -10.218111      -278.0489 
  15   2.0000     -10.217939      -278.0443 
  16   2.0000     -10.217768      -278.0396 
  17   2.0000     -10.206977      -277.7460 
  18   2.0000     -10.204037      -277.6660 
  19   2.0000     -10.196059      -277.4489 
  20   2.0000     -10.196017      -277.4477 
  21   2.0000     -10.194706      -277.4121 
  22   2.0000     -10.194519      -277.4070 
  23   2.0000     -10.193258      -277.3727 
  24   2.0000     -10.189609      -277.2733 
  25   2.0000     -10.186881      -277.1991 
  26   2.0000     -10.183878      -277.1174 
  27   2.0000     -10.176953      -276.9290 
  28   2.0000     -10.172270      -276.8015 
  29   2.0000     -10.169775      -276.7336 
  30   2.0000     -10.169223      -276.7186 
  31   2.0000     -10.168866      -276.7089 
  32   2.0000     -10.167849      -276.6812 
  33   2.0000     -10.166993      -276.6579 
  34   2.0000     -10.164643      -276.5940 
  35   2.0000     -10.163774      -276.5703 
  36   2.0000      -8.126887      -221.1438 
  37   2.0000      -6.091817      -165.7668 
  38   2.0000      -6.089909      -165.7149 
  39   2.0000      -6.089667      -165.7083 
  40   2.0000      -1.081623       -29.4325 
  41   2.0000      -1.076138       -29.2832 
  42   2.0000      -0.995361       -27.0851 
  43   2.0000      -0.956219       -26.0201 
  44   2.0000      -0.953600       -25.9488 
  45   2.0000      -0.908020       -24.7085 
  46   2.0000      -0.890165       -24.2226 
  47   2.0000      -0.866748       -23.5854 
  48   2.0000      -0.860414       -23.4131 
  49   2.0000      -0.817140       -22.2355 
  50   2.0000      -0.808242       -21.9934 
  51   2.0000      -0.803226       -21.8569 
  52   2.0000      -0.776958       -21.1421 
  53   2.0000      -0.773517       -21.0485 
  54   2.0000      -0.761104       -20.7107 
  55   2.0000      -0.747193       -20.3322 
  56   2.0000      -0.741711       -20.1830 
  57   2.0000      -0.716444       -19.4954 
  58   2.0000      -0.710390       -19.3307 
  59   2.0000      -0.689539       -18.7633 
  60   2.0000      -0.675951       -18.3936 
  61   2.0000      -0.673648       -18.3309 
  62   2.0000      -0.652534       -17.7563 
  63   2.0000      -0.646008       -17.5788 
  64   2.0000      -0.640900       -17.4398 
  65   2.0000      -0.636496       -17.3199 
  66   2.0000      -0.615897       -16.7594 
  67   2.0000      -0.594494       -16.1770 
  68   2.0000      -0.592305       -16.1174 
  69   2.0000      -0.587701       -15.9922 
  70   2.0000      -0.558726       -15.2037 
  71   2.0000      -0.556865       -15.1531 
  72   2.0000      -0.540788       -14.7156 
  73   2.0000      -0.533119       -14.5069 
  74   2.0000      -0.525407       -14.2971 
  75   2.0000      -0.508581       -13.8392 
  76   2.0000      -0.499241       -13.5850 
  77   2.0000      -0.491730       -13.3806 
  78   2.0000      -0.485985       -13.2243 
  79   2.0000      -0.478514       -13.0210 
  80   2.0000      -0.473359       -12.8808 
  81   2.0000      -0.470322       -12.7981 
  82   2.0000      -0.461512       -12.5584 
  83   2.0000      -0.455706       -12.4004 
  84   2.0000      -0.452048       -12.3008 
  85   2.0000      -0.449254       -12.2248 
  86   2.0000      -0.448894       -12.2150 
  87   2.0000      -0.446363       -12.1462 
  88   2.0000      -0.443013       -12.0550 
  89   2.0000      -0.438653       -11.9363 
  90   2.0000      -0.435321       -11.8457 
  91   2.0000      -0.430661       -11.7189 
  92   2.0000      -0.424967       -11.5639 
  93   2.0000      -0.419813       -11.4237 
  94   2.0000      -0.418042       -11.3755 
  95   2.0000      -0.412344       -11.2204 
  96   2.0000      -0.411554       -11.1989 
  97   2.0000      -0.405774       -11.0417 
  98   2.0000      -0.402143       -10.9429 
  99   2.0000      -0.397323       -10.8117 
 100   2.0000      -0.392718       -10.6864 
 101   2.0000      -0.390310       -10.6209 
 102   2.0000      -0.386084       -10.5059 
 103   2.0000      -0.385265       -10.4836 
 104   2.0000      -0.380464       -10.3529 
 105   2.0000      -0.371136       -10.0991 
 106   2.0000      -0.368792       -10.0353 
 107   2.0000      -0.366401        -9.9703 
 108   2.0000      -0.360071        -9.7980 
 109   2.0000      -0.350497        -9.5375 
 110   2.0000      -0.348956        -9.4956 
 111   2.0000      -0.339676        -9.2431 
 112   2.0000      -0.336459        -9.1555 
 113   2.0000      -0.325994        -8.8708 
 114   2.0000      -0.321102        -8.7376 
 115   2.0000      -0.319445        -8.6925 
 116   2.0000      -0.310612        -8.4522 
 117   2.0000      -0.309003        -8.4084 
 118   2.0000      -0.308333        -8.3902 
 119   2.0000      -0.303149        -8.2491 
 120   2.0000      -0.293472        -7.9858 
 121   2.0000      -0.286772        -7.8035 
 122   2.0000      -0.282652        -7.6913 
 123   2.0000      -0.277520        -7.5517 
 124   2.0000      -0.275166        -7.4876 
 125   2.0000      -0.269400        -7.3308 
 126   2.0000      -0.260872        -7.0987 
 127   2.0000      -0.247507        -6.7350 
 128   2.0000      -0.242814        -6.6073 
 129   2.0000      -0.231099        -6.2885 
 130   2.0000      -0.223703        -6.0873 
 131   2.0000      -0.218658        -5.9500 
 132   0.0000      -0.083721        -2.2782 
 133   0.0000      -0.056784        -1.5452 
 134   0.0000      -0.032326        -0.8796 
 135   0.0000      -0.027067        -0.7365 
 136   0.0000      -0.003554        -0.0967 
 137   0.0000       0.008734         0.2377 
 138   0.0000       0.017766         0.4834 
 139   0.0000       0.024572         0.6686 
 140   0.0000       0.039316         1.0698 
 141   0.0000       0.049763         1.3541 
 142   0.0000       0.060400         1.6436 
*Only the first 10 virtual orbitals were printed.

                    ********************************
                    * MULLIKEN POPULATION ANALYSIS *
                    ********************************

-----------------------
MULLIKEN ATOMIC CHARGES
-----------------------
   0 C :   -0.547253
   1 C :    0.095590
   2 C :    0.339767
   3 N :   -0.611465
   4 C :   -0.228913
   5 C :    0.140076
   6 C :   -0.178376
   7 C :   -0.186664
   8 C :    0.135045
   9 C :    0.126715
  10 C :   -0.212941
  11 C :   -0.370027
  12 C :    0.136902
  13 C :   -0.454891
  14 C :   -0.453219
  15 C :   -0.370753
  16 S :    1.202540
  17 O :   -0.537497
  18 O :   -0.542182
  19 C :   -0.120840
  20 C :   -0.147342
  21 C :   -0.148802
  22 C :    0.081847
  23 C :    0.528080
  24 O :   -0.444863
  25 O :   -0.623522
  26 C :   -0.138576
  27 C :   -0.150574
  28 N :   -0.360072
  29 C :   -0.046922
  30 C :    0.136975
  31 C :   -0.202026
  32 C :   -0.127702
  33 C :   -0.121411
  34 C :   -0.200921
  35 C :    0.125144
  36 H :    0.166810
  37 H :    0.161431
  38 H :    0.164351
  39 H :    0.175408
  40 H :    0.145693
  41 H :    0.114281
  42 H :    0.117773
  43 H :    0.155597
  44 H :    0.147457
  45 H :    0.157675
  46 H :    0.139197
  47 H :    0.139054
  48 H :    0.135447
  49 H :    0.138912
  50 H :    0.136522
  51 H :    0.139393
  52 H :    0.146462
  53 H :    0.144565
  54 H :    0.182792
  55 H :    0.172286
  56 H :    0.434211
  57 H :    0.181216
  58 H :    0.186279
  59 H :    0.152879
  60 H :    0.139620
  61 H :    0.134506
  62 H :    0.135134
  63 H :    0.134126
Sum of atomic charges:   -0.0000000

--------------------------------
MULLIKEN REDUCED ORBITAL CHARGES
--------------------------------
  0 C s       :     3.319312  s :     3.319312
      pz      :     1.052873  p :     3.193513
      px      :     1.053435
      py      :     1.087205
      dz2     :     0.008816  d :     0.034428
      dxz     :     0.008844
      dyz     :     0.003009
      dx2y2   :     0.005103
      dxy     :     0.008655

  1 C s       :     3.175817  s :     3.175817
      pz      :     0.880017  p :     2.688990
      px      :     0.909816
      py      :     0.899157
      dz2     :     0.008007  d :     0.039603
      dxz     :     0.005495
      dyz     :     0.010200
      dx2y2   :     0.007461
      dxy     :     0.008440

  2 C s       :     3.040599  s :     3.040599
      pz      :     0.900348  p :     2.545788
      px      :     0.935286
      py      :     0.710153
      dz2     :     0.015822  d :     0.073846
      dxz     :     0.009375
      dyz     :     0.019086
      dx2y2   :     0.015036
      dxy     :     0.014526

  3 N s       :     3.598743  s :     3.598743
      pz      :     1.367909  p :     3.979810
      px      :     1.467578
      py      :     1.144323
      dz2     :     0.005367  d :     0.032913
      dxz     :     0.005101
      dyz     :     0.008216
      dx2y2   :     0.007031
      dxy     :     0.007197

  4 C s       :     3.236259  s :     3.236259
      pz      :     0.945903  p :     2.936934
      px      :     0.971362
      py      :     1.019669
      dz2     :     0.015404  d :     0.055719
      dxz     :     0.012947
      dyz     :     0.006959
      dx2y2   :     0.012394
      dxy     :     0.008015

  5 C s       :     3.136195  s :     3.136195
      pz      :     0.898967  p :     2.684093
      px      :     0.840299
      py      :     0.944827
      dz2     :     0.009234  d :     0.039636
      dxz     :     0.009583
      dyz     :     0.005944
      dx2y2   :     0.008055
      dxy     :     0.006820

  6 C s       :     3.203394  s :     3.203394
      pz      :     0.974490  p :     2.939037
      px      :     0.975606
      py      :     0.988941
      dz2     :     0.006002  d :     0.035946
      dxz     :     0.011558
      dyz     :     0.004768
      dx2y2   :     0.006838
      dxy     :     0.006779

  7 C s       :     3.207329  s :     3.207329
      pz      :     0.991582  p :     2.943312
      px      :     0.955778
      py      :     0.995952
      dz2     :     0.006256  d :     0.036023
      dxz     :     0.009577
      dyz     :     0.006989
      dx2y2   :     0.006103
      dxy     :     0.007098

  8 C s       :     3.122057  s :     3.122057
      pz      :     0.904566  p :     2.699201
      px      :     0.856497
      py      :     0.938137
      dz2     :     0.009440  d :     0.043697
      dxz     :     0.011522
      dyz     :     0.006649
      dx2y2   :     0.008604
      dxy     :     0.007482

  9 C s       :     3.128959  s :     3.128959
      pz      :     0.904886  p :     2.700742
      px      :     0.851176
      py      :     0.944679
      dz2     :     0.008909  d :     0.043585
      dxz     :     0.011753
      dyz     :     0.006105
      dx2y2   :     0.008845
      dxy     :     0.007972

 10 C s       :     3.225502  s :     3.225502
      pz      :     0.977210  p :     2.951683
      px      :     0.979382
      py      :     0.995090
      dz2     :     0.006368  d :     0.035757
      dxz     :     0.009545
      dyz     :     0.006666
      dx2y2   :     0.006088
      dxy     :     0.007089

 11 C s       :     3.274244  s :     3.274244
      pz      :     1.037598  p :     3.055483
      px      :     0.971161
      py      :     1.046723
      dz2     :     0.008855  d :     0.040300
      dxz     :     0.010138
      dyz     :     0.005530
      dx2y2   :     0.009875
      dxy     :     0.005902

 12 C s       :     3.175430  s :     3.175430
      pz      :     0.871057  p :     2.640877
      px      :     0.896446
      py      :     0.873374
      dz2     :     0.008187  d :     0.046791
      dxz     :     0.008814
      dyz     :     0.011367
      dx2y2   :     0.006968
      dxy     :     0.011456

 13 C s       :     3.312891  s :     3.312891
      pz      :     1.026023  p :     3.107060
      px      :     1.051624
      py      :     1.029414
      dz2     :     0.006738  d :     0.034939
      dxz     :     0.005665
      dyz     :     0.008840
      dx2y2   :     0.002548
      dxy     :     0.011148

 14 C s       :     3.311991  s :     3.311991
      pz      :     1.061117  p :     3.106276
      px      :     1.020283
      py      :     1.024876
      dz2     :     0.004006  d :     0.034952
      dxz     :     0.006244
      dyz     :     0.011279
      dx2y2   :     0.004668
      dxy     :     0.008755

 15 C s       :     3.272336  s :     3.272336
      pz      :     1.004184  p :     3.057966
      px      :     1.013266
      py      :     1.040516
      dz2     :     0.009055  d :     0.040451
      dxz     :     0.009341
      dyz     :     0.005149
      dx2y2   :     0.011815
      dxy     :     0.005091

 16 S s       :     5.218468  s :     5.218468
      pz      :     3.024106  p :     9.041765
      px      :     3.027141
      py      :     2.990517
      dz2     :     0.079679  d :     0.537228
      dxz     :     0.122862
      dyz     :     0.124955
      dx2y2   :     0.090337
      dxy     :     0.119394

 17 O s       :     3.924876  s :     3.924876
      pz      :     1.409003  p :     4.585546
      px      :     1.648239
      py      :     1.528304
      dz2     :     0.006746  d :     0.027075
      dxz     :     0.005130
      dyz     :     0.006960
      dx2y2   :     0.004313
      dxy     :     0.003926

 18 O s       :     3.924958  s :     3.924958
      pz      :     1.508682  p :     4.590712
      px      :     1.557506
      py      :     1.524525
      dz2     :     0.005159  d :     0.026512
      dxz     :     0.004823
      dyz     :     0.005533
      dx2y2   :     0.005617
      dxy     :     0.005380

 19 C s       :     3.223697  s :     3.223697
      pz      :     1.002456  p :     2.858346
      px      :     0.910892
      py      :     0.944998
      dz2     :     0.003370  d :     0.038797
      dxz     :     0.006236
      dyz     :     0.007610
      dx2y2   :     0.009861
      dxy     :     0.011719

 20 C s       :     3.208380  s :     3.208380
      pz      :     0.948623  p :     2.902975
      px      :     0.925672
      py      :     1.028680
      dz2     :     0.005258  d :     0.035987
      dxz     :     0.005900
      dyz     :     0.004944
      dx2y2   :     0.011781
      dxy     :     0.008103

 21 C s       :     3.210635  s :     3.210635
      pz      :     0.953043  p :     2.902401
      px      :     0.972988
      py      :     0.976370
      dz2     :     0.004919  d :     0.035767
      dxz     :     0.004616
      dyz     :     0.006443
      dx2y2   :     0.008692
      dxy     :     0.011097

 22 C s       :     3.165930  s :     3.165930
      pz      :     0.958912  p :     2.713882
      px      :     0.899128
      py      :     0.855841
      dz2     :     0.004060  d :     0.038341
      dxz     :     0.006392
      dyz     :     0.007169
      dx2y2   :     0.010241
      dxy     :     0.010480

 23 C s       :     2.997073  s :     2.997073
      pz      :     0.826543  p :     2.364728
      px      :     0.773529
      py      :     0.764656
      dz2     :     0.011614  d :     0.110118
      dxz     :     0.010605
      dyz     :     0.024154
      dx2y2   :     0.025758
      dxy     :     0.037988

 24 O s       :     3.878718  s :     3.878718
      pz      :     1.495179  p :     4.540554
      px      :     1.699851
      py      :     1.345523
      dz2     :     0.003230  d :     0.025592
      dxz     :     0.000706
      dyz     :     0.008140
      dx2y2   :     0.007313
      dxy     :     0.006203

 25 O s       :     3.872382  s :     3.872382
      pz      :     1.661145  p :     4.730210
      px      :     1.375450
      py      :     1.693615
      dz2     :     0.001641  d :     0.020930
      dxz     :     0.004360
      dyz     :     0.004650
      dx2y2   :     0.002345
      dxy     :     0.007935

 26 C s       :     3.215284  s :     3.215284
      pz      :     0.940469  p :     2.887670
      px      :     0.945551
      py      :     1.001650
      dz2     :     0.005019  d :     0.035622
      dxz     :     0.005684
      dyz     :     0.005174
      dx2y2   :     0.011240
      dxy     :     0.008506

 27 C s       :     3.208511  s :     3.208511
      pz      :     0.953587  p :     2.906119
      px      :     1.015370
      py      :     0.937161
      dz2     :     0.005080  d :     0.035944
      dxz     :     0.004486
      dyz     :     0.006512
      dx2y2   :     0.009207
      dxy     :     0.010660

 28 N s       :     3.694035  s :     3.694035
      pz      :     1.271253  p :     3.630730
      px      :     1.133060
      py      :     1.226417
      dz2     :     0.008554  d :     0.035307
      dxz     :     0.006547
      dyz     :     0.005918
      dx2y2   :     0.008218
      dxy     :     0.006071

 29 C s       :     3.160611  s :     3.160611
      pz      :     0.971409  p :     2.832403
      px      :     0.948470
      py      :     0.912524
      dz2     :     0.008570  d :     0.053907
      dxz     :     0.006265
      dyz     :     0.017012
      dx2y2   :     0.010616
      dxy     :     0.011443

 30 C s       :     3.138690  s :     3.138690
      pz      :     0.882810  p :     2.682548
      px      :     0.932298
      py      :     0.867440
      dz2     :     0.008606  d :     0.041788
      dxz     :     0.005683
      dyz     :     0.011575
      dx2y2   :     0.007659
      dxy     :     0.008264

 31 C s       :     3.211400  s :     3.211400
      pz      :     0.981189  p :     2.954339
      px      :     0.984592
      py      :     0.988557
      dz2     :     0.006958  d :     0.036288
      dxz     :     0.005889
      dyz     :     0.009741
      dx2y2   :     0.006513
      dxy     :     0.007186

 32 C s       :     3.193378  s :     3.193378
      pz      :     0.943315  p :     2.897992
      px      :     0.971353
      py      :     0.983324
      dz2     :     0.009427  d :     0.036332
      dxz     :     0.005597
      dyz     :     0.008271
      dx2y2   :     0.008226
      dxy     :     0.004810

 33 C s       :     3.195951  s :     3.195951
      pz      :     0.958754  p :     2.888928
      px      :     0.964098
      py      :     0.966077
      dz2     :     0.006567  d :     0.036532
      dxz     :     0.004686
      dyz     :     0.012403
      dx2y2   :     0.006394
      dxy     :     0.006482

 34 C s       :     3.207393  s :     3.207393
      pz      :     0.988036  p :     2.957992
      px      :     1.004749
      py      :     0.965207
      dz2     :     0.006837  d :     0.035535
      dxz     :     0.005746
      dyz     :     0.010082
      dx2y2   :     0.005965
      dxy     :     0.006906

 35 C s       :     3.135145  s :     3.135145
      pz      :     0.879906  p :     2.698324
      px      :     0.940322
      py      :     0.878097
      dz2     :     0.008752  d :     0.041387
      dxz     :     0.005885
      dyz     :     0.011165
      dx2y2   :     0.007669
      dxy     :     0.007916

 36 H s       :     0.833190  s :     0.833190

 37 H s       :     0.838569  s :     0.838569

 38 H s       :     0.835649  s :     0.835649

 39 H s       :     0.824592  s :     0.824592

 40 H s       :     0.854307  s :     0.854307

 41 H s       :     0.885719  s :     0.885719

 42 H s       :     0.882227  s :     0.882227

 43 H s       :     0.844403  s :     0.844403

 44 H s       :     0.852543  s :     0.852543

 45 H s       :     0.842325  s :     0.842325

 46 H s       :     0.860803  s :     0.860803

 47 H s       :     0.860946  s :     0.860946

 48 H s       :     0.864553  s :     0.864553

 49 H s       :     0.861088  s :     0.861088

 50 H s       :     0.863478  s :     0.863478

 51 H s       :     0.860607  s :     0.860607

 52 H s       :     0.853538  s :     0.853538

 53 H s       :     0.855435  s :     0.855435

 54 H s       :     0.817208  s :     0.817208

 55 H s       :     0.827714  s :     0.827714

 56 H s       :     0.565789  s :     0.565789

 57 H s       :     0.818784  s :     0.818784

 58 H s       :     0.813721  s :     0.813721

 59 H s       :     0.847121  s :     0.847121

 60 H s       :     0.860380  s :     0.860380

 61 H s       :     0.865494  s :     0.865494

 62 H s       :     0.864866  s :     0.864866

 63 H s       :     0.865874  s :     0.865874



                     *******************************
                     * LOEWDIN POPULATION ANALYSIS *
                     *******************************

----------------------
LOEWDIN ATOMIC CHARGES
----------------------
   0 C :   -0.361304
   1 C :   -0.017845
   2 C :    0.041004
   3 N :   -0.283297
   4 C :   -0.146520
   5 C :   -0.038186
   6 C :   -0.137424
   7 C :   -0.135413
   8 C :   -0.024213
   9 C :   -0.022462
  10 C :   -0.114397
  11 C :   -0.216108
  12 C :   -0.026446
  13 C :   -0.346789
  14 C :   -0.346035
  15 C :   -0.216517
  16 S :    1.263137
  17 O :   -0.565543
  18 O :   -0.574276
  19 C :   -0.174455
  20 C :   -0.105529
  21 C :   -0.100142
  22 C :   -0.040196
  23 C :    0.179765
  24 O :   -0.261270
  25 O :   -0.334541
  26 C :   -0.085224
  27 C :   -0.107840
  28 N :   -0.105873
  29 C :   -0.054544
  30 C :   -0.027426
  31 C :   -0.110741
  32 C :   -0.128046
  33 C :   -0.119331
  34 C :   -0.126820
  35 C :   -0.006099
  36 H :    0.137545
  37 H :    0.135646
  38 H :    0.136736
  39 H :    0.143984
  40 H :    0.117727
  41 H :    0.124502
  42 H :    0.127962
  43 H :    0.145021
  44 H :    0.129954
  45 H :    0.134752
  46 H :    0.120910
  47 H :    0.120407
  48 H :    0.118900
  49 H :    0.120468
  50 H :    0.119217
  51 H :    0.120933
  52 H :    0.129172
  53 H :    0.128206
  54 H :    0.158202
  55 H :    0.154388
  56 H :    0.349892
  57 H :    0.160574
  58 H :    0.160447
  59 H :    0.137806
  60 H :    0.137390
  61 H :    0.134682
  62 H :    0.135258
  63 H :    0.136265

-------------------------------
LOEWDIN REDUCED ORBITAL CHARGES
-------------------------------
  0 C s       :     2.971829  s :     2.971829
      pz      :     1.091219  p :     3.322456
      px      :     1.102622
      py      :     1.128615
      dz2     :     0.017596  d :     0.067019
      dxz     :     0.017472
      dyz     :     0.006009
      dx2y2   :     0.009672
      dxy     :     0.016270

  1 C s       :     2.887564  s :     2.887564
      pz      :     1.011678  p :     3.032788
      px      :     0.977463
      py      :     1.043647
      dz2     :     0.018500  d :     0.097494
      dxz     :     0.013363
      dyz     :     0.026999
      dx2y2   :     0.018670
      dxy     :     0.019961

  2 C s       :     2.845974  s :     2.845974
      pz      :     1.019652  p :     2.936078
      px      :     0.994504
      py      :     0.921922
      dz2     :     0.037548  d :     0.176944
      dxz     :     0.022677
      dyz     :     0.047036
      dx2y2   :     0.036365
      dxy     :     0.033319

  3 N s       :     3.174746  s :     3.174746
      pz      :     1.390054  p :     4.024344
      px      :     1.464318
      py      :     1.169972
      dz2     :     0.013120  d :     0.084208
      dxz     :     0.012781
      dyz     :     0.022458
      dx2y2   :     0.016942
      dxy     :     0.018907

  4 C s       :     2.920723  s :     2.920723
      pz      :     1.015065  p :     3.107371
      px      :     1.026821
      py      :     1.065486
      dz2     :     0.033014  d :     0.118425
      dxz     :     0.027693
      dyz     :     0.014410
      dx2y2   :     0.026268
      dxy     :     0.017040

  5 C s       :     2.878999  s :     2.878999
      pz      :     1.044967  p :     3.059871
      px      :     1.006869
      py      :     1.008034
      dz2     :     0.023235  d :     0.099317
      dxz     :     0.024843
      dyz     :     0.015146
      dx2y2   :     0.019899
      dxy     :     0.016194

  6 C s       :     2.920158  s :     2.920158
      pz      :     1.046783  p :     3.133589
      px      :     1.064868
      py      :     1.021937
      dz2     :     0.014003  d :     0.083678
      dxz     :     0.026117
      dyz     :     0.010360
      dx2y2   :     0.016437
      dxy     :     0.016761

  7 C s       :     2.914716  s :     2.914716
      pz      :     1.050293  p :     3.136006
      px      :     1.060641
      py      :     1.025072
      dz2     :     0.014880  d :     0.084691
      dxz     :     0.024010
      dyz     :     0.013012
      dx2y2   :     0.016289
      dxy     :     0.016500

  8 C s       :     2.863621  s :     2.863621
      pz      :     1.035083  p :     3.050325
      px      :     1.022794
      py      :     0.992448
      dz2     :     0.024238  d :     0.110267
      dxz     :     0.029318
      dyz     :     0.017547
      dx2y2   :     0.021137
      dxy     :     0.018028

  9 C s       :     2.863954  s :     2.863954
      pz      :     1.018529  p :     3.048537
      px      :     1.038538
      py      :     0.991470
      dz2     :     0.021444  d :     0.109971
      dxz     :     0.031856
      dyz     :     0.014816
      dx2y2   :     0.021729
      dxy     :     0.020126

[...]
      py      :     1.049560
      dz2     :     0.022115  d :     0.108707
      dxz     :     0.013889
      dyz     :     0.031972
      dx2y2   :     0.020417
      dxy     :     0.020314

 31 C s       :     2.916330  s :     2.916330
      pz      :     1.050659  p :     3.109837
      px      :     1.000601
      py      :     1.058576
      dz2     :     0.015644  d :     0.084575
      dxz     :     0.010643
      dyz     :     0.025235
      dx2y2   :     0.016744
      dxy     :     0.016310

 32 C s       :     2.917303  s :     2.917303
      pz      :     1.048204  p :     3.125065
      px      :     1.002323
      py      :     1.074538
      dz2     :     0.022721  d :     0.085679
      dxz     :     0.014347
      dyz     :     0.021706
      dx2y2   :     0.016384
      dxy     :     0.010522

 33 C s       :     2.918453  s :     2.918453
      pz      :     1.047791  p :     3.114991
      px      :     0.993906
      py      :     1.073293
      dz2     :     0.015949  d :     0.085887
      dxz     :     0.010366
      dyz     :     0.028830
      dx2y2   :     0.015429
      dxy     :     0.015313

 34 C s       :     2.917087  s :     2.917087
      pz      :     1.050967  p :     3.127303
      px      :     1.014790
      py      :     1.061546
      dz2     :     0.015733  d :     0.082430
      dxz     :     0.010189
      dyz     :     0.024714
      dx2y2   :     0.016220
      dxy     :     0.015574

 35 C s       :     2.856495  s :     2.856495
      pz      :     1.024449  p :     3.043779
      px      :     0.984134
      py      :     1.035196
      dz2     :     0.022308  d :     0.105824
      dxz     :     0.014147
      dyz     :     0.030727
      dx2y2   :     0.019527
      dxy     :     0.019116

 36 H s       :     0.862455  s :     0.862455

 37 H s       :     0.864354  s :     0.864354

 38 H s       :     0.863264  s :     0.863264

 39 H s       :     0.856016  s :     0.856016

 40 H s       :     0.882273  s :     0.882273

 41 H s       :     0.875498  s :     0.875498

 42 H s       :     0.872038  s :     0.872038

 43 H s       :     0.854979  s :     0.854979

 44 H s       :     0.870046  s :     0.870046

 45 H s       :     0.865248  s :     0.865248

 46 H s       :     0.879090  s :     0.879090

 47 H s       :     0.879593  s :     0.879593

 48 H s       :     0.881100  s :     0.881100

 49 H s       :     0.879532  s :     0.879532

 50 H s       :     0.880783  s :     0.880783

 51 H s       :     0.879067  s :     0.879067

 52 H s       :     0.870828  s :     0.870828

 53 H s       :     0.871794  s :     0.871794

 54 H s       :     0.841798  s :     0.841798

 55 H s       :     0.845612  s :     0.845612

 56 H s       :     0.650108  s :     0.650108

 57 H s       :     0.839426  s :     0.839426

 58 H s       :     0.839553  s :     0.839553

 59 H s       :     0.862194  s :     0.862194

 60 H s       :     0.862610  s :     0.862610

 61 H s       :     0.865318  s :     0.865318

 62 H s       :     0.864742  s :     0.864742

 63 H s       :     0.863735  s :     0.863735



                      *****************************
                      * MAYER POPULATION ANALYSIS *
                      *****************************

  NA   - Mulliken gross atomic population
  ZA   - Total nuclear charge
  QA   - Mulliken gross atomic charge
  VA   - Mayer's total valence
  BVA  - Mayer's bonded valence
  FA   - Mayer's free valence

  ATOM       NA         ZA         QA         VA         BVA        FA
  0 C      6.5473     6.0000    -0.5473     3.8254     3.8254     0.0000
  1 C      5.9044     6.0000     0.0956     3.8658     3.8658    -0.0000
  2 C      5.6602     6.0000     0.3398     3.8790     3.8790     0.0000
  3 N      7.6115     7.0000    -0.6115     2.7851     2.7851    -0.0000
  4 C      6.2289     6.0000    -0.2289     3.8320     3.8320    -0.0000
  5 C      5.8599     6.0000     0.1401     3.9201     3.9201    -0.0000
  6 C      6.1784     6.0000    -0.1784     3.9284     3.9284     0.0000
  7 C      6.1867     6.0000    -0.1867     3.8936     3.8936     0.0000
  8 C      5.8650     6.0000     0.1350     3.9989     3.9989     0.0000
  9 C      5.8733     6.0000     0.1267     3.9878     3.9878     0.0000
 10 C      6.2129     6.0000    -0.2129     3.8629     3.8629     0.0000
 11 C      6.3700     6.0000    -0.3700     3.8039     3.8039     0.0000
 12 C      5.8631     6.0000     0.1369     3.8912     3.8912     0.0000
 13 C      6.4549     6.0000    -0.4549     3.8550     3.8550     0.0000
 14 C      6.4532     6.0000    -0.4532     3.8548     3.8548     0.0000
 15 C      6.3708     6.0000    -0.3708     3.8058     3.8058    -0.0000
 16 S     14.7975    16.0000     1.2025     5.0891     5.0891    -0.0000
 17 O      8.5375     8.0000    -0.5375     1.8908     1.8908     0.0000
 18 O      8.5422     8.0000    -0.5422     1.8950     1.8950    -0.0000
 19 C      6.1208     6.0000    -0.1208     3.8338     3.8338     0.0000
 20 C      6.1473     6.0000    -0.1473     3.9243     3.9243    -0.0000
 21 C      6.1488     6.0000    -0.1488     3.8675     3.8675    -0.0000
 22 C      5.9182     6.0000     0.0818     3.9265     3.9265    -0.0000
 23 C      5.4719     6.0000     0.5281     3.9536     3.9536     0.0000
 24 O      8.4449     8.0000    -0.4449     2.0667     2.0667     0.0000
 25 O      8.6235     8.0000    -0.6235     1.8689     1.8689     0.0000
 26 C      6.1386     6.0000    -0.1386     3.8925     3.8925    -0.0000
 27 C      6.1506     6.0000    -0.1506     3.9076     3.9076    -0.0000
 28 N      7.3601     7.0000    -0.3601     2.9746     2.9746    -0.0000
 29 C      6.0469     6.0000    -0.0469     3.8588     3.8588    -0.0000
 30 C      5.8630     6.0000     0.1370     3.9565     3.9565    -0.0000
 31 C      6.2020     6.0000    -0.2020     3.9008     3.9008    -0.0000
 32 C      6.1277     6.0000    -0.1277     3.9272     3.9272    -0.0000
 33 C      6.1214     6.0000    -0.1214     3.9289     3.9289    -0.0000
 34 C      6.2009     6.0000    -0.2009     3.8756     3.8756    -0.0000
 35 C      5.8749     6.0000     0.1251     3.9966     3.9966     0.0000
 36 H      0.8332     1.0000     0.1668     0.9414     0.9414     0.0000
 37 H      0.8386     1.0000     0.1614     0.9321     0.9321     0.0000
 38 H      0.8356     1.0000     0.1644     0.9292     0.9292    -0.0000
 39 H      0.8246     1.0000     0.1754     0.9357     0.9357     0.0000
 40 H      0.8543     1.0000     0.1457     0.9289     0.9289     0.0000
 41 H      0.8857     1.0000     0.1143     0.9434     0.9434    -0.0000
 42 H      0.8822     1.0000     0.1178     0.9394     0.9394     0.0000
 43 H      0.8444     1.0000     0.1556     0.9422     0.9422    -0.0000
 44 H      0.8525     1.0000     0.1475     0.9341     0.9341     0.0000
 45 H      0.8423     1.0000     0.1577     0.9312     0.9312    -0.0000
 46 H      0.8608     1.0000     0.1392     0.9386     0.9386    -0.0000
 47 H      0.8609     1.0000     0.1391     0.9383     0.9383     0.0000
 48 H      0.8646     1.0000     0.1354     0.9390     0.9390    -0.0000
 49 H      0.8611     1.0000     0.1389     0.9391     0.9391    -0.0000
 50 H      0.8635     1.0000     0.1365     0.9393     0.9393     0.0000
 51 H      0.8606     1.0000     0.1394     0.9376     0.9376     0.0000
 52 H      0.8535     1.0000     0.1465     0.9333     0.9333    -0.0000
 53 H      0.8554     1.0000     0.1446     0.9343     0.9343     0.0000
 54 H      0.8172     1.0000     0.1828     0.9356     0.9356    -0.0000
 55 H      0.8277     1.0000     0.1723     0.9364     0.9364    -0.0000
 56 H      0.5658     1.0000     0.4342     0.7955     0.7955     0.0000
 57 H      0.8188     1.0000     0.1812     0.9384     0.9384    -0.0000
 58 H      0.8137     1.0000     0.1863     0.9368     0.9368     0.0000
 59 H      0.8471     1.0000     0.1529     0.9336     0.9336     0.0000
 60 H      0.8604     1.0000     0.1396     0.9370     0.9370     0.0000
 61 H      0.8655     1.0000     0.1345     0.9370     0.9370    -0.0000
 62 H      0.8649     1.0000     0.1351     0.9369     0.9369     0.0000
 63 H      0.8659     1.0000     0.1341     0.9423     0.9423    -0.0000

  Mayer bond orders larger than 0.100000
B(  0-C ,  1-C ) :   0.9974 B(  0-C , 36-H ) :   0.9278 B(  0-C , 37-H ) :   0.9299 
B(  0-C , 38-H ) :   0.9246 B(  1-C ,  2-C ) :   1.4369 B(  1-C , 29-C ) :   0.1009 
B(  1-C , 35-C ) :   1.2661 B(  2-C ,  3-N ) :   0.8925 B(  2-C , 28-N ) :   1.2884 
B(  3-N ,  4-C ) :   0.9090 B(  3-N , 16-S ) :   0.8113 B(  4-C ,  5-C ) :   0.9758 
B(  4-C , 39-H ) :   0.9140 B(  4-C , 40-H ) :   0.9209 B(  5-C ,  6-C ) :   1.4116 
B(  5-C , 10-C ) :   1.4174 B(  6-C ,  7-C ) :   1.4286 B(  6-C , 41-H ) :   0.9242 
B(  7-C ,  8-C ) :   1.4018 B(  7-C , 42-H ) :   0.9270 B(  8-C ,  9-C ) :   1.4984 
B(  8-C , 15-C ) :   0.9682 B(  9-C , 10-C ) :   1.3822 B(  9-C , 11-C ) :   0.9679 
B( 10-C , 43-H ) :   0.9121 B( 11-C , 12-C ) :   0.9679 B( 11-C , 44-H ) :   0.9264 
B( 11-C , 45-H ) :   0.9234 B( 12-C , 13-C ) :   0.9987 B( 12-C , 14-C ) :   1.0010 
B( 12-C , 15-C ) :   0.9694 B( 13-C , 46-H ) :   0.9467 B( 13-C , 47-H ) :   0.9460 
B( 13-C , 48-H ) :   0.9469 B( 14-C , 49-H ) :   0.9462 B( 14-C , 50-H ) :   0.9463 
B( 14-C , 51-H ) :   0.9461 B( 15-C , 52-H ) :   0.9251 B( 15-C , 53-H ) :   0.9266 
B( 16-S , 17-O ) :   1.6374 B( 16-S , 18-O ) :   1.6366 B( 16-S , 19-C ) :   0.8099 
B( 19-C , 20-C ) :   1.3904 B( 19-C , 27-C ) :   1.3850 B( 20-C , 21-C ) :   1.4202 
B( 20-C , 54-H ) :   0.9102 B( 21-C , 22-C ) :   1.3804 B( 21-C , 55-H ) :   0.9150 
B( 22-C , 23-C ) :   1.0086 B( 22-C , 26-C ) :   1.4039 B( 23-C , 24-O ) :   1.8622 
B( 23-C , 25-O ) :   1.0252 B( 25-O , 56-H ) :   0.7418 B( 26-C , 27-C ) :   1.4158 
B( 26-C , 57-H ) :   0.9096 B( 27-C , 58-H ) :   0.9083 B( 28-N , 29-C ) :   1.4995 
B( 29-C , 30-C ) :   1.2316 B( 29-C , 59-H ) :   0.9266 B( 30-C , 31-C ) :   1.2848 
B( 30-C , 35-C ) :   1.2913 B( 31-C , 32-C ) :   1.5118 B( 31-C , 34-C ) :   0.1059 
B( 31-C , 60-H ) :   0.9231 B( 32-C , 33-C ) :   1.3537 B( 32-C , 61-H ) :   0.9295 
B( 33-C , 34-C ) :   1.5096 B( 33-C , 62-H ) :   0.9295 B( 34-C , 35-C ) :   1.2924 
B( 34-C , 63-H ) :   0.9177 

-------
TIMINGS
-------

Total SCF time: 0 days 0 hours 12 min 57 sec 

Total time                  ....     777.621 sec
Sum of individual times     ....     777.111 sec  ( 99.9%)

SCF preparation             ....       0.463 sec  (  0.1%)
Fock matrix formation       ....     773.101 sec  ( 99.4%)
  Startup                   ....       0.150 sec  (  0.0% of F)
  Split-RI-J                ....     105.979 sec  ( 13.7% of F)
  Chain of spheres X        ....     603.818 sec  ( 78.1% of F)
  XC integration            ....      61.525 sec  (  8.0% of F)
    XC Preparation          ....       0.000 sec  (  0.0% of XC)
    Basis function eval.    ....      25.374 sec  ( 41.2% of XC)
    Density eval.           ....      14.926 sec  ( 24.3% of XC)
    XC-Functional eval.     ....       2.794 sec  (  4.5% of XC)
    XC-Potential eval.      ....      15.713 sec  ( 25.5% of XC)
Diagonalization             ....       0.000 sec  (  0.0%)
Density matrix formation    ....       0.556 sec  (  0.1%)
Total Energy calculation    ....       0.206 sec  (  0.0%)
Population analysis         ....       0.110 sec  (  0.0%)
Orbital Transformation      ....       0.304 sec  (  0.0%)
Orbital Orthonormalization  ....       0.000 sec  (  0.0%)
DIIS solution               ....       1.397 sec  (  0.2%)
SOSCF solution              ....       0.975 sec  (  0.1%)
Finished LeanSCF after 777.9 sec

Maximum memory used throughout the entire LEANSCF-calculation: 103.4 MB

-------------------------   --------------------
FINAL SINGLE POINT ENERGY     -1929.447158067244
-------------------------   --------------------


------------------------------------------------------------------------------
                              ORCA PROPERTY CALCULATIONS
------------------------------------------------------------------------------

GBWName                                 ... /home/nmrbox/aojoawo/Documents/ERDOS/inputs/CHEMBL3682569.gbw
Number of atoms                         ...     64
Number of basis functions               ...    564
Max core memory                         ...   1024 MB

Electric properties:
Dipole moment                           ... YES
Quadrupole moment                       ...  NO
Static polarizability (Dipole/Dipole)   ...  NO
Static polarizability (Dipole/Quad.)    ...  NO
Static polarizability (Quad./Quad.)     ...  NO
Static polarizability (Velocity)        ...  NO

Atomic electric properties:
Dipole moment                           ...  NO
Quadrupole moment                       ...  NO
Static polarizability                   ...  NO

Choice of electric origin               ... Center of mass
Position of electric origin             ...    -1.477466    -0.500567    -0.254958

General magnetic properties:
Magnetizability                         ...  NO

EPR properties:
g-Tensor (aka g-matrix)                 ...  NO
Zero-Field splitting spin-orbit         ...  NO
Zero-field splitting spin-spin          ...  NO
Hyperfine couplings                     ...  NO (   0 nuclei)
Quadrupole couplings                    ...  NO (   0 nuclei)
Contact density                         ...  NO (   0 nuclei)

NMR properties:
Chemical shifts                         ...  NO (   0 nuclei)
Spin-rotation constants                 ...  NO (   0 nuclei)
Spin-spin couplings                     ...  NO (   0 nuclei,    0 pairs)

Choice of magnetic origin               ... GIAO
Position of magnetic origin             ...     0.000000     0.000000     0.000000

Properties with geometric perturbations:
SCF Hessian                             ...  NO
IR spectrum                             ...  NO
VCD spectrum                            ...  NO
X-ray spectroscopy properties:
SCF XES/XAS/RIXS spectra                ...  NO


-------------
DIPOLE MOMENT
-------------

Method             : SCF
Type of density    : Electron Density
Multiplicity       :   1
Irrep              :   0
Energy             : -1929.4471580672438904 Eh
Relativity type    : 
Basis              : AO
                                X                 Y                 Z
Electronic contribution:    -43.873912758     -10.412556295      -3.721976326
Nuclear contribution   :     43.609103087      11.973972837       5.994531687
                        -----------------------------------------
Total Dipole Moment    :     -0.264809671       1.561416542       2.272555360
                        -----------------------------------------
Magnitude (a.u.)       :      2.769955531
Magnitude (Debye)      :      7.040667429



--------------------
Rotational spectrum 
--------------------
 
Rotational constants in cm-1:             0.004614             0.002027             0.001611 
Rotational constants in MHz :           138.330306            60.766274            48.303194 

Dipole components along the rotational axes: 
x,y,z [a.u.] :    -0.121091    -1.664239    -2.210950 
x,y,z [Debye]:    -0.307790    -4.230160    -5.619787 

 

Dipole moment calculation done in   0.1 sec 

Maximum memory used throughout the entire PROP-calculation: 50.3 MB

--------------------------------
SUGGESTED CITATIONS FOR THIS RUN
--------------------------------

Below you find a list of papers that are relevant to this ORCA run
We neither can nor want to force you to cite these papers, but we appreciate if you do
You receive ORCA, which is the product of decades of hard work by many enthusiastic individuals, for free
The only thing we kindly ask in return is that you cite our papers,
We deeply appreciate it, if you show your appreciation for ORCA by not just citing the generic ORCA reference.

Please note that relegating all ORCA citations to the supporting information does *not* help us.
SI sections are not indexed - citations you put there will not count into any citation statistics
But we need these citations in order to attract the funding resources that allow us to do what we are doing

Therefore, if you are a happy ORCA user, please consider citing a few of the papers listed below in the main body of your paper

In addition to the list printed below, the program has created the file /home/nmrbox/aojoawo/Documents/ERDOS/inputs/CHEMBL3682569.bibtex that contains the list in bibtex format
You can import this file easily into all common literature databanks and citation aid programs


List of essential papers. We consider these as the minimum necessary citations

  1. Neese,F.
     Software update: the ORCA program system, version 5.0
     WIRES Comput. Molec. Sci., 2022 12(1)e1606
     doi.org/10.1002/wcms.1606

List of papers to cite with high priority. The work reported in these papers was absolutely
necessary for this run to complete.
Our perspective: the developers of density functionals and basis sets usually get cited in chemistry papers
Good! But without the algorithms to do something with them, the functionals or basis sets would not do anything.
Hence, in our opinion, the algorithm design and method developments papers are equally worthy of getting cited

  1. Neese,F.
     An improvement of the resolution of the identity approximation for the formation of the Coulomb matrix
     J. Comp. Chem., 2003 24(14)1740-1747
     doi.org/10.1002/jcc.10318
  2. Neese,F.; Wennmohs,F.; Hansen,A.; Becker,U.
     Efficient, approximate and parallel Hartree-Fock and hybrid DFT calculations. A 'chain-of-spheres' algorithm for the Hartree-Fock exchange
     Chem. Phys., 2009 356(1-3)98-109
     doi.org/10.1016/j.chemphys.2008.10.036
  3. Helmich-Paris,B.; de Souza,B.; Neese,F.; Izsák,R.
     An improved chain of spheres for exchange algorithm
     J. Chem. Phys., 2021 155 104109
     doi.org/doi: 10.1063/5.0058766.
  4. Neese,F.
     The SHARK Integral Generation and Digestion System
     J. Comp. Chem., 2022  1-16
     doi.org/10.1002/jcc.26942

List of suggested additional citations. These are papers that are important in the 'surrounding' of 
of this run, or papers that preceded the highly important papers. If you like your results we are grateful for a citation.

  1. Izsak,R.; Neese,F.
     An overlap fitted chain of spheres exchange method
     J. Chem. Phys., 2011 135 144105
     doi.org/10.1063/1.3646921
  2. Izsak,R.; Hansen,A.; Neese,F.
     The resolution of identity and chain of spheres approximations for the LPNO-CCSD singles Fock term
     Molec. Phys., 2012 110 2413-2417
     doi.org/10.1080/00268976.2012.687466
  3. Neese,F.
     The ORCA program system
     WIRES Comput. Molec. Sci., 2012 2(1)73-78
     doi.org/10.1002/wcms.81
  4. Izsak,R.; Neese,F.; Klopper,W.
     Robust fitting techniques in the chain of spheres approximation to the Fock exchange: The role of the complementary space
     J. Chem. Phys., 2013 139 
     doi.org/10.1063/1.4819264
  5. Neese,F.
     Software update: the ORCA program system, version 4.0
     WIRES Comput. Molec. Sci., 2018 8(1)1-6
     doi.org/10.1002/wcms.1327
  6. Neese,F.; Wennmohs,F.; Becker,U.; Riplinger,C.
     The ORCA quantum chemistry program package
     J. Chem. Phys., 2020 152 Art. No. L224108
     doi.org/10.1063/5.0004608

List of optional additional citations

  1. Neese,F.
     Approximate second-order SCF convergence for spin unrestricted wavefunctions
     Chem. Phys. Lett., 2000 325(1-3)93-98
     doi.org/10.1016/s0009-2614(00)00662-x

Timings for individual modules:

Sum of individual times          ...      808.231 sec (=  13.471 min)
Startup calculation              ...       19.538 sec (=   0.326 min)   2.4 %
SCF iterations                   ...      788.377 sec (=  13.140 min)  97.5 %
Property calculations            ...        0.317 sec (=   0.005 min)   0.0 %
                             ****ORCA TERMINATED NORMALLY****
TOTAL RUN TIME: 0 days 0 hours 13 minutes 29 seconds 474 msec
