
                                 *****************
                                 * O   R   C   A *
                                 *****************

                                            #,                                       
                                            ###                                      
                                            ####                                     
                                            #####                                    
                                            ######                                   
                                           ########,                                 
                                     ,,################,,,,,                         
                               ,,#################################,,                 
                          ,,##########################################,,             
                       ,#########################################, ''#####,          
                    ,#############################################,,   '####,        
                  ,##################################################,,,,####,       
                ,###########''''           ''''###############################       
              ,#####''   ,,,,##########,,,,          '''####'''          '####       
            ,##' ,,,,###########################,,,                        '##       
           ' ,,###''''                  '''############,,,                           
         ,,##''                                '''############,,,,        ,,,,,,###''
      ,#''                                            '''#######################'''  
     '                                                          ''''####''''         
             ,#######,   #######,   ,#######,      ##                                
            ,#'     '#,  ##    ##  ,#'     '#,    #''#        ,####,   ,####,        
            ##       ##  ##   ,#'  ##            #'  '#       #'       #'  '#        
            ##       ##  #######   ##           ,######,      #####,   #    #        
            '#,     ,#'  ##    ##  '#,     ,#' ,#      #,     #,   #   #,  ,#        
             '#######'   ##     ##  '#######'  #'      '#     '####' # '####'        



                #########################################################
                #                        -***-                          #
                #          Department of theory and spectroscopy        #
                #                                                       #
                #                      Frank Neese                      #
                #                                                       #
                #     Directorship, Architecture, Infrastructure        #
                #                    SHARK, DRIVERS                     #
                #        Core code/Algorithms in most modules           #
                #                                                       #
                #        Max Planck Institute fuer Kohlenforschung      #
                #                Kaiser Wilhelm Platz 1                 #
                #                 D-45470 Muelheim/Ruhr                 #
                #                      Germany                          #
                #                                                       #
                #                  All rights reserved                  #
                #                        -***-                          #
                #########################################################


                         Program Version 6.0.0  -   RELEASE  -


 With contributions from (in alphabetic order):
   Daniel Aravena         : Magnetic Suceptibility
   Michael Atanasov       : Ab Initio Ligand Field Theory (pilot matlab implementation)
   Alexander A. Auer      : GIAO ZORA, VPT2 properties, NMR spectrum
   Ute Becker             : All parallelization in ORCA, NUMFREQ, NUMCALC
   Giovanni Bistoni       : ED, misc. LED, open-shell LED, HFLD
   Martin Brehm           : Molecular dynamics
   Dmytro Bykov           : pre 5.0 version of the SCF Hessian
   Marcos Casanova-Páez   : Triplet and SCS-CIS(D). UHF-(DLPNO)-IP/EA/STEOM-CCSD. UHF-CVS-IP/STEOM-CCSD
   Vijay G. Chilkuri      : MRCI spin determinant printing, contributions to CSF-ICE
   Pauline Colinet        : FMM embedding
   Dipayan Datta          : RHF DLPNO-CCSD density
   Achintya Kumar Dutta   : EOM-CC, STEOM-CC
   Nicolas Foglia         : Exact transition moments, OPA infrastructure, MCD improvements
   Dmitry Ganyushin       : Spin-Orbit,Spin-Spin,Magnetic field MRCI
   Miquel Garcia          : C-PCM and meta-GGA Hessian, CCSD/C-PCM, Gaussian charge scheme
   Tiago L. C. Gouveia    : GS-ROHF, GS-ROCIS
   Yang Guo               : DLPNO-NEVPT2, F12-NEVPT2, CIM, IAO-localization
   Andreas Hansen         : Spin unrestricted coupled pair/coupled cluster methods
   Ingolf Harden          : AUTO-CI MPn and infrastructure 
   Benjamin Helmich-Paris : MC-RPA, TRAH-(SCF,CASSCF), AVAS, COSX integrals, SCF dyn. polar.
   Lee Huntington         : MR-EOM, pCC
   Robert Izsak           : Overlap fitted RIJCOSX, COSX-SCS-MP3, EOM
   Riya Kayal             : Wick's Theorem for AUTO-CI, AUTO-CI UHF-CCSDT
   Emily Kempfer          : AUTO-CI, RHF CISDT and CCSDT
   Christian Kollmar      : KDIIS, OOCD, Brueckner-CCSD(T), CCSD density, CASPT2, CASPT2-K, improved NEVPT2
   Axel Koslowski         : Symmetry handling
   Simone Kossmann        : Meta GGA functionals, TD-DFT gradient, OOMP2, (MP2 Hessian; deprecated post 5.0)
   Lucas Lang             : DCDCAS
   Marvin Lechner         : AUTO-CI (C++ implementation), FIC-MRCC
   Spencer Leger          : CASSCF response
   Dagmar Lenk            : GEPOL surface, SMD, ORCA-2-JSON
   Dimitrios Liakos       : Extrapolation schemes; Compound Job, initial MDCI parallelization
   Dimitrios Manganas     : Further ROCIS development; embedding schemes. LFT, Crystal Embedding
   Dimitrios Pantazis     : SARC Basis sets
   Anastasios Papadopoulos: AUTO-CI, single reference methods and gradients
   Taras Petrenko         : pre 6.0 DFT Hessian and TD-DFT gradient, (ASA, deprecated), ECA, 1-Electron XAS/XES, NRVS
   Peter Pinski           : DLPNO-MP2, DLPNO-MP2 Gradient
   Christoph Reimann      : Effective Core Potentials
   Marius Retegan         : Local ZFS, SOC
   Christoph Riplinger    : Optimizer, TS searches, QM/MM, DLPNO-CCSD(T), (RO)-DLPNO pert. Triples
   Michael Roemelt        : Original ROCIS implementation
   Masaaki Saitow         : Open-shell DLPNO-CCSD energy and density
   Barbara Sandhoefer     : DKH picture change effects
   Kantharuban Sivalingam : CASSCF convergence/infrastructure, NEVPT2 and variants, FIC-MRCI
   Bernardo de Souza      : ESD, SOC TD-DFT
   Georgi Stoychev        : AutoAux, RI-MP2 NMR, DLPNO-MP2 response, X2C
   Van Anh Tran           : RI-MP2 g-tensors
   Willem Van den Heuvel  : Paramagnetic NMR
   Zikuan Wang            : NOTCH, Electric field optimization 
   Frank Wennmohs         : Technical directorship and infrastructure
   Hang Xu                : AUTO-CI-Response properties 


 We gratefully acknowledge several colleagues who have allowed us to
 interface, adapt or use parts of their codes:
   Stefan Grimme, W. Hujo, H. Kruse, P. Pracht,  : VdW corrections, initial TS optimization,
                  C. Bannwarth, S. Ehlert,         DFT functionals, gCP, sTDA/sTD-DF
                  L. Wittmann, M. Mueller
   Ed Valeev, F. Pavosevic, A. Kumar             : LibInt (2-el integral package), F12 methods
   Garnet Chan, S. Sharma, J. Yang, R. Olivares  : DMRG
   Ulf Ekstrom                                   : XCFun DFT Library
   Mihaly Kallay                                 : mrcc  (arbitrary order and MRCC methods)
   Frank Weinhold                                : gennbo (NPA and NBO analysis)
   Simon Mueller                                 : openCOSMO-RS
   Christopher J. Cramer and Donald G. Truhlar   : smd solvation model
   Lars Goerigk                                  : TD-DFT with DH, B97 family of functionals
   V. Asgeirsson, H. Jonsson                     : NEB implementation
   FAccTs GmbH                                   : IRC, NEB, NEB-TS, DLPNO-Multilevel, CI-OPT
                                                   MM, QMMM, 2- and 3-layer-ONIOM, Crystal-QMMM,
                                                   LR-CPCM, SF, NACMEs, symmetry and pop. for TD-DFT,
                                                   nearIR, NL-DFT gradient (VV10), updates on ESD,
                                                   ML-optimized integration grids, MBIS, APM,
                                                   GOAT, DOCKER, SOLVATOR, interface openCOSMO-RS
   S Lehtola, MJT Oliveira, MAL Marques          : LibXC Library
   Liviu Ungur et al                             : ANISO software


 Your calculation uses the libint2 library for the computation of 2-el integrals
 For citations please refer to: http://libint.valeyev.net

 Your ORCA version has been built with support for libXC version: 6.2.2
 For citations please refer to: https://libxc.gitlab.io

 This ORCA versions uses:
   CBLAS   interface :  Fast vector & matrix operations
   LAPACKE interface :  Fast linear algebra routines
   SCALAPACK package :  Parallel linear algebra routines
   Shared memory     :  Shared parallel matrices
   BLAS/LAPACK       :  OpenBLAS 0.3.27  USE64BITINT DYNAMIC_ARCH NO_AFFINITY SkylakeX SINGLE_THREADED
        Core in use  :  SkylakeX
   Copyright (c) 2011-2014, The OpenBLAS Project


Warning: RI is on but no J-basis has been assigned. Assigning Def2/J (nothing to worry about!)
================================================================================

----- Orbital basis set information -----
Your calculation utilizes the basis: 6-31G*
   H-He, Li-Ne : W. J. Hehre, R. Ditchfield and J.A. Pople, J. Chem. Phys. 56, 2257 (1972).
                 Note: He and Ne are unpublished basis sets taken from the Gaussian program.
                 Note: Li and B from J. D. Dill and J. A. Pople, J. Chem. Phys. 62, 2921 (1975).
   Na - Ar     : M. M. Francl, W. J. Pietro, W. J. Hehre, J. S. Binkley, M. S. Gordon, 
                 D. J. DeFrees and J. A. Pople, J. Chem. Phys. 77, 3654 (1982).
   K - Zn      : V. A. Rassolov, J. A. Pople, M. A. Ratner, and T. L. Windus, J. Chem. Phys. 109, 1223 (1998).

----- AuxJ basis set information -----
Your calculation utilizes the auxiliary basis: def2/J
   F. Weigend, Phys. Chem. Chem. Phys. 8, 1057 (2006).

================================================================================
                                        WARNINGS
                       Please study these warnings very carefully!
================================================================================


================================================================================
                                       INPUT FILE
================================================================================
NAME = /home/nmrbox/aojoawo/Documents/ERDOS/inputs/CHEMBL2443076.inp
|  1> ! B3LYP 6-31G* SP
|  2> 
|  3> * xyz 0 1
|  4> O 2.4115 2.1892 -0.2904
|  5> C 1.7937 1.1327 0.0168
|  6> N 2.5344 -0.0443 0.3919
|  7> C 3.9606 -0.1706 0.2556
|  8> C 4.6795 -0.9083 1.2065
|  9> C 6.0636 -1.0657 1.0871
| 10> C 6.7513 -0.4969 -0.0019
| 11> O 8.1396 -0.6219 -0.1728
| 12> C 9.0167 -1.3283 0.7014
| 13> F 10.3052 -1.2379 0.2119
| 14> F 8.9801 -0.7695 1.9663
| 15> F 8.6554 -2.6621 0.7633
| 16> C 6.0291 0.2213 -0.9621
| 17> C 4.6451 0.3785 -0.8427
| 18> N 0.3505 1.1308 0.0143
| 19> C -0.3822 2.1667 -0.7284
| 20> C -1.6401 1.5593 -1.3563
| 21> C -2.5867 0.8904 -0.3114
| 22> C -1.8493 0.5971 1.0284
| 23> C -0.3987 0.1496 0.8133
| 24> C -3.8156 1.8022 -0.0591
| 25> C -4.8747 1.1095 0.8244
| 26> O -6.0522 1.8788 0.8518
| 27> C -5.1541 -0.3087 0.3637
| 28> C -6.3035 -0.9866 0.8042
| 29> C -6.5479 -2.3000 0.3954
| 30> C -5.6427 -2.9534 -0.4438
| 31> C -4.4808 -2.3006 -0.8674
| 32> Cl -3.3422 -3.1468 -1.9034
| 33> C -4.2233 -0.9859 -0.4525
| 34> O -3.0432 -0.3505 -0.8625
| 35> H 2.0322 -0.8329 0.8562
| 36> H 4.1653 -1.3557 2.0484
| 37> H 6.5844 -1.6335 1.8453
| 38> H 6.5428 0.6502 -1.8131
| 39> H 4.1109 0.9044 -1.6226
| 40> H -0.6580 2.9959 -0.0413
| 41> H 0.2464 2.5848 -1.5451
| 42> H -1.3064 0.7956 -2.0944
| 43> H -2.1635 2.3459 -1.9431
| 44> H -2.3840 -0.1920 1.6007
| 45> H -1.8348 1.5102 1.6641
| 46> H 0.0731 0.0417 1.8142
| 47> H -0.3824 -0.8358 0.2999
| 48> H -3.5006 2.7580 0.4141
| 49> H -4.2851 2.0522 -1.0370
| 50> H -4.4867 1.0552 1.8640
| 51> H -6.4395 1.8685 -0.0628
| 52> H -7.0120 -0.4976 1.4614
| 53> H -7.4402 -2.8127 0.7308
| 54> H -5.8410 -3.9704 -0.7571
| 55> *
| 56> 
| 57>                          ****END OF INPUT****
================================================================================

                       ****************************
                       * Single Point Calculation *
                       ****************************

---------------------------------
CARTESIAN COORDINATES (ANGSTROEM)
---------------------------------
  O      2.411500    2.189200   -0.290400
  C      1.793700    1.132700    0.016800
  N      2.534400   -0.044300    0.391900
  C      3.960600   -0.170600    0.255600
  C      4.679500   -0.908300    1.206500
  C      6.063600   -1.065700    1.087100
  C      6.751300   -0.496900   -0.001900
  O      8.139600   -0.621900   -0.172800
  C      9.016700   -1.328300    0.701400
  F     10.305200   -1.237900    0.211900
  F      8.980100   -0.769500    1.966300
  F      8.655400   -2.662100    0.763300
  C      6.029100    0.221300   -0.962100
  C      4.645100    0.378500   -0.842700
  N      0.350500    1.130800    0.014300
  C     -0.382200    2.166700   -0.728400
  C     -1.640100    1.559300   -1.356300
  C     -2.586700    0.890400   -0.311400
  C     -1.849300    0.597100    1.028400
  C     -0.398700    0.149600    0.813300
  C     -3.815600    1.802200   -0.059100
  C     -4.874700    1.109500    0.824400
  O     -6.052200    1.878800    0.851800
  C     -5.154100   -0.308700    0.363700
  C     -6.303500   -0.986600    0.804200
  C     -6.547900   -2.300000    0.395400
  C     -5.642700   -2.953400   -0.443800
  C     -4.480800   -2.300600   -0.867400
  Cl    -3.342200   -3.146800   -1.903400
  C     -4.223300   -0.985900   -0.452500
  O     -3.043200   -0.350500   -0.862500
  H      2.032200   -0.832900    0.856200
  H      4.165300   -1.355700    2.048400
  H      6.584400   -1.633500    1.845300
  H      6.542800    0.650200   -1.813100
  H      4.110900    0.904400   -1.622600
  H     -0.658000    2.995900   -0.041300
  H      0.246400    2.584800   -1.545100
  H     -1.306400    0.795600   -2.094400
  H     -2.163500    2.345900   -1.943100
  H     -2.384000   -0.192000    1.600700
  H     -1.834800    1.510200    1.664100
  H      0.073100    0.041700    1.814200
  H     -0.382400   -0.835800    0.299900
  H     -3.500600    2.758000    0.414100
  H     -4.285100    2.052200   -1.037000
  H     -4.486700    1.055200    1.864000
  H     -6.439500    1.868500   -0.062800
  H     -7.012000   -0.497600    1.461400
  H     -7.440200   -2.812700    0.730800
  H     -5.841000   -3.970400   -0.757100

----------------------------
CARTESIAN COORDINATES (A.U.)
----------------------------
  NO LB      ZA    FRAG     MASS         X           Y           Z
   0 O     8.0000    0    15.999    4.557075    4.136988   -0.548776
   1 C     6.0000    0    12.011    3.389602    2.140493    0.031747
   2 N     7.0000    0    14.007    4.789322   -0.083715    0.740584
   3 C     6.0000    0    12.011    7.484449   -0.322387    0.483014
   4 C     6.0000    0    12.011    8.842973   -1.716438    2.279955
   5 C     6.0000    0    12.011   11.458543   -2.013881    2.054321
   6 C     6.0000    0    12.011   12.758108   -0.939005   -0.003590
   7 O     8.0000    0    15.999   15.381615   -1.175221   -0.326545
   8 C     6.0000    0    12.011   17.039094   -2.510123    1.325454
   9 F     9.0000    0    18.998   19.474006   -2.339292    0.400433
  10 F     9.0000    0    18.998   16.969930   -1.454144    3.715768
  11 F     9.0000    0    18.998   16.356336   -5.030640    1.442428
  12 C     6.0000    0    12.011   11.393348    0.418196   -1.818106
  13 C     6.0000    0    12.011    8.777967    0.715261   -1.592472
  14 N     7.0000    0    14.007    0.662349    2.136902    0.027023
  15 C     6.0000    0    12.011   -0.722253    4.094470   -1.376477
  16 C     6.0000    0    12.011   -3.099340    2.946650   -2.563036
  17 C     6.0000    0    12.011   -4.888155    1.682612   -0.588461
  18 C     6.0000    0    12.011   -3.494671    1.128355    1.943394
  19 C     6.0000    0    12.011   -0.753434    0.282703    1.536914
  20 C     6.0000    0    12.011   -7.210439    3.405664   -0.111683
  21 C     6.0000    0    12.011   -9.211848    2.096651    1.557890
  22 O     8.0000    0    15.999  -11.437001    3.550417    1.609669
  23 C     6.0000    0    12.011   -9.739837   -0.583358    0.687293
  24 C     6.0000    0    12.011  -11.911889   -1.864404    1.519718
  25 C     6.0000    0    12.011  -12.373738   -4.346370    0.747198
  26 C     6.0000    0    12.011  -10.663158   -5.581117   -0.838660
  27 C     6.0000    0    12.011   -8.467485   -4.347504   -1.639148
  28 Cl   17.0000    0    35.453   -6.315843   -5.946590   -3.596905
  29 C     6.0000    0    12.011   -7.980880   -1.863081   -0.855101
  30 O     8.0000    0    15.999   -5.750815   -0.662349   -1.629889
  31 H     1.0000    0     1.008    3.840301   -1.573953    1.617984
  32 H     1.0000    0     1.008    7.871276   -2.561902    3.870915
  33 H     1.0000    0     1.008   12.442713   -3.086868    3.487112
  34 H     1.0000    0     1.008   12.364100    1.228700   -3.426262
  35 H     1.0000    0     1.008    7.768475    1.709068   -3.066270
  36 H     1.0000    0     1.008   -1.243440    5.661431   -0.078046
  37 H     1.0000    0     1.008    0.465629    4.884564   -2.919816
  38 H     1.0000    0     1.008   -2.468738    1.503466   -3.957842
  39 H     1.0000    0     1.008   -4.088422    4.433109   -3.671927
  40 H     1.0000    0     1.008   -4.505107   -0.362827    3.024885
  41 H     1.0000    0     1.008   -3.467270    2.853864    3.144693
  42 H     1.0000    0     1.008    0.138139    0.078802    3.428341
  43 H     1.0000    0     1.008   -0.722631   -1.579433    0.566729
  44 H     1.0000    0     1.008   -6.615175    5.211865    0.782536
  45 H     1.0000    0     1.008   -8.097665    3.878096   -1.959646
  46 H     1.0000    0     1.008   -8.478634    1.994039    3.522450
  47 H     1.0000    0     1.008  -12.168891    3.530953   -0.118675
  48 H     1.0000    0     1.008  -13.250760   -0.940328    2.761646
  49 H     1.0000    0     1.008  -14.059940   -5.315233    1.381012
  50 H     1.0000    0     1.008  -11.037890   -7.502969   -1.430712

--------------------------------
INTERNAL COORDINATES (ANGSTROEM)
--------------------------------
 O      0   0   0     0.000000000000     0.00000000     0.00000000
 C      1   0   0     1.261840294966     0.00000000     0.00000000
 N      2   1   0     1.440369917764   119.72258713     0.00000000
 C      3   2   1     1.438254435071   123.84937480   350.43464111
 C      4   3   2     1.401866366670   119.36996276   145.59926210
 C      5   4   3     1.398128724403   120.59626801   178.96308348
 C      6   5   4     1.407972204981   120.27192652   359.22492810
 O      7   6   5     1.404353481144   122.75276449   179.96971086
 C      8   7   6     1.425668618579   125.28680756     0.43894094
 F      9   8   7     1.381309038557   108.91466653   179.81851138
 F      9   8   7     1.383318115981   110.13675158   299.06076876
 F      9   8   7     1.383254040298   110.15244531    60.54259830
 C      7   6   5     1.399774310380   119.06747171   359.74773447
 C     13   7   6     1.398007224588   120.65571924     0.24593314
 N      2   1   3     1.443203416016   119.35910286   178.68798317
 C     15   2   1     1.470218143678   119.88810194    19.28909134
 C     16  15   2     1.531504351936   109.69405347   143.32036523
 C     17  16  15     1.560543104179   113.18467934    57.05820498
 C     18  17  16     1.557192245678   111.69019666   342.03323117
 C     15   2   1     1.470528843648   120.62471108   202.95166313
 C     18  17  16     1.550880311307   109.72914125   104.59624294
 C     21  18  17     1.543404791362   111.90088121   172.54954563
 O     22  21  18     1.406797604490   109.88182012   189.30138201
 C     22  21  18     1.517102531143   111.84513137   313.41248587
 C     24  22  21     1.405243402404   120.42459594   196.14912386
 C     25  24  22     1.397092824404   120.32279165   181.01247749
 C     26  25  24     1.396629958149   120.14926094     0.67421314
 C     27  26  25     1.398426404928   120.14086073     0.66221435
 Cl    28  27  26     1.756633257114   119.49303562   179.09411711
 C     28  27  26     1.402456541216   120.03568446   359.85152186
 O     30  28  27     1.401595223308   119.53958491   178.78669588
 H      3   2   1     1.043872257510   119.06189464   165.68055097
 H      5   4   3     1.083219280663   120.07352546   358.42471080
 H      6   5   4     1.080970267861   118.43681727   179.42314331
 H     13   7   6     1.082609763488   119.84589265   180.99706920
 H     14  13   7     1.081750645944   118.81428747   182.47446793
 H     16  15   2     1.111640539923   109.69272992   264.50756690
 H     16  15   2     1.112180048373   110.74174284    23.96735092
 H     17  16  15     1.113276690675   107.31909609   296.29174909
 H     17  16  15     1.112214619577   108.80429069   181.95749929
 H     19  18  17     1.111804924436   110.41561053   201.23829140
 H     19  18  17     1.112688792970   110.06978925    83.16027991
 H     20  15   2     1.111772665611   109.73734334    42.43077743
 H     20  15   2     1.111241832366   109.46198054   282.99363533
 H     21  18  17     1.112068738883   110.49239972   295.06091274
 H     21  18  17     1.113201985266   108.86385234    52.86245256
 H     22  21  18     1.110972839452   108.53852423    72.00022005
 H     23  22  21     0.993277675174   107.62358258    66.46848201
 H     25  24  22     1.083053595165   120.49577943     1.20891294
 H     26  25  24     1.082383360922   119.92354288   180.60051827
 H     27  26  25     1.082482692702   119.65113901   180.11500555

---------------------------
INTERNAL COORDINATES (A.U.)
---------------------------
 O      0   0   0     0.000000000000     0.00000000     0.00000000
 C      1   0   0     2.384532582232     0.00000000     0.00000000
 N      2   1   0     2.721904676113   119.72258713     0.00000000
 C      3   2   1     2.717906993181   123.84937480   350.43464111
 C      4   3   2     2.649143509361   119.36996276   145.59926210
 C      5   4   3     2.642080389090   120.59626801   178.96308348
 C      6   5   4     2.660681871588   120.27192652   359.22492810
 O      7   6   5     2.653843474580   122.75276449   179.96971086
 C      8   7   6     2.694123246840   125.28680756     0.43894094
 F      9   8   7     2.610295789183   108.91466653   179.81851138
 F      9   8   7     2.614092395295   110.13675158   299.06076876
 F      9   8   7     2.613971309803   110.15244531    60.54259830
 C      7   6   5     2.645190095917   119.06747171   359.74773447
 C     13   7   6     2.641850787714   120.65571924     0.24593314
 N      2   1   3     2.727259211810   119.35910286   178.68798317
 C     15   2   1     2.778309648674   119.88810194    19.28909134
 C     16  15   2     2.894123798068   109.69405347   143.32036523
 C     17  16  15     2.948999087077   113.18467934    57.05820498
 C     18  17  16     2.942666882197   111.69019666   342.03323117
 C     15   2   1     2.778896786526   120.62471108   202.95166313
 C     18  17  16     2.930739054861   109.72914125   104.59624294
 C     21  18  17     2.916612369457   111.90088121   172.54954563
 O     22  21  18     2.658462198343   109.88182012   189.30138201
 C     22  21  18     2.866908300939   111.84513137   313.41248587
 C     24  22  21     2.655525182043   120.42459594   196.14912386
 C     25  24  22     2.640122821789   120.32279165   181.01247749
 C     26  25  24     2.639248131332   120.14926094     0.67421314
 C     27  26  25     2.642642923758   120.14086073     0.66221435
 Cl    28  27  26     3.319555773684   119.49303562   179.09411711
 C     28  27  26     2.650258777625   120.03568446   359.85152186
 O     30  28  27     2.648631122664   119.53958491   178.78669588
 H      3   2   1     1.972632685493   119.06189464   165.68055097
 H      5   4   3     2.046987783436   120.07352546   358.42471080
 H      6   5   4     2.042737765169   118.43681727   179.42314331
 H     13   7   6     2.045835962902   119.84589265   180.99706920
 H     14  13   7     2.044212466026   118.81428747   182.47446793
 H     16  15   2     2.100696179819   109.69272992   264.50756690
 H     16  15   2     2.101715703037   110.74174284    23.96735092
 H     17  16  15     2.103788056654   107.31909609   296.29174909
 H     17  16  15     2.101781033143   108.80429069   181.95749929
 H     19  18  17     2.101006821529   110.41561053   201.23829140
 H     19  18  17     2.102677090996   110.06978925    83.16027991
 H     20  15   2     2.100945861185   109.73734334    42.43077743
 H     20  15   2     2.099942731728   109.46198054   282.99363533
 H     21  18  17     2.101505358583   110.49239972   295.06091274
 H     21  18  17     2.103646883890   108.86385234    52.86245256
 H     22  21  18     2.099434408789   108.53852423    72.00022005
 H     23  22  21     1.877022781018   107.62358258    66.46848201
 H     25  24  22     2.046674683221   120.49577943     1.20891294
 H     26  25  24     2.045408124055   119.92354288   180.60051827
 H     27  26  25     2.045595833917   119.65113901   180.11500555

---------------------
BASIS SET INFORMATION
---------------------
There are 6 groups of distinct atoms

 Group   1 Type O   : 10s4p1d contracted to 3s2p1d pattern {631/31/1}
 Group   2 Type C   : 10s4p1d contracted to 3s2p1d pattern {631/31/1}
 Group   3 Type N   : 10s4p1d contracted to 3s2p1d pattern {631/31/1}
 Group   4 Type F   : 10s4p1d contracted to 3s2p1d pattern {631/31/1}
 Group   5 Type Cl  : 16s10p1d contracted to 4s3p1d pattern {6631/631/1}
 Group   6 Type H   : 4s contracted to 2s pattern {31}

Atom   0O    basis set group =>   1
Atom   1C    basis set group =>   2
Atom   2N    basis set group =>   3
Atom   3C    basis set group =>   2
Atom   4C    basis set group =>   2
Atom   5C    basis set group =>   2
Atom   6C    basis set group =>   2
Atom   7O    basis set group =>   1
Atom   8C    basis set group =>   2
Atom   9F    basis set group =>   4
Atom  10F    basis set group =>   4
Atom  11F    basis set group =>   4
Atom  12C    basis set group =>   2
Atom  13C    basis set group =>   2
Atom  14N    basis set group =>   3
Atom  15C    basis set group =>   2
Atom  16C    basis set group =>   2
Atom  17C    basis set group =>   2
Atom  18C    basis set group =>   2
Atom  19C    basis set group =>   2
Atom  20C    basis set group =>   2
Atom  21C    basis set group =>   2
Atom  22O    basis set group =>   1
Atom  23C    basis set group =>   2
Atom  24C    basis set group =>   2
Atom  25C    basis set group =>   2
Atom  26C    basis set group =>   2
Atom  27C    basis set group =>   2
Atom  28Cl   basis set group =>   5
Atom  29C    basis set group =>   2
Atom  30O    basis set group =>   1
Atom  31H    basis set group =>   6
Atom  32H    basis set group =>   6
Atom  33H    basis set group =>   6
Atom  34H    basis set group =>   6
Atom  35H    basis set group =>   6
Atom  36H    basis set group =>   6
Atom  37H    basis set group =>   6
Atom  38H    basis set group =>   6
Atom  39H    basis set group =>   6
Atom  40H    basis set group =>   6
Atom  41H    basis set group =>   6
Atom  42H    basis set group =>   6
Atom  43H    basis set group =>   6
Atom  44H    basis set group =>   6
Atom  45H    basis set group =>   6
Atom  46H    basis set group =>   6
Atom  47H    basis set group =>   6
Atom  48H    basis set group =>   6
Atom  49H    basis set group =>   6
Atom  50H    basis set group =>   6
---------------------------------
AUXILIARY/J BASIS SET INFORMATION
---------------------------------
There are 6 groups of distinct atoms

 Group   1 Type O   : 12s5p4d2f1g contracted to 6s4p3d1f1g pattern {711111/2111/211/2/1}
 Group   2 Type C   : 12s5p4d2f1g contracted to 6s4p3d1f1g pattern {711111/2111/211/2/1}
 Group   3 Type N   : 12s5p4d2f1g contracted to 6s4p3d1f1g pattern {711111/2111/211/2/1}
 Group   4 Type F   : 12s5p4d2f1g contracted to 6s4p3d1f1g pattern {711111/2111/211/2/1}
 Group   5 Type Cl  : 14s5p5d2f1g contracted to 8s4p3d1f1g pattern {71111111/2111/311/2/1}
 Group   6 Type H   : 5s2p1d contracted to 3s1p1d pattern {311/2/1}

Atom   0O    basis set group =>   1
Atom   1C    basis set group =>   2
Atom   2N    basis set group =>   3
Atom   3C    basis set group =>   2
Atom   4C    basis set group =>   2
Atom   5C    basis set group =>   2
Atom   6C    basis set group =>   2
Atom   7O    basis set group =>   1
Atom   8C    basis set group =>   2
Atom   9F    basis set group =>   4
Atom  10F    basis set group =>   4
Atom  11F    basis set group =>   4
Atom  12C    basis set group =>   2
Atom  13C    basis set group =>   2
Atom  14N    basis set group =>   3
Atom  15C    basis set group =>   2
Atom  16C    basis set group =>   2
Atom  17C    basis set group =>   2
Atom  18C    basis set group =>   2
Atom  19C    basis set group =>   2
Atom  20C    basis set group =>   2
Atom  21C    basis set group =>   2
Atom  22O    basis set group =>   1
Atom  23C    basis set group =>   2
Atom  24C    basis set group =>   2
Atom  25C    basis set group =>   2
Atom  26C    basis set group =>   2
Atom  27C    basis set group =>   2
Atom  28Cl   basis set group =>   5
Atom  29C    basis set group =>   2
Atom  30O    basis set group =>   1
Atom  31H    basis set group =>   6
Atom  32H    basis set group =>   6
Atom  33H    basis set group =>   6
Atom  34H    basis set group =>   6
Atom  35H    basis set group =>   6
Atom  36H    basis set group =>   6
Atom  37H    basis set group =>   6
Atom  38H    basis set group =>   6
Atom  39H    basis set group =>   6
Atom  40H    basis set group =>   6
Atom  41H    basis set group =>   6
Atom  42H    basis set group =>   6
Atom  43H    basis set group =>   6
Atom  44H    basis set group =>   6
Atom  45H    basis set group =>   6
Atom  46H    basis set group =>   6
Atom  47H    basis set group =>   6
Atom  48H    basis set group =>   6
Atom  49H    basis set group =>   6
Atom  50H    basis set group =>   6
------------------------------------------------------------------------------
                             ORCA STARTUP CALCULATIONS
                           -- RI-GTO INTEGRALS CHOSEN --
------------------------------------------------------------------------------
------------------------------------------------------------------------------
                   ___                                                        
                  /   \      - P O W E R E D   B Y -                         
                 /     \                                                     
                 |  |  |   _    _      __       _____    __    __             
                 |  |  |  | |  | |    /  \     |  _  \  |  |  /  |          
                  \  \/   | |  | |   /    \    | | | |  |  | /  /          
                 / \  \   | |__| |  /  /\  \   | |_| |  |  |/  /          
                |  |  |   |  __  | /  /__\  \  |    /   |      \           
                |  |  |   | |  | | |   __   |  |    \   |  |\   \          
                \     /   | |  | | |  |  |  |  | |\  \  |  | \   \       
                 \___/    |_|  |_| |__|  |__|  |_| \__\ |__|  \__/        
                                                                              
                      - O R C A' S   B I G   F R I E N D -                    
                                      &                                       
                       - I N T E G R A L  F E E D E R -                       
                                                                              
 v1 FN, 2020, v2 2021, v3 2022-2024                                           
------------------------------------------------------------------------------


----------------------
SHARK INTEGRAL PACKAGE
----------------------

Number of atoms                             ...     51
Number of basis functions                   ...    478
Number of shells                            ...    228
Maximum angular momentum                    ...      2
Integral batch strategy                     ... SHARK/LIBINT Hybrid
RI-J (if used) integral strategy            ... SPLIT-RIJ (Revised 2003 algorithm where possible)
Printlevel                                  ...      1
Contraction scheme used                     ... SEGMENTED contraction
Prescreening option                         ... SCHWARTZ
   Thresh                                   ... 1.000e-10
   Tcut                                     ... 1.000e-11
   Tpresel                                  ... 1.000e-11 
Coulomb Range Separation                    ... NOT USED
Exchange Range Separation                   ... NOT USED
Multipole approximations                    ... NOT USED
Finite Nucleus Model                        ... NOT USED
CABS basis                                  ... NOT available
Auxiliary Coulomb fitting basis             ... AVAILABLE
   # of basis functions in Aux-J            ...   1741
   # of shells in Aux-J                     ...    567
   Maximum angular momentum in Aux-J        ...      4
Auxiliary J/K fitting basis                 ... NOT available
Auxiliary Correlation fitting basis         ... NOT available
Auxiliary 'external' fitting basis          ... NOT available

Checking pre-screening integrals            ... done (  0.0 sec) Dimension = 228
Check shell pair data                       ... done (  0.0 sec)
Shell pair information
Shell pair cut-off parameter TPreSel        ...   1.0e-11
Total number of shell pairs                 ...     26106
Shell pairs after pre-screening             ...     13357
Total number of primitive shell pairs       ...    156144
Primitive shell pairs kept                  ...     42699
          la=0 lb=0:   4513 shell pairs
          la=1 lb=0:   4608 shell pairs
          la=1 lb=1:   1190 shell pairs
          la=2 lb=0:   1858 shell pairs
          la=2 lb=1:    985 shell pairs
          la=2 lb=2:    203 shell pairs

Calculating one electron integrals          ... done (  0.2 sec)
Calculating RI/J V-Matrix + Cholesky decomp.... done (  0.4 sec)
Calculating Nuclear repulsion               ... done (  0.0 sec) ENN=   3078.458023151108 Eh

Diagonalization of the overlap matrix:
Smallest eigenvalue                        ... 4.285e-04
Time for diagonalization                   ...    0.040 sec
Threshold for overlap eigenvalues          ... 1.000e-07
Number of eigenvalues below threshold      ... 0
Time for construction of square roots      ...    0.030 sec
Total time needed                          ...    0.080 sec

-------------------
DFT GRID GENERATION
-------------------

General Integration Accuracy     IntAcc      ... 4.388
Radial Grid Type                 RadialGrid  ... OptM3 with GC (2021)
Angular Grid (max. ang.)         AngularGrid ... 4 (Lebedev-302)
Angular grid pruning method      GridPruning ... 4 (adaptive)
Weight generation scheme         WeightScheme... mBecke (2022)
Basis function cutoff            BFCut       ... 1.0000e-10
Integration weight cutoff        WCut        ... 1.0000e-14
Partially contracted basis set               ... off
Rotationally invariant grid construction     ... off
Angular grids for H and He will be reduced by one unit

Total number of grid points                  ...   250210
Total number of batches                      ...     3935
Average number of points per batch           ...       63
Average number of grid points per atom       ...     4906

--------------------
COSX GRID GENERATION
--------------------

GRIDX 1
-------
General Integration Accuracy     IntAcc      ... 3.816
Radial Grid Type                 RadialGrid  ... OptM3 with GC (2021)
Angular Grid (max. ang.)         AngularGrid ... 1 (Lebedev-50)
Angular grid pruning method      GridPruning ... 4 (adaptive)
Weight generation scheme         WeightScheme... mBecke (2022)
Basis function cutoff            BFCut       ... 1.0000e-10
Integration weight cutoff        WCut        ... 1.0000e-14
Partially contracted basis set               ... on
Rotationally invariant grid construction     ... off
Angular grids for H and He will be reduced by one unit

Total number of grid points                  ...    32734
Total number of batches                      ...      285
Average number of points per batch           ...      114
Average number of grid points per atom       ...      642
UseSFitting                                  ... on

GRIDX 2
-------
General Integration Accuracy     IntAcc      ... 4.020
Radial Grid Type                 RadialGrid  ... OptM3 with GC (2021)
Angular Grid (max. ang.)         AngularGrid ... 2 (Lebedev-110)
Angular grid pruning method      GridPruning ... 4 (adaptive)
Weight generation scheme         WeightScheme... mBecke (2022)
Basis function cutoff            BFCut       ... 1.0000e-10
Integration weight cutoff        WCut        ... 1.0000e-14
Partially contracted basis set               ... on
Rotationally invariant grid construction     ... off
Angular grids for H and He will be reduced by one unit

Total number of grid points                  ...    69356
Total number of batches                      ...      568
Average number of points per batch           ...      122
Average number of grid points per atom       ...     1360
UseSFitting                                  ... on

GRIDX 3
-------
General Integration Accuracy     IntAcc      ... 4.338
Radial Grid Type                 RadialGrid  ... OptM3 with GC (2021)
Angular Grid (max. ang.)         AngularGrid ... 3 (Lebedev-194)
Angular grid pruning method      GridPruning ... 4 (adaptive)
Weight generation scheme         WeightScheme... mBecke (2022)
Basis function cutoff            BFCut       ... 1.0000e-10
Integration weight cutoff        WCut        ... 1.0000e-14
Partially contracted basis set               ... on
Rotationally invariant grid construction     ... off
Angular grids for H and He will be reduced by one unit

Total number of grid points                  ...   152267
Total number of batches                      ...     1219
Average number of points per batch           ...      124
Average number of grid points per atom       ...     2986
UseSFitting                                  ... on
Initializing property integral containers    ... done (  0.0 sec)

SHARK setup successfully completed in  13.1 seconds

Maximum memory used throughout the entire STARTUP-calculation: 106.1 MB
-------------------------------------------------------------------------------
                                 ORCA GUESS
                   Start orbitals & Density for SCF / CASSCF
-------------------------------------------------------------------------------

------------
SCF SETTINGS
------------
Hamiltonian:
 Density Functional     Method          .... DFT(GTOs)
 Exchange Functional    Exchange        .... B88
   X-Alpha parameter    XAlpha          ....  0.666667
   Becke's b parameter  XBeta           ....  0.004200
 Correlation Functional Correlation     .... LYP
 LDA part of GGA corr.  LDAOpt          .... VWN-5
 Gradients option       PostSCFGGA      .... off
 Hybrid DFT is turned on
   Fraction HF Exchange ScalHFX         ....  0.200000
   Scaling of DF-GGA-X  ScalDFX         ....  0.720000
   Scaling of DF-GGA-C  ScalDFC         ....  0.810000
   Scaling of DF-LDA-C  ScalLDAC        ....  1.000000
   Perturbative correction              ....  0.000000
   NL short-range parameter             ....  4.800000
 RI-approximation to the Coulomb term is turned on
   Number of AuxJ basis functions       .... 1741
   RIJ-COSX (HFX calculated with COS-X)).... on


General Settings:
 Integral files         IntName         .... /home/nmrbox/aojoawo/Documents/ERDOS/inputs/CHEMBL2443076
 Hartree-Fock type      HFTyp           .... RHF
 Total Charge           Charge          ....    0
 Multiplicity           Mult            ....    1
 Number of Electrons    NEL             ....  236
 Basis Dimension        Dim             ....  478
 Nuclear Repulsion      ENuc            ....   3078.4580231511 Eh

Convergence Acceleration:
 AO-DIIS                CNVDIIS         .... on
   Start iteration      DIISMaxIt       ....    12
   Startup error        DIISStart       ....  0.200000
   # of expansion vecs  DIISMaxEq       ....     5
   Bias factor          DIISBfac        ....   1.050
   Max. coefficient     DIISMaxC        ....  10.000
 MO-DIIS                CNVKDIIS        .... off
 Trust-Rad. Augm. Hess. CNVTRAH         .... auto
   Auto Start mean grad. ratio tolernc. ....  1.125000
   Auto Start start iteration           ....    50
   Auto Start num. interpolation iter.  ....    10
   Max. Number of Micro iterations      ....    24
   Max. Number of Macro iterations      .... Maxiter - #DIIS iter
   Number of Davidson start vectors     ....     2
   Converg. threshold    (grad. norm)   ....   5.000e-05
   Grad. Scal. Fac. for Micro threshold ....   0.100
   Minimum threshold for Micro iter.    ....   1.000e-02
   NR start threshold (gradient norm)   ....   1.000e-04
   Initial trust radius                 ....   0.400
   Minimum AH scaling param. (alpha)    ....   1.000
   Maximum AH scaling param. (alpha)    .... 1000.000
   Quad. conv. algorithm                .... NR
   White noise on init. David. guess    .... on
   Maximum white noise                  ....   0.010
   Pseudo random numbers                .... off
   Inactive MOs                         .... canonical
   Orbital update algorithm             .... Taylor
   Preconditioner                       .... Diag
   Full preconditioner red. dimension   ....   250
 SOSCF                  CNVSOSCF        .... on
   Start iteration      SOSCFMaxIt      ....   150
   Startup grad/error   SOSCFStart      ....  0.003300
   Hessian update       SOSCFHessUp     .... L-BFGS
 Level Shifting         CNVShift        .... on
   Level shift para.    LevelShift      ....    0.2500
   Turn off err/grad.   ShiftErr        ....    0.0010
 Zerner damping         CNVZerner       .... off
 Static damping         CNVDamp         .... on
   Fraction old density DampFac         ....    0.7000
   Max. Damping (<1)    DampMax         ....    0.9800
   Min. Damping (>=0)   DampMin         ....    0.0000
   Turn off err/grad.   DampErr         ....    0.1000

SCF Procedure:
 Maximum # iterations   MaxIter         ....   125
 SCF integral mode      SCFMode         .... Direct
   Integral package                     .... SHARK and LIBINT hybrid scheme
 Reset frequency        DirectResetFreq ....    20
 Integral Threshold     Thresh          ....  1.000e-10 Eh
 Primitive CutOff       TCut            ....  1.000e-11 Eh

Convergence Tolerance:
 Convergence Check Mode ConvCheckMode   .... Total+1el-Energy
 Convergence forced     ConvForced      .... 0
 Energy Change          TolE            ....  1.000e-06 Eh
 1-El. energy change                    ....  1.000e-03 Eh
 Orbital Gradient       TolG            ....  5.000e-05
 Orbital Rotation angle TolX            ....  5.000e-05
 DIIS Error             TolErr          ....  1.000e-06

------------------------------
INITIAL GUESS: MODEL POTENTIAL
------------------------------
Loading Hartree-Fock densities                     ... done
Calculating cut-offs                               ... done
Initializing the effective Hamiltonian             ... done
Setting up the integral package (SHARK)            ... done
Starting the Coulomb interaction                   ... done (   3.3 sec)
Making the grid                                    ... done (   1.8 sec)
Mapping shells                                     ... done
Starting the XC term evaluation                    ... done (   1.3 sec)
  promolecular density results
     # of electrons  =    235.979169819
     EX              =   -217.500460996
     EC              =     -8.344230258
     EX+EC           =   -225.844691253
Transforming the Hamiltonian                       ... done (   0.0 sec)
Diagonalizing the Hamiltonian                      ... done (   0.0 sec)
Back transforming the eigenvectors                 ... done (   0.0 sec)
Now organizing SCF variables                       ... done
                      ------------------
                      INITIAL GUESS DONE (   6.5 sec)
                      ------------------
             **** ENERGY FILE WAS UPDATED (/home/nmrbox/aojoawo/Documents/ERDOS/inputs/CHEMBL2443076.en.tmp) ****
Finished Guess after   6.7 sec
Maximum memory used throughout the entire GUESS-calculation: 55.6 MB

-------------------------------------------------------------------------------------------
                                      ORCA LEAN-SCF
                              memory conserving SCF solver
-------------------------------------------------------------------------------------------

----------------------------------------D-I-I-S--------------------------------------------
Iteration    Energy (Eh)           Delta-E    RMSDP     MaxDP     DIISErr   Damp  Time(sec)
-------------------------------------------------------------------------------------------
               ***  Starting incremental Fock matrix formation  ***
    1    -1980.7267723481131725     0.00e+00  1.99e-03  1.12e-01  2.90e-01  0.700  60.2
    2    -1981.0766569391703342    -3.50e-01  1.31e-03  6.19e-02  1.07e-01  0.700  27.4
                               ***Turning on AO-DIIS***
    3    -1981.2073892837183848    -1.31e-01  5.33e-04  1.58e-02  3.72e-02  0.700  26.0
    4    -1981.2881995439279308    -8.08e-02  8.60e-04  2.97e-02  1.59e-02  0.000  24.3
    5    -1981.4678667339344429    -1.80e-01  2.10e-04  7.57e-03  6.20e-03  0.000  24.4
                              *** Initializing SOSCF ***
---------------------------------------S-O-S-C-F--------------------------------------
Iteration    Energy (Eh)           Delta-E    RMSDP     MaxDP     MaxGrad    Time(sec)
--------------------------------------------------------------------------------------
    6    -1981.4689646066804016    -1.10e-03  6.31e-05  2.02e-03  1.63e-03    21.4
               *** Restarting incremental Fock matrix formation ***
    7    -1981.4690543045812774    -8.97e-05  5.37e-05  3.26e-03  4.39e-04    60.2
    8    -1981.4690269622064989     2.73e-05  3.11e-05  2.50e-03  1.08e-03    33.9
    9    -1981.4690693080497113    -4.23e-05  8.44e-06  4.95e-04  6.32e-05    29.1
   10    -1981.4690685637974639     7.44e-07  5.10e-06  3.12e-04  1.12e-04    23.9
                 **** Energy Check signals convergence ****

               *****************************************************
               *                     SUCCESS                       *
               *           SCF CONVERGED AFTER  10 CYCLES          *
               *****************************************************

Recomputing exchange energy using gridx3       ... done (  103.468 sec)
Old exchange energy                            :    -43.955848393 Eh
New exchange energy                            :    -43.955924135 Eh
Exchange energy change after final integration :     -0.000075742 Eh
Total energy after final integration           :  -1981.469144306 Eh
             **** ENERGY FILE WAS UPDATED (/home/nmrbox/aojoawo/Documents/ERDOS/inputs/CHEMBL2443076.en.tmp) ****

----------------
TOTAL SCF ENERGY
----------------

Total Energy       :      -1981.46914430586389 Eh          -53918.51658 eV

Components:
Nuclear Repulsion  :       3078.45802315110768 Eh           83769.10155 eV
Electronic Energy  :      -5059.92709171490515 Eh         -137687.61607 eV
One Electron Energy:      -8842.01791389671416 Eh         -240603.53948 eV
Two Electron Energy:       3782.09082218180902 Eh          102915.92342 eV

Virial components:
Potential Energy   :      -3952.22884076670562 Eh         -107545.61427 eV
Kinetic Energy     :       1970.75969646084172 Eh           53627.09769 eV
Virial Ratio       :          2.00543417234697

DFT components:
N(Alpha)           :      117.999972122036 electrons
N(Beta)            :      117.999972122036 electrons
N(Total)           :      235.999944244072 electrons
E(X)               :     -174.692321957462 Eh       
E(C)               :       -9.790883207554 Eh       
E(XC)              :     -184.483205165016 Eh       

---------------
SCF CONVERGENCE
---------------

  Last Energy change         ...   -7.4425e-07  Tolerance :   1.0000e-06
  Last MAX-Density change    ...    3.1159e-04  Tolerance :   1.0000e-05
  Last RMS-Density change    ...    5.1039e-06  Tolerance :   1.0000e-06
  Last DIIS Error            ...    1.6276e-03  Tolerance :   1.0000e-06
  Last Orbital Gradient      ...    1.1189e-04  Tolerance :   5.0000e-05
  Last Orbital Rotation      ...    1.6927e-04  Tolerance :   5.0000e-05


----------------
ORBITAL ENERGIES
----------------

  NO   OCC          E(Eh)            E(eV) 
   0   2.0000    -101.528610     -2762.7339 
   1   2.0000     -24.735594      -673.0897 
   2   2.0000     -24.733662      -673.0372 
   3   2.0000     -24.733218      -673.0251 
   4   2.0000     -19.204578      -522.5831 
   5   2.0000     -19.178690      -521.8787 
   6   2.0000     -19.153615      -521.1964 
   7   2.0000     -19.099895      -519.7346 
   8   2.0000     -14.368624      -390.9901 
   9   2.0000     -14.355190      -390.6246 
  10   2.0000     -10.497617      -285.6547 
  11   2.0000     -10.316031      -280.7135 
  12   2.0000     -10.267224      -279.3854 
  13   2.0000     -10.266081      -279.3543 
  14   2.0000     -10.258093      -279.1369 
  15   2.0000     -10.251103      -278.9467 
  16   2.0000     -10.250198      -278.9221 
  17   2.0000     -10.232231      -278.4332 
  18   2.0000     -10.231991      -278.4266 
  19   2.0000     -10.223288      -278.1898 
  20   2.0000     -10.204512      -277.6789 
  21   2.0000     -10.202782      -277.6318 
  22   2.0000     -10.201602      -277.5997 
  23   2.0000     -10.195953      -277.4460 
  24   2.0000     -10.195459      -277.4326 
  25   2.0000     -10.195186      -277.4251 
  26   2.0000     -10.192735      -277.3584 
  27   2.0000     -10.192263      -277.3456 
  28   2.0000     -10.191624      -277.3282 
  29   2.0000     -10.189142      -277.2606 
  30   2.0000     -10.185976      -277.1745 
  31   2.0000      -9.460033      -257.4206 
  32   2.0000      -7.223239      -196.5543 
  33   2.0000      -7.213675      -196.2941 
  34   2.0000      -7.213212      -196.2815 
  35   2.0000      -1.298560       -35.3356 
  36   2.0000      -1.219444       -33.1828 
  37   2.0000      -1.218874       -33.1672 
  38   2.0000      -1.074702       -29.2441 
  39   2.0000      -1.065560       -28.9954 
  40   2.0000      -1.034226       -28.1427 
  41   2.0000      -1.017094       -27.6765 
  42   2.0000      -0.925689       -25.1893 
  43   2.0000      -0.915381       -24.9088 
  44   2.0000      -0.888980       -24.1904 
  45   2.0000      -0.847245       -23.0547 
  46   2.0000      -0.839835       -22.8531 
  47   2.0000      -0.820746       -22.3336 
  48   2.0000      -0.780894       -21.2492 
  49   2.0000      -0.774736       -21.0816 
  50   2.0000      -0.760068       -20.6825 
  51   2.0000      -0.750528       -20.4229 
  52   2.0000      -0.738099       -20.0847 
  53   2.0000      -0.734622       -19.9901 
  54   2.0000      -0.697128       -18.9698 
  55   2.0000      -0.667459       -18.1625 
  56   2.0000      -0.654945       -17.8220 
  57   2.0000      -0.652642       -17.7593 
  58   2.0000      -0.635822       -17.3016 
  59   2.0000      -0.622430       -16.9372 
  60   2.0000      -0.607695       -16.5362 
  61   2.0000      -0.604585       -16.4516 
  62   2.0000      -0.590686       -16.0734 
  63   2.0000      -0.587706       -15.9923 
  64   2.0000      -0.579122       -15.7587 
  65   2.0000      -0.565841       -15.3973 
  66   2.0000      -0.550969       -14.9926 
  67   2.0000      -0.544898       -14.8274 
  68   2.0000      -0.526625       -14.3302 
  69   2.0000      -0.520549       -14.1649 
  70   2.0000      -0.509937       -13.8761 
  71   2.0000      -0.499025       -13.5792 
  72   2.0000      -0.493692       -13.4340 
  73   2.0000      -0.483337       -13.1523 
  74   2.0000      -0.479267       -13.0415 
  75   2.0000      -0.464588       -12.6421 
  76   2.0000      -0.464364       -12.6360 
  77   2.0000      -0.462682       -12.5902 
  78   2.0000      -0.458954       -12.4888 
  79   2.0000      -0.455624       -12.3982 
  80   2.0000      -0.452238       -12.3060 
  81   2.0000      -0.446711       -12.1556 
  82   2.0000      -0.444085       -12.0842 
  83   2.0000      -0.439569       -11.9613 
  84   2.0000      -0.437386       -11.9019 
  85   2.0000      -0.430740       -11.7210 
  86   2.0000      -0.427421       -11.6307 
  87   2.0000      -0.420740       -11.4489 
  88   2.0000      -0.419969       -11.4279 
  89   2.0000      -0.411094       -11.1864 
  90   2.0000      -0.407083       -11.0773 
  91   2.0000      -0.405214       -11.0264 
  92   2.0000      -0.402130       -10.9425 
  93   2.0000      -0.395717       -10.7680 
  94   2.0000      -0.395081       -10.7507 
  95   2.0000      -0.389221       -10.5912 
  96   2.0000      -0.385872       -10.5001 
  97   2.0000      -0.381751       -10.3880 
  98   2.0000      -0.380030       -10.3411 
  99   2.0000      -0.374069       -10.1789 
 100   2.0000      -0.366832        -9.9820 
 101   2.0000      -0.360872        -9.8198 
 102   2.0000      -0.354503        -9.6465 
 103   2.0000      -0.351731        -9.5711 
 104   2.0000      -0.346325        -9.4240 
 105   2.0000      -0.342403        -9.3173 
 106   2.0000      -0.331131        -9.0105 
 107   2.0000      -0.319688        -8.6991 
 108   2.0000      -0.310528        -8.4499 
 109   2.0000      -0.309318        -8.4170 
 110   2.0000      -0.281808        -7.6684 
 111   2.0000      -0.279814        -7.6141 
 112   2.0000      -0.259642        -7.0652 
 113   2.0000      -0.248409        -6.7596 
 114   2.0000      -0.247740        -6.7413 
 115   2.0000      -0.230323        -6.2674 
 116   2.0000      -0.227399        -6.1878 
 117   2.0000      -0.211325        -5.7504 
 118   0.0000      -0.022368        -0.6087 
 119   0.0000      -0.006404        -0.1743 
 120   0.0000      -0.005476        -0.1490 
 121   0.0000      -0.004847        -0.1319 
 122   0.0000       0.026178         0.7123 
 123   0.0000       0.044740         1.2174 
 124   0.0000       0.058369         1.5883 
 125   0.0000       0.069736         1.8976 
 126   0.0000       0.071411         1.9432 
 127   0.0000       0.082440         2.2433 
 128   0.0000       0.090238         2.4555 
*Only the first 10 virtual orbitals were printed.

                    ********************************
                    * MULLIKEN POPULATION ANALYSIS *
                    ********************************

-----------------------
MULLIKEN ATOMIC CHARGES
-----------------------
   0 O :   -0.496769
   1 C :    0.687235
   2 N :   -0.728649
   3 C :    0.340837
   4 C :   -0.182134
   5 C :   -0.193050
   6 C :    0.350687
   7 O :   -0.546996
   8 C :    1.084552
   9 F :   -0.280336
  10 F :   -0.292175
  11 F :   -0.292943
  12 C :   -0.184202
  13 C :   -0.123634
  14 N :   -0.441888
  15 C :   -0.123033
  16 C :   -0.327220
  17 C :    0.355343
  18 C :   -0.316764
  19 C :   -0.140514
  20 C :   -0.332713
  21 C :    0.106033
  22 O :   -0.624327
  23 C :    0.033523
  24 C :   -0.177901
  25 C :   -0.124700
  26 C :   -0.129524
  27 C :   -0.146715
  28 Cl:   -0.006712
  29 C :    0.334088
  30 O :   -0.542727
  31 H :    0.330311
  32 H :    0.129783
  33 H :    0.150520
  34 H :    0.150050
  35 H :    0.160959
  36 H :    0.141603
  37 H :    0.182099
  38 H :    0.174034
  39 H :    0.149697
  40 H :    0.161583
  41 H :    0.153084
  42 H :    0.145108
  43 H :    0.157460
  44 H :    0.153310
  45 H :    0.134537
  46 H :    0.155666
  47 H :    0.392354
  48 H :    0.150074
  49 H :    0.136847
  50 H :    0.154248
Sum of atomic charges:   -0.0000000

--------------------------------
MULLIKEN REDUCED ORBITAL CHARGES
--------------------------------
  0 O s       :     3.887194  s :     3.887194
      pz      :     1.492219  p :     4.584307
      px      :     1.671623
      py      :     1.420465
      dz2     :     0.003123  d :     0.025268
      dxz     :     0.002558
      dyz     :     0.006365
      dx2y2   :     0.006254
      dxy     :     0.006967

  1 C s       :     2.911801  s :     2.911801
      pz      :     0.831257  p :     2.286576
      px      :     0.728314
      py      :     0.727005
      dz2     :     0.009222  d :     0.114388
      dxz     :     0.015586
      dyz     :     0.018043
      dx2y2   :     0.039297
      dxy     :     0.032240

  2 N s       :     3.635198  s :     3.635198
      pz      :     1.645102  p :     4.064242
      px      :     1.176807
      py      :     1.242333
      dz2     :     0.002465  d :     0.029209
      dxz     :     0.005227
      dyz     :     0.004470
      dx2y2   :     0.006407
      dxy     :     0.010640

  3 C s       :     3.060040  s :     3.060040
      pz      :     0.870033  p :     2.544314
      px      :     0.700507
      py      :     0.973774
      dz2     :     0.010786  d :     0.054810
      dxz     :     0.017070
      dyz     :     0.006075
      dx2y2   :     0.012346
      dxy     :     0.008532

  4 C s       :     3.186805  s :     3.186805
      pz      :     0.965881  p :     2.959897
      px      :     0.980067
      py      :     1.013949
      dz2     :     0.005726  d :     0.035433
      dxz     :     0.011094
      dyz     :     0.004992
      dx2y2   :     0.006093
      dxy     :     0.007527

  5 C s       :     3.179954  s :     3.179954
      pz      :     0.974087  p :     2.978269
      px      :     0.989064
      py      :     1.015117
      dz2     :     0.005810  d :     0.034828
      dxz     :     0.010452
      dyz     :     0.005515
      dx2y2   :     0.005180
      dxy     :     0.007871

  6 C s       :     3.069442  s :     3.069442
      pz      :     0.930899  p :     2.514832
      px      :     0.609914
      py      :     0.974020
      dz2     :     0.012587  d :     0.065039
      dxz     :     0.016192
      dyz     :     0.006161
      dx2y2   :     0.016039
      dxy     :     0.014061

  7 O s       :     3.884528  s :     3.884528
      pz      :     1.636785  p :     4.636426
      px      :     1.298500
      py      :     1.701140
      dz2     :     0.003955  d :     0.026042
      dxz     :     0.007118
      dyz     :     0.004606
      dx2y2   :     0.005263
      dxy     :     0.005102

  8 C s       :     2.715822  s :     2.715822
      pz      :     0.680732  p :     2.034765
      px      :     0.674049
      py      :     0.679984
      dz2     :     0.034911  d :     0.164860
      dxz     :     0.032554
      dyz     :     0.031085
      dx2y2   :     0.037465
      dxy     :     0.028845

  9 F s       :     3.978858  s :     3.978858
      pz      :     1.855976  p :     5.285325
      px      :     1.520133
      py      :     1.909216
      dz2     :     0.002139  d :     0.016153
      dxz     :     0.004836
      dyz     :     0.000661
      dx2y2   :     0.005369
      dxy     :     0.003148

 10 F s       :     3.981957  s :     3.981957
      pz      :     1.548134  p :     5.293987
      px      :     1.911426
      py      :     1.834428
      dz2     :     0.006183  d :     0.016231
      dxz     :     0.003067
      dyz     :     0.005260
      dx2y2   :     0.000959
      dxy     :     0.000763

 11 F s       :     3.981776  s :     3.981776
      pz      :     1.908268  p :     5.294953
      px      :     1.880763
      py      :     1.505922
      dz2     :     0.002299  d :     0.016214
      dxz     :     0.000426
      dyz     :     0.003378
      dx2y2   :     0.005766
      dxy     :     0.004344

 12 C s       :     3.200141  s :     3.200141
      pz      :     0.980878  p :     2.949143
      px      :     0.969787
      py      :     0.998478
      dz2     :     0.005686  d :     0.034918
      dxz     :     0.011271
      dyz     :     0.004668
      dx2y2   :     0.005786
      dxy     :     0.007507

 13 C s       :     3.185239  s :     3.185239
      pz      :     0.961807  p :     2.902999
      px      :     0.944622
      py      :     0.996570
      dz2     :     0.006486  d :     0.035395
      dxz     :     0.010766
      dyz     :     0.005393
      dx2y2   :     0.005417
      dxy     :     0.007333

 14 N s       :     3.553533  s :     3.553533
      pz      :     1.477945  p :     3.855621
      px      :     1.085350
      py      :     1.292325
      dz2     :     0.004766  d :     0.032734
      dxz     :     0.006504
      dyz     :     0.005198
      dx2y2   :     0.009149
      dxy     :     0.007116

 15 C s       :     3.220519  s :     3.220519
      pz      :     0.997110  p :     2.848342
      px      :     0.942957
      py      :     0.908275
      dz2     :     0.006065  d :     0.054173
      dxz     :     0.012262
      dyz     :     0.015260
      dx2y2   :     0.008667
      dxy     :     0.011919

 16 C s       :     3.282200  s :     3.282200
      pz      :     0.996043  p :     3.007617
      px      :     0.968414
      py      :     1.043160
      dz2     :     0.002790  d :     0.037403
      dxz     :     0.009120
      dyz     :     0.012045
      dx2y2   :     0.005138
      dxy     :     0.008311

 17 C s       :     3.110440  s :     3.110440
      pz      :     0.861905  p :     2.463696
      px      :     0.901475
      py      :     0.700316
      dz2     :     0.012307  d :     0.070521
      dxz     :     0.013453
      dyz     :     0.014625
      dx2y2   :     0.013644
      dxy     :     0.016492

 18 C s       :     3.273659  s :     3.273659
      pz      :     0.991778  p :     3.004829
      px      :     0.963141
      py      :     1.049909
      dz2     :     0.005401  d :     0.038276
      dxz     :     0.007773
      dyz     :     0.010675
      dx2y2   :     0.008092
      dxy     :     0.006335

 19 C s       :     3.204249  s :     3.204249
      pz      :     0.976699  p :     2.881682
      px      :     0.946711
      py      :     0.958272
      dz2     :     0.011407  d :     0.054582
      dxz     :     0.010521
      dyz     :     0.011169
      dx2y2   :     0.012109
      dxy     :     0.009376

 20 C s       :     3.285175  s :     3.285175
      pz      :     1.026346  p :     3.009438
      px      :     0.971138
      py      :     1.011954
      dz2     :     0.007355  d :     0.038100
      dxz     :     0.009263
      dyz     :     0.006556
      dx2y2   :     0.005952
      dxy     :     0.008975

 21 C s       :     3.137203  s :     3.137203
      pz      :     1.037534  p :     2.684087
      px      :     0.779529
      py      :     0.867024
      dz2     :     0.014472  d :     0.072677
      dxz     :     0.013333
      dyz     :     0.007661
      dx2y2   :     0.019024
      dxy     :     0.018187

 22 O s       :     3.884880  s :     3.884880
      pz      :     1.487965  p :     4.712361
      px      :     1.466196
      py      :     1.758200
      dz2     :     0.010305  d :     0.027086
      dxz     :     0.005701
      dyz     :     0.002420
      dx2y2   :     0.003373
      dxy     :     0.005287

 23 C s       :     3.146190  s :     3.146190
      pz      :     0.966990  p :     2.782366
      px      :     0.918255
      py      :     0.897121
      dz2     :     0.006143  d :     0.037922
      dxz     :     0.006297
      dyz     :     0.006665
      dx2y2   :     0.008886
      dxy     :     0.009930

 24 C s       :     3.213481  s :     3.213481
      pz      :     0.988733  p :     2.928139
      px      :     0.995291
      py      :     0.944116
      dz2     :     0.003277  d :     0.036280
      dxz     :     0.006907
      dyz     :     0.007513
      dx2y2   :     0.008732
      dxy     :     0.009852

 25 C s       :     3.184136  s :     3.184136
      pz      :     0.981322  p :     2.904457
      px      :     0.973593
      py      :     0.949542
      dz2     :     0.005425  d :     0.036107
      dxz     :     0.005125
      dyz     :     0.006643
      dx2y2   :     0.008217
      dxy     :     0.010698

 26 C s       :     3.194717  s :     3.194717
      pz      :     0.971932  p :     2.898932
      px      :     0.932148
      py      :     0.994852
      dz2     :     0.005789  d :     0.035876
      dxz     :     0.005945
      dyz     :     0.005820
      dx2y2   :     0.010585
      dxy     :     0.007736

 27 C s       :     3.185265  s :     3.185265
      pz      :     0.991482  p :     2.914400
      px      :     0.951899
      py      :     0.971018
      dz2     :     0.006816  d :     0.047050
      dxz     :     0.008431
      dyz     :     0.008508
      dx2y2   :     0.012185
      dxy     :     0.011109

 28 Cls       :     5.924076  s :     5.924076
      pz      :     3.668997  p :    11.053144
      px      :     3.627397
      py      :     3.756750
      dz2     :     0.004887  d :     0.029493
      dxz     :     0.008925
      dyz     :     0.005509
      dx2y2   :     0.002922
      dxy     :     0.007249

 29 C s       :     3.095493  s :     3.095493
      pz      :     0.945497  p :     2.504680
      px      :     0.750706
      py      :     0.808478
      dz2     :     0.008749  d :     0.065739
      dxz     :     0.011449
      dyz     :     0.010323
      dx2y2   :     0.018773
      dxy     :     0.016445

 30 O s       :     3.898626  s :     3.898626
      pz      :     1.702719  p :     4.616691
      px      :     1.492689
      py      :     1.421282
      dz2     :     0.003503  d :     0.027410
      dxz     :     0.005764
      dyz     :     0.006005
      dx2y2   :     0.007229
      dxy     :     0.004910

 31 H s       :     0.669689  s :     0.669689

 32 H s       :     0.870217  s :     0.870217

 33 H s       :     0.849480  s :     0.849480

 34 H s       :     0.849950  s :     0.849950

 35 H s       :     0.839041  s :     0.839041

 36 H s       :     0.858397  s :     0.858397

 37 H s       :     0.817901  s :     0.817901

 38 H s       :     0.825966  s :     0.825966

 39 H s       :     0.850303  s :     0.850303

 40 H s       :     0.838417  s :     0.838417

 41 H s       :     0.846916  s :     0.846916

 42 H s       :     0.854892  s :     0.854892

 43 H s       :     0.842540  s :     0.842540

 44 H s       :     0.846690  s :     0.846690

 45 H s       :     0.865463  s :     0.865463

 46 H s       :     0.844334  s :     0.844334

 47 H s       :     0.607646  s :     0.607646

 48 H s       :     0.849926  s :     0.849926

 49 H s       :     0.863153  s :     0.863153

 50 H s       :     0.845752  s :     0.845752



                     *******************************
                     * LOEWDIN POPULATION ANALYSIS *
                     *******************************

----------------------
LOEWDIN ATOMIC CHARGES
----------------------
   0 O :   -0.313056
   1 C :    0.166435
   2 N :   -0.229362
   3 C :    0.034012
   4 C :   -0.141645
   5 C :   -0.158840
   6 C :    0.076750
   7 O :   -0.161462
   8 C :    0.358228
   9 F :   -0.088591
  10 F :   -0.105663
  11 F :   -0.106307
  12 C :   -0.137990
  13 C :   -0.114405
  14 N :   -0.133369
  15 C :   -0.142011
  16 C :   -0.232811
  17 C :    0.080315
  18 C :   -0.237178
  19 C :   -0.157851
  20 C :   -0.241294
  21 C :   -0.015397
  22 O :   -0.381222
  23 C :   -0.075759
  24 C :   -0.120922
  25 C :   -0.140418
  26 C :   -0.126553
  27 C :   -0.111521
  28 Cl:    0.040747
  29 C :    0.075253
  30 O :   -0.167906
  31 H :    0.254418
  32 H :    0.133435
  33 H :    0.141705
  34 H :    0.146389
  35 H :    0.152426
  36 H :    0.113831
  37 H :    0.150297
  38 H :    0.142901
  39 H :    0.131864
  40 H :    0.140083
  41 H :    0.130810
  42 H :    0.122329
  43 H :    0.120614
  44 H :    0.134473
  45 H :    0.122727
  46 H :    0.130507
  47 H :    0.314037
  48 H :    0.143297
  49 H :    0.136747
  50 H :    0.146903

-------------------------------
LOEWDIN REDUCED ORBITAL CHARGES
-------------------------------
  0 O s       :     3.590093  s :     3.590093
      pz      :     1.494433  p :     4.673118
      px      :     1.688695
      py      :     1.489989
      dz2     :     0.006491  d :     0.049845
      dxz     :     0.004315
      dyz     :     0.010856
      dx2y2   :     0.011756
      dxy     :     0.016427

  1 C s       :     2.840501  s :     2.840501
      pz      :     0.858994  p :     2.732098
      px      :     0.926085
      py      :     0.947020
      dz2     :     0.020220  d :     0.260965
      dxz     :     0.032040
      dyz     :     0.038548
      dx2y2   :     0.094138
      dxy     :     0.076020

  2 N s       :     3.145209  s :     3.145209
      pz      :     1.586917  p :     4.015510
      px      :     1.173592
      py      :     1.255001
      dz2     :     0.004779  d :     0.068643
      dxz     :     0.011116
      dyz     :     0.008417
      dx2y2   :     0.017717
      dxy     :     0.026613

  3 C s       :     2.853652  s :     2.853652
      pz      :     1.047828  p :     2.979892
      px      :     0.915176
      py      :     1.016887
      dz2     :     0.026240  d :     0.132444
      dxz     :     0.041669
      dyz     :     0.014474
      dx2y2   :     0.030210
      dxy     :     0.019852

  4 C s       :     2.914439  s :     2.914439
      pz      :     1.042113  p :     3.143809
      px      :     1.062644
      py      :     1.039052
      dz2     :     0.013302  d :     0.083397
      dxz     :     0.026467
      dyz     :     0.009683
      dx2y2   :     0.015965
      dxy     :     0.017980

  5 C s       :     2.917230  s :     2.917230
      pz      :     1.050989  p :     3.159486
      px      :     1.069348
      py      :     1.039149
      dz2     :     0.013935  d :     0.082124
      dxz     :     0.025878
      dyz     :     0.010622
      dx2y2   :     0.013916
      dxy     :     0.017772

  6 C s       :     2.856853  s :     2.856853
      pz      :     1.066402  p :     2.911509
      px      :     0.821022
      py      :     1.024084
      dz2     :     0.029382  d :     0.154887
      dxz     :     0.041579
      dyz     :     0.014215
      dx2y2   :     0.037842
      dxy     :     0.031869

  7 O s       :     3.470539  s :     3.470539
      pz      :     1.634540  p :     4.633385
      px      :     1.311032
      py      :     1.687813
      dz2     :     0.006947  d :     0.057538
      dxz     :     0.017475
      dyz     :     0.007948
      dx2y2   :     0.011878
      dxy     :     0.013290

  8 C s       :     2.819286  s :     2.819286
      pz      :     0.816061  p :     2.443464
      px      :     0.813809
      py      :     0.813593
      dz2     :     0.081491  d :     0.379022
      dxz     :     0.073492
      dyz     :     0.071492
      dx2y2   :     0.089401
      dxy     :     0.063147

  9 F s       :     3.760218  s :     3.760218
      pz      :     1.853717  p :     5.297754
      px      :     1.541609
      py      :     1.902429
      dz2     :     0.003833  d :     0.030620
      dxz     :     0.009490
      dyz     :     0.001042
      dx2y2   :     0.011218
      dxy     :     0.005036

 10 F s       :     3.765014  s :     3.765014
      pz      :     1.572508  p :     5.309347
      px      :     1.902145
      py      :     1.834694
      dz2     :     0.013299  d :     0.031302
      dxz     :     0.004986
      dyz     :     0.010299
      dx2y2   :     0.001592
      dxy     :     0.001126

 11 F s       :     3.764907  s :     3.764907
      pz      :     1.903205  p :     5.310107
      px      :     1.874919
      py      :     1.531983
      dz2     :     0.004903  d :     0.031294
      dxz     :     0.000666
      dyz     :     0.005493
      dx2y2   :     0.012373
      dxy     :     0.007858

 12 C s       :     2.915708  s :     2.915708
      pz      :     1.051222  p :     3.140263
      px      :     1.064663
      py      :     1.024378
      dz2     :     0.013186  d :     0.082019
      dxz     :     0.026748
      dyz     :     0.009506
      dx2y2   :     0.014859
      dxy     :     0.017720

 13 C s       :     2.916416  s :     2.916416
      pz      :     1.042532  p :     3.115602
      px      :     1.060105
      py      :     1.012965
      dz2     :     0.015346  d :     0.082387
      dxz     :     0.026332
      dyz     :     0.010344
      dx2y2   :     0.014114
      dxy     :     0.016251

 14 N s       :     3.110393  s :     3.110393
      pz      :     1.471853  p :     3.939965
      px      :     1.130313
      py      :     1.337799
      dz2     :     0.010988  d :     0.083010
      dxz     :     0.016213
      dyz     :     0.011304
      dx2y2   :     0.024836
      dxy     :     0.019669

 15 C s       :     2.926892  s :     2.926892
      pz      :     1.065273  p :     3.101312
      px      :     1.027225
      py      :     1.008814
      dz2     :     0.012121  d :     0.113807
      dxz     :     0.025712
      dyz     :     0.030809
      dx2y2   :     0.018673
      dxy     :     0.026491

 16 C s       :     2.954003  s :     2.954003
      pz      :     1.060185  p :     3.200542
      px      :     1.042200
      py      :     1.098156
      dz2     :     0.005738  d :     0.078267
      dxz     :     0.020471
      dyz     :     0.023919
      dx2y2   :     0.010405
      dxy     :     0.017734

 17 C s       :     2.872068  s :     2.872068
      pz      :     1.010233  p :     2.886394
      px      :     1.008884
      py      :     0.867277
      dz2     :     0.028201  d :     0.161222
      dxz     :     0.032297
      dyz     :     0.033167
      dx2y2   :     0.029424
      dxy     :     0.038133

 18 C s       :     2.950385  s :     2.950385
      pz      :     1.058062  p :     3.207149
      px      :     1.043126
      py      :     1.105961
      dz2     :     0.012036  d :     0.079644
      dxz     :     0.017322
      dyz     :     0.020169
      dx2y2   :     0.017215
      dxy     :     0.012901

 19 C s       :     2.926623  s :     2.926623
      pz      :     1.053134  p :     3.117399
      px      :     1.027944
      py      :     1.036320
      dz2     :     0.023556  d :     0.113829
      dxz     :     0.021525
      dyz     :     0.022066
      dx2y2   :     0.026286
      dxy     :     0.020396

 20 C s       :     2.958809  s :     2.958809
      pz      :     1.087410  p :     3.202391
      px      :     1.044109
      py      :     1.070873
      dz2     :     0.014731  d :     0.080095
      dxz     :     0.019498
      dyz     :     0.012995
      dx2y2   :     0.012282
      dxy     :     0.020589

 21 C s       :     2.879945  s :     2.879945
      pz      :     1.087632  p :     2.973446
      px      :     0.908724
      py      :     0.977089
      dz2     :     0.029914  d :     0.162005
      dxz     :     0.029699
      dyz     :     0.016954
      dx2y2   :     0.043641
      dxy     :     0.041799

 22 O s       :     3.560770  s :     3.560770
      pz      :     1.510220  p :     4.770118
      px      :     1.497676
      py      :     1.762221
      dz2     :     0.016309  d :     0.050335
      dxz     :     0.011742
      dyz     :     0.003592
      dx2y2   :     0.007478
      dxy     :     0.011213

 23 C s       :     2.884753  s :     2.884753
      pz      :     1.022726  p :     3.094495
      px      :     1.044398
      py      :     1.027372
      dz2     :     0.013362  d :     0.096511
      dxz     :     0.016705
      dyz     :     0.015858
      dx2y2   :     0.024399
      dxy     :     0.026188

 24 C s       :     2.916884  s :     2.916884
      pz      :     1.015626  p :     3.118755
      px      :     1.047875
      py      :     1.055255
      dz2     :     0.007396  d :     0.085283
      dxz     :     0.013603
      dyz     :     0.016756
      dx2y2   :     0.022475
      dxy     :     0.025053

 25 C s       :     2.914021  s :     2.914021
      pz      :     1.024760  p :     3.140917
      px      :     1.053976
      py      :     1.062181
      dz2     :     0.011433  d :     0.085480
      dxz     :     0.011184
      dyz     :     0.017111
      dx2y2   :     0.020858
      dxy     :     0.024894

 26 C s       :     2.918708  s :     2.918708
      pz      :     1.017956  p :     3.122594
      px      :     1.035827
      py      :     1.068811
      dz2     :     0.012194  d :     0.085250
      dxz     :     0.016064
      dyz     :     0.012395
      dx2y2   :     0.025087
      dxy     :     0.019510

 27 C s       :     2.912873  s :     2.912873
      pz      :     1.022830  p :     3.087915
      px      :     1.024528
      py      :     1.040558
      dz2     :     0.013692  d :     0.110733
      dxz     :     0.018589
      dyz     :     0.020192
      dx2y2   :     0.030338
      dxy     :     0.027923

 28 Cls       :     5.801375  s :     5.801375
      pz      :     3.692150  p :    11.124589
      px      :     3.658016
      py      :     3.774423
      dz2     :     0.005300  d :     0.033289
      dxz     :     0.010189
      dyz     :     0.006294
      dx2y2   :     0.003051
      dxy     :     0.008455

 29 C s       :     2.858341  s :     2.858341
      pz      :     1.000672  p :     2.909065
      px      :     0.905758
      py      :     1.002636
      dz2     :     0.019064  d :     0.157341
      dxz     :     0.027210
      dyz     :     0.024106
      dx2y2   :     0.046425
      dxy     :     0.040535

 30 O s       :     3.463592  s :     3.463592
      pz      :     1.705006  p :     4.642362
      px      :     1.490734
      py      :     1.446622
      dz2     :     0.007164  d :     0.061951
      dxz     :     0.011078
      dyz     :     0.012427
      dx2y2   :     0.017101
      dxy     :     0.014182

 31 H s       :     0.745582  s :     0.745582

 32 H s       :     0.866565  s :     0.866565

 33 H s       :     0.858295  s :     0.858295

 34 H s       :     0.853611  s :     0.853611

 35 H s       :     0.847574  s :     0.847574

 36 H s       :     0.886169  s :     0.886169

 37 H s       :     0.849703  s :     0.849703

 38 H s       :     0.857099  s :     0.857099

 39 H s       :     0.868136  s :     0.868136

 40 H s       :     0.859917  s :     0.859917

 41 H s       :     0.869190  s :     0.869190

 42 H s       :     0.877671  s :     0.877671

 43 H s       :     0.879386  s :     0.879386

 44 H s       :     0.865527  s :     0.865527

 45 H s       :     0.877273  s :     0.877273

 46 H s       :     0.869493  s :     0.869493

 47 H s       :     0.685963  s :     0.685963

 48 H s       :     0.856703  s :     0.856703

 49 H s       :     0.863253  s :     0.863253

 50 H s       :     0.853097  s :     0.853097



                      *****************************
                      * MAYER POPULATION ANALYSIS *
                      *****************************

  NA   - Mulliken gross atomic population
  ZA   - Total nuclear charge
  QA   - Mulliken gross atomic charge
  VA   - Mayer's total valence
  BVA  - Mayer's bonded valence
  FA   - Mayer's free valence

  ATOM       NA         ZA         QA         VA         BVA        FA
  0 O      8.4968     8.0000    -0.4968     2.0334     2.0334    -0.0000
  1 C      5.3128     6.0000     0.6872     3.9295     3.9295     0.0000
  2 N      7.7286     7.0000    -0.7286     2.8549     2.8549    -0.0000
  3 C      5.6592     6.0000     0.3408     3.8661     3.8661     0.0000
  4 C      6.1821     6.0000    -0.1821     3.9281     3.9281    -0.0000
  5 C      6.1931     6.0000    -0.1931     3.9244     3.9244     0.0000
  6 C      5.6493     6.0000     0.3507     3.7986     3.7986    -0.0000
  7 O      8.5470     8.0000    -0.5470     1.9579     1.9579    -0.0000
  8 C      4.9154     6.0000     1.0846     3.9968     3.9968    -0.0000
  9 F      9.2803     9.0000    -0.2803     1.0864     1.0864     0.0000
 10 F      9.2922     9.0000    -0.2922     1.0641     1.0641     0.0000
 11 F      9.2929     9.0000    -0.2929     1.0632     1.0632     0.0000
 12 C      6.1842     6.0000    -0.1842     3.9199     3.9199    -0.0000
 13 C      6.1236     6.0000    -0.1236     3.9302     3.9302    -0.0000
 14 N      7.4419     7.0000    -0.4419     3.0110     3.0110     0.0000
 15 C      6.1230     6.0000    -0.1230     3.8335     3.8335     0.0000
 16 C      6.3272     6.0000    -0.3272     3.8209     3.8209    -0.0000
 17 C      5.6447     6.0000     0.3553     3.7756     3.7756     0.0000
 18 C      6.3168     6.0000    -0.3168     3.8483     3.8483    -0.0000
 19 C      6.1405     6.0000    -0.1405     3.8409     3.8409    -0.0000
 20 C      6.3327     6.0000    -0.3327     3.8414     3.8414    -0.0000
 21 C      5.8940     6.0000     0.1060     3.8181     3.8181    -0.0000
 22 O      8.6243     8.0000    -0.6243     1.8107     1.8107    -0.0000
 23 C      5.9665     6.0000     0.0335     3.8811     3.8811     0.0000
 24 C      6.1779     6.0000    -0.1779     3.9196     3.9196     0.0000
 25 C      6.1247     6.0000    -0.1247     3.9220     3.9220     0.0000
 26 C      6.1295     6.0000    -0.1295     3.9342     3.9342     0.0000
 27 C      6.1467     6.0000    -0.1467     3.9028     3.9028    -0.0000
 28 Cl    17.0067    17.0000    -0.0067     1.1129     1.1129    -0.0000
 29 C      5.6659     6.0000     0.3341     3.8029     3.8029    -0.0000
 30 O      8.5427     8.0000    -0.5427     1.9422     1.9422     0.0000
 31 H      0.6697     1.0000     0.3303     0.8661     0.8661    -0.0000
 32 H      0.8702     1.0000     0.1298     0.9392     0.9392    -0.0000
 33 H      0.8495     1.0000     0.1505     0.9494     0.9494     0.0000
 34 H      0.8499     1.0000     0.1501     0.9363     0.9363    -0.0000
 35 H      0.8390     1.0000     0.1610     0.9459     0.9459     0.0000
 36 H      0.8584     1.0000     0.1416     0.9258     0.9258    -0.0000
 37 H      0.8179     1.0000     0.1821     0.9385     0.9385    -0.0000
 38 H      0.8260     1.0000     0.1740     0.9327     0.9327    -0.0000
 39 H      0.8503     1.0000     0.1497     0.9364     0.9364    -0.0000
 40 H      0.8384     1.0000     0.1616     0.9374     0.9374    -0.0000
 41 H      0.8469     1.0000     0.1531     0.9317     0.9317    -0.0000
 42 H      0.8549     1.0000     0.1451     0.9290     0.9290    -0.0000
 43 H      0.8425     1.0000     0.1575     0.9231     0.9231    -0.0000
 44 H      0.8467     1.0000     0.1533     0.9378     0.9378    -0.0000
 45 H      0.8655     1.0000     0.1345     0.9448     0.9448     0.0000
 46 H      0.8443     1.0000     0.1557     0.9277     0.9277     0.0000
 47 H      0.6076     1.0000     0.3924     0.8182     0.8182    -0.0000
 48 H      0.8499     1.0000     0.1501     0.9440     0.9440     0.0000
 49 H      0.8632     1.0000     0.1368     0.9370     0.9370    -0.0000
 50 H      0.8458     1.0000     0.1542     0.9376     0.9376     0.0000

  Mayer bond orders larger than 0.100000
B(  0-O ,  1-C ) :   1.7810 B(  1-C ,  2-N ) :   1.0039 B(  1-C , 14-N ) :   1.0533 
B(  2-N ,  3-C ) :   0.8653 B(  2-N , 31-H ) :   0.8175 B(  3-C ,  4-C ) :   1.4109 
B(  3-C , 13-C ) :   1.4208 B(  4-C ,  5-C ) :   1.4375 B(  4-C , 32-H ) :   0.9236 
B(  5-C ,  6-C ) :   1.3975 B(  5-C , 33-H ) :   0.9094 B(  6-C ,  7-O ) :   0.8166 
B(  6-C , 12-C ) :   1.4081 B(  7-O ,  8-C ) :   0.9965 B(  8-C ,  9-F ) :   1.0068 
B(  8-C , 10-F ) :   0.9675 B(  8-C , 11-F ) :   0.9668 B( 12-C , 13-C ) :   1.4421 
B( 12-C , 34-H ) :   0.9185 B( 13-C , 35-H ) :   0.9094 B( 14-N , 15-C ) :   0.9439 
B( 14-N , 19-C ) :   0.9429 B( 15-C , 16-C ) :   0.9846 B( 15-C , 36-H ) :   0.9282 
B( 15-C , 37-H ) :   0.9213 B( 16-C , 17-C ) :   0.9697 B( 16-C , 38-H ) :   0.9221 
B( 16-C , 39-H ) :   0.9303 B( 17-C , 18-C ) :   0.9726 B( 17-C , 20-C ) :   0.9630 
B( 17-C , 30-O ) :   0.8255 B( 18-C , 19-C ) :   1.0107 B( 18-C , 40-H ) :   0.9236 
B( 18-C , 41-H ) :   0.9233 B( 19-C , 42-H ) :   0.9253 B( 19-C , 43-H ) :   0.9155 
B( 20-C , 21-C ) :   0.9758 B( 20-C , 44-H ) :   0.9249 B( 20-C , 45-H ) :   0.9269 
B( 21-C , 22-O ) :   0.9359 B( 21-C , 23-C ) :   0.9632 B( 21-C , 46-H ) :   0.9120 
B( 22-O , 47-H ) :   0.7807 B( 23-C , 24-C ) :   1.4156 B( 23-C , 29-C ) :   1.3429 
B( 24-C , 25-C ) :   1.4289 B( 24-C , 48-H ) :   0.9180 B( 25-C , 26-C ) :   1.4426 
B( 25-C , 49-H ) :   0.9286 B( 26-C , 27-C ) :   1.4266 B( 26-C , 50-H ) :   0.9226 
B( 27-C , 28-Cl) :   1.0286 B( 27-C , 29-C ) :   1.3238 B( 29-C , 30-O ) :   0.9437 


-------
TIMINGS
-------

Total SCF time: 0 days 0 hours 7 min 14 sec 

Total time                  ....     434.761 sec
Sum of individual times     ....     434.377 sec  ( 99.9%)

SCF preparation             ....       0.324 sec  (  0.1%)
Fock matrix formation       ....     432.236 sec  ( 99.4%)
  Startup                   ....       0.077 sec  (  0.0% of F)
  Split-RI-J                ....      55.665 sec  ( 12.9% of F)
  Chain of spheres X        ....     337.788 sec  ( 78.1% of F)
  XC integration            ....      38.135 sec  (  8.8% of F)
    XC Preparation          ....       0.000 sec  (  0.0% of XC)
    Basis function eval.    ....      15.147 sec  ( 39.7% of XC)
    Density eval.           ....       8.907 sec  ( 23.4% of XC)
    XC-Functional eval.     ....       1.844 sec  (  4.8% of XC)
    XC-Potential eval.      ....      10.728 sec  ( 28.1% of XC)
Diagonalization             ....       0.000 sec  (  0.0%)
Density matrix formation    ....       0.280 sec  (  0.1%)
Total Energy calculation    ....       0.059 sec  (  0.0%)
Population analysis         ....       0.068 sec  (  0.0%)
Orbital Transformation      ....       0.174 sec  (  0.0%)
Orbital Orthonormalization  ....       0.000 sec  (  0.0%)
DIIS solution               ....       0.824 sec  (  0.2%)
SOSCF solution              ....       0.412 sec  (  0.1%)
Finished LeanSCF after 434.8 sec

Maximum memory used throughout the entire LEANSCF-calculation: 76.0 MB

-------------------------   --------------------
FINAL SINGLE POINT ENERGY     -1981.469144305864
-------------------------   --------------------


------------------------------------------------------------------------------
                              ORCA PROPERTY CALCULATIONS
------------------------------------------------------------------------------

GBWName                                 ... /home/nmrbox/aojoawo/Documents/ERDOS/inputs/CHEMBL2443076.gbw
Number of atoms                         ...     51
Number of basis functions               ...    478
Max core memory                         ...   1024 MB

Electric properties:
Dipole moment                           ... YES
Quadrupole moment                       ...  NO
Static polarizability (Dipole/Dipole)   ...  NO
Static polarizability (Dipole/Quad.)    ...  NO
Static polarizability (Quad./Quad.)     ...  NO
Static polarizability (Velocity)        ...  NO

Atomic electric properties:
Dipole moment                           ...  NO
Quadrupole moment                       ...  NO
Static polarizability                   ...  NO

Choice of electric origin               ... Center of mass
Position of electric origin             ...     1.622642    -0.718303     0.032644

General magnetic properties:
Magnetizability                         ...  NO

EPR properties:
g-Tensor (aka g-matrix)                 ...  NO
Zero-Field splitting spin-orbit         ...  NO
Zero-field splitting spin-spin          ...  NO
Hyperfine couplings                     ...  NO (   0 nuclei)
Quadrupole couplings                    ...  NO (   0 nuclei)
Contact density                         ...  NO (   0 nuclei)

NMR properties:
Chemical shifts                         ...  NO (   0 nuclei)
Spin-rotation constants                 ...  NO (   0 nuclei)
Spin-spin couplings                     ...  NO (   0 nuclei,    0 pairs)

Choice of magnetic origin               ... GIAO
Position of magnetic origin             ...     0.000000     0.000000     0.000000

Properties with geometric perturbations:
SCF Hessian                             ...  NO
IR spectrum                             ...  NO
VCD spectrum                            ...  NO
X-ray spectroscopy properties:
SCF XES/XAS/RIXS spectra                ...  NO


-------------
DIPOLE MOMENT
-------------

Method             : SCF
Type of density    : Electron Density
Multiplicity       :   1
Irrep              :   0
Energy             : -1981.4691443058638924 Eh
Relativity type    : 
Basis              : AO
                                X                 Y                 Z
Electronic contribution:     54.365028960     -21.603625572      -2.542692787
Nuclear contribution   :    -56.493874763      21.166529066       3.025377291
                        -----------------------------------------
Total Dipole Moment    :     -2.128845802      -0.437096506       0.482684504
                        -----------------------------------------
Magnitude (a.u.)       :      2.226212509
Magnitude (Debye)      :      5.658582504



--------------------
Rotational spectrum 
--------------------
 
Rotational constants in cm-1:             0.010913             0.001229             0.001160 
Rotational constants in MHz :           327.155699            36.838885            34.788695 

Dipole components along the rotational axes: 
x,y,z [a.u.] :    -2.087888     0.396385     0.663043 
x,y,z [Debye]:    -5.306989     1.007530     1.685321 

 

Dipole moment calculation done in   0.0 sec 

Maximum memory used throughout the entire PROP-calculation: 36.6 MB

--------------------------------
SUGGESTED CITATIONS FOR THIS RUN
--------------------------------

Below you find a list of papers that are relevant to this ORCA run
We neither can nor want to force you to cite these papers, but we appreciate if you do
You receive ORCA, which is the product of decades of hard work by many enthusiastic individuals, for free
The only thing we kindly ask in return is that you cite our papers,
We deeply appreciate it, if you show your appreciation for ORCA by not just citing the generic ORCA reference.

Please note that relegating all ORCA citations to the supporting information does *not* help us.
SI sections are not indexed - citations you put there will not count into any citation statistics
But we need these citations in order to attract the funding resources that allow us to do what we are doing

Therefore, if you are a happy ORCA user, please consider citing a few of the papers listed below in the main body of your paper

In addition to the list printed below, the program has created the file /home/nmrbox/aojoawo/Documents/ERDOS/inputs/CHEMBL2443076.bibtex that contains the list in bibtex format
You can import this file easily into all common literature databanks and citation aid programs


List of essential papers. We consider these as the minimum necessary citations

  1. Neese,F.
     Software update: the ORCA program system, version 5.0
     WIRES Comput. Molec. Sci., 2022 12(1)e1606
     doi.org/10.1002/wcms.1606

List of papers to cite with high priority. The work reported in these papers was absolutely
necessary for this run to complete.
Our perspective: the developers of density functionals and basis sets usually get cited in chemistry papers
Good! But without the algorithms to do something with them, the functionals or basis sets would not do anything.
Hence, in our opinion, the algorithm design and method developments papers are equally worthy of getting cited

  1. Neese,F.
     An improvement of the resolution of the identity approximation for the formation of the Coulomb matrix
     J. Comp. Chem., 2003 24(14)1740-1747
     doi.org/10.1002/jcc.10318
  2. Neese,F.; Wennmohs,F.; Hansen,A.; Becker,U.
     Efficient, approximate and parallel Hartree-Fock and hybrid DFT calculations. A 'chain-of-spheres' algorithm for the Hartree-Fock exchange
     Chem. Phys., 2009 356(1-3)98-109
     doi.org/10.1016/j.chemphys.2008.10.036
  3. Helmich-Paris,B.; de Souza,B.; Neese,F.; Izsák,R.
     An improved chain of spheres for exchange algorithm
     J. Chem. Phys., 2021 155 104109
     doi.org/doi: 10.1063/5.0058766.
  4. Neese,F.
     The SHARK Integral Generation and Digestion System
     J. Comp. Chem., 2022  1-16
     doi.org/10.1002/jcc.26942

List of suggested additional citations. These are papers that are important in the 'surrounding' of 
of this run, or papers that preceded the highly important papers. If you like your results we are grateful for a citation.

  1. Izsak,R.; Neese,F.
     An overlap fitted chain of spheres exchange method
     J. Chem. Phys., 2011 135 144105
     doi.org/10.1063/1.3646921
  2. Izsak,R.; Hansen,A.; Neese,F.
     The resolution of identity and chain of spheres approximations for the LPNO-CCSD singles Fock term
     Molec. Phys., 2012 110 2413-2417
     doi.org/10.1080/00268976.2012.687466
  3. Neese,F.
     The ORCA program system
     WIRES Comput. Molec. Sci., 2012 2(1)73-78
     doi.org/10.1002/wcms.81
  4. Izsak,R.; Neese,F.; Klopper,W.
     Robust fitting techniques in the chain of spheres approximation to the Fock exchange: The role of the complementary space
     J. Chem. Phys., 2013 139 
     doi.org/10.1063/1.4819264
  5. Neese,F.
     Software update: the ORCA program system, version 4.0
     WIRES Comput. Molec. Sci., 2018 8(1)1-6
     doi.org/10.1002/wcms.1327
  6. Neese,F.; Wennmohs,F.; Becker,U.; Riplinger,C.
     The ORCA quantum chemistry program package
     J. Chem. Phys., 2020 152 Art. No. L224108
     doi.org/10.1063/5.0004608

List of optional additional citations

  1. Neese,F.
     Approximate second-order SCF convergence for spin unrestricted wavefunctions
     Chem. Phys. Lett., 2000 325(1-3)93-98
     doi.org/10.1016/s0009-2614(00)00662-x

Timings for individual modules:

Sum of individual times          ...      455.062 sec (=   7.584 min)
Startup calculation              ...       13.176 sec (=   0.220 min)   2.9 %
SCF iterations                   ...      441.694 sec (=   7.362 min)  97.1 %
Property calculations            ...        0.193 sec (=   0.003 min)   0.0 %
                             ****ORCA TERMINATED NORMALLY****
TOTAL RUN TIME: 0 days 0 hours 7 minutes 35 seconds 686 msec
