
                                 *****************
                                 * O   R   C   A *
                                 *****************

                                            #,                                       
                                            ###                                      
                                            ####                                     
                                            #####                                    
                                            ######                                   
                                           ########,                                 
                                     ,,################,,,,,                         
                               ,,#################################,,                 
                          ,,##########################################,,             
                       ,#########################################, ''#####,          
                    ,#############################################,,   '####,        
                  ,##################################################,,,,####,       
                ,###########''''           ''''###############################       
              ,#####''   ,,,,##########,,,,          '''####'''          '####       
            ,##' ,,,,###########################,,,                        '##       
           ' ,,###''''                  '''############,,,                           
         ,,##''                                '''############,,,,        ,,,,,,###''
      ,#''                                            '''#######################'''  
     '                                                          ''''####''''         
             ,#######,   #######,   ,#######,      ##                                
            ,#'     '#,  ##    ##  ,#'     '#,    #''#        ,####,   ,####,        
            ##       ##  ##   ,#'  ##            #'  '#       #'       #'  '#        
            ##       ##  #######   ##           ,######,      #####,   #    #        
            '#,     ,#'  ##    ##  '#,     ,#' ,#      #,     #,   #   #,  ,#        
             '#######'   ##     ##  '#######'  #'      '#     '####' # '####'        



                #########################################################
                #                        -***-                          #
                #          Department of theory and spectroscopy        #
                #                                                       #
                #                      Frank Neese                      #
                #                                                       #
                #     Directorship, Architecture, Infrastructure        #
                #                    SHARK, DRIVERS                     #
                #        Core code/Algorithms in most modules           #
                #                                                       #
                #        Max Planck Institute fuer Kohlenforschung      #
                #                Kaiser Wilhelm Platz 1                 #
                #                 D-45470 Muelheim/Ruhr                 #
                #                      Germany                          #
                #                                                       #
                #                  All rights reserved                  #
                #                        -***-                          #
                #########################################################


                         Program Version 6.0.0  -   RELEASE  -


 With contributions from (in alphabetic order):
   Daniel Aravena         : Magnetic Suceptibility
   Michael Atanasov       : Ab Initio Ligand Field Theory (pilot matlab implementation)
   Alexander A. Auer      : GIAO ZORA, VPT2 properties, NMR spectrum
   Ute Becker             : All parallelization in ORCA, NUMFREQ, NUMCALC
   Giovanni Bistoni       : ED, misc. LED, open-shell LED, HFLD
   Martin Brehm           : Molecular dynamics
   Dmytro Bykov           : pre 5.0 version of the SCF Hessian
   Marcos Casanova-Páez   : Triplet and SCS-CIS(D). UHF-(DLPNO)-IP/EA/STEOM-CCSD. UHF-CVS-IP/STEOM-CCSD
   Vijay G. Chilkuri      : MRCI spin determinant printing, contributions to CSF-ICE
   Pauline Colinet        : FMM embedding
   Dipayan Datta          : RHF DLPNO-CCSD density
   Achintya Kumar Dutta   : EOM-CC, STEOM-CC
   Nicolas Foglia         : Exact transition moments, OPA infrastructure, MCD improvements
   Dmitry Ganyushin       : Spin-Orbit,Spin-Spin,Magnetic field MRCI
   Miquel Garcia          : C-PCM and meta-GGA Hessian, CCSD/C-PCM, Gaussian charge scheme
   Tiago L. C. Gouveia    : GS-ROHF, GS-ROCIS
   Yang Guo               : DLPNO-NEVPT2, F12-NEVPT2, CIM, IAO-localization
   Andreas Hansen         : Spin unrestricted coupled pair/coupled cluster methods
   Ingolf Harden          : AUTO-CI MPn and infrastructure 
   Benjamin Helmich-Paris : MC-RPA, TRAH-(SCF,CASSCF), AVAS, COSX integrals, SCF dyn. polar.
   Lee Huntington         : MR-EOM, pCC
   Robert Izsak           : Overlap fitted RIJCOSX, COSX-SCS-MP3, EOM
   Riya Kayal             : Wick's Theorem for AUTO-CI, AUTO-CI UHF-CCSDT
   Emily Kempfer          : AUTO-CI, RHF CISDT and CCSDT
   Christian Kollmar      : KDIIS, OOCD, Brueckner-CCSD(T), CCSD density, CASPT2, CASPT2-K, improved NEVPT2
   Axel Koslowski         : Symmetry handling
   Simone Kossmann        : Meta GGA functionals, TD-DFT gradient, OOMP2, (MP2 Hessian; deprecated post 5.0)
   Lucas Lang             : DCDCAS
   Marvin Lechner         : AUTO-CI (C++ implementation), FIC-MRCC
   Spencer Leger          : CASSCF response
   Dagmar Lenk            : GEPOL surface, SMD, ORCA-2-JSON
   Dimitrios Liakos       : Extrapolation schemes; Compound Job, initial MDCI parallelization
   Dimitrios Manganas     : Further ROCIS development; embedding schemes. LFT, Crystal Embedding
   Dimitrios Pantazis     : SARC Basis sets
   Anastasios Papadopoulos: AUTO-CI, single reference methods and gradients
   Taras Petrenko         : pre 6.0 DFT Hessian and TD-DFT gradient, (ASA, deprecated), ECA, 1-Electron XAS/XES, NRVS
   Peter Pinski           : DLPNO-MP2, DLPNO-MP2 Gradient
   Christoph Reimann      : Effective Core Potentials
   Marius Retegan         : Local ZFS, SOC
   Christoph Riplinger    : Optimizer, TS searches, QM/MM, DLPNO-CCSD(T), (RO)-DLPNO pert. Triples
   Michael Roemelt        : Original ROCIS implementation
   Masaaki Saitow         : Open-shell DLPNO-CCSD energy and density
   Barbara Sandhoefer     : DKH picture change effects
   Kantharuban Sivalingam : CASSCF convergence/infrastructure, NEVPT2 and variants, FIC-MRCI
   Bernardo de Souza      : ESD, SOC TD-DFT
   Georgi Stoychev        : AutoAux, RI-MP2 NMR, DLPNO-MP2 response, X2C
   Van Anh Tran           : RI-MP2 g-tensors
   Willem Van den Heuvel  : Paramagnetic NMR
   Zikuan Wang            : NOTCH, Electric field optimization 
   Frank Wennmohs         : Technical directorship and infrastructure
   Hang Xu                : AUTO-CI-Response properties 


 We gratefully acknowledge several colleagues who have allowed us to
 interface, adapt or use parts of their codes:
   Stefan Grimme, W. Hujo, H. Kruse, P. Pracht,  : VdW corrections, initial TS optimization,
                  C. Bannwarth, S. Ehlert,         DFT functionals, gCP, sTDA/sTD-DF
                  L. Wittmann, M. Mueller
   Ed Valeev, F. Pavosevic, A. Kumar             : LibInt (2-el integral package), F12 methods
   Garnet Chan, S. Sharma, J. Yang, R. Olivares  : DMRG
   Ulf Ekstrom                                   : XCFun DFT Library
   Mihaly Kallay                                 : mrcc  (arbitrary order and MRCC methods)
   Frank Weinhold                                : gennbo (NPA and NBO analysis)
   Simon Mueller                                 : openCOSMO-RS
   Christopher J. Cramer and Donald G. Truhlar   : smd solvation model
   Lars Goerigk                                  : TD-DFT with DH, B97 family of functionals
   V. Asgeirsson, H. Jonsson                     : NEB implementation
   FAccTs GmbH                                   : IRC, NEB, NEB-TS, DLPNO-Multilevel, CI-OPT
                                                   MM, QMMM, 2- and 3-layer-ONIOM, Crystal-QMMM,
                                                   LR-CPCM, SF, NACMEs, symmetry and pop. for TD-DFT,
                                                   nearIR, NL-DFT gradient (VV10), updates on ESD,
                                                   ML-optimized integration grids, MBIS, APM,
                                                   GOAT, DOCKER, SOLVATOR, interface openCOSMO-RS
   S Lehtola, MJT Oliveira, MAL Marques          : LibXC Library
   Liviu Ungur et al                             : ANISO software


 Your calculation uses the libint2 library for the computation of 2-el integrals
 For citations please refer to: http://libint.valeyev.net

 Your ORCA version has been built with support for libXC version: 6.2.2
 For citations please refer to: https://libxc.gitlab.io

 This ORCA versions uses:
   CBLAS   interface :  Fast vector & matrix operations
   LAPACKE interface :  Fast linear algebra routines
   SCALAPACK package :  Parallel linear algebra routines
   Shared memory     :  Shared parallel matrices
   BLAS/LAPACK       :  OpenBLAS 0.3.27  USE64BITINT DYNAMIC_ARCH NO_AFFINITY SkylakeX SINGLE_THREADED
        Core in use  :  SkylakeX
   Copyright (c) 2011-2014, The OpenBLAS Project


Warning: RI is on but no J-basis has been assigned. Assigning Def2/J (nothing to worry about!)
================================================================================

----- Orbital basis set information -----
Your calculation utilizes the basis: 6-31G*
   H-He, Li-Ne : W. J. Hehre, R. Ditchfield and J.A. Pople, J. Chem. Phys. 56, 2257 (1972).
                 Note: He and Ne are unpublished basis sets taken from the Gaussian program.
                 Note: Li and B from J. D. Dill and J. A. Pople, J. Chem. Phys. 62, 2921 (1975).
   Na - Ar     : M. M. Francl, W. J. Pietro, W. J. Hehre, J. S. Binkley, M. S. Gordon, 
                 D. J. DeFrees and J. A. Pople, J. Chem. Phys. 77, 3654 (1982).
   K - Zn      : V. A. Rassolov, J. A. Pople, M. A. Ratner, and T. L. Windus, J. Chem. Phys. 109, 1223 (1998).

----- AuxJ basis set information -----
Your calculation utilizes the auxiliary basis: def2/J
   F. Weigend, Phys. Chem. Chem. Phys. 8, 1057 (2006).

================================================================================
                                        WARNINGS
                       Please study these warnings very carefully!
================================================================================


================================================================================
                                       INPUT FILE
================================================================================
NAME = /home/nmrbox/aojoawo/Documents/ERDOS/inputs/CHEMBL3687340.inp
|  1> ! B3LYP 6-31G* SP
|  2> 
|  3> * xyz -1 1
|  4> C 2.0701 -0.6689 1.7602
|  5> C 1.9940 -1.4882 0.4909
|  6> C 1.0675 -1.1590 -0.5283
|  7> N 0.1345 -0.0826 -0.3726
|  8> C -0.9905 -0.1938 0.5583
|  9> C -2.2914 -0.2877 -0.1915
| 10> C -2.5095 -1.1350 -1.2763
| 11> C -3.7893 -0.8560 -1.6993
| 12> C -4.5088 -1.3654 -2.7774
| 13> C -5.8000 -0.8526 -3.0079
| 14> Cl -6.7501 -1.4552 -4.3522
| 15> C -6.3293 0.1523 -2.1683
| 16> C -5.5760 0.6490 -1.0898
| 17> C -4.3025 0.1113 -0.8725
| 18> N -3.4060 0.4442 0.0811
| 19> C -3.5527 1.4921 1.0983
| 20> C -3.3425 1.0040 2.5255
| 21> C -4.7432 1.3002 2.0286
| 22> S 0.3987 1.3859 -1.2591
| 23> O 0.8314 1.0653 -2.6625
| 24> O -0.8739 2.1836 -1.3294
| 25> C 1.6496 2.3154 -0.4456
| 26> C 1.3104 3.3884 0.3866
| 27> C 2.3070 4.0941 1.0666
| 28> C 3.6577 3.7295 0.9303
| 29> C 4.7088 4.4748 1.6566
| 30> O 5.9183 4.1375 1.5574
| 31> O 4.3753 5.5590 2.4607
| 32> C 3.9904 2.6447 0.0994
| 33> C 2.9919 1.9434 -0.5817
| 34> N 1.0687 -1.8488 -1.6975
| 35> C 1.9144 -2.8796 -1.9340
| 36> C 2.8248 -3.2806 -0.9536
| 37> C 3.6947 -4.3562 -1.1918
| 38> C 4.5985 -4.7596 -0.2085
| 39> C 4.6376 -4.0980 1.0185
| 40> C 3.7811 -3.0225 1.2671
| 41> C 2.8652 -2.5890 0.2823
| 42> H 3.1184 -0.3531 1.9442
| 43> H 1.7058 -1.2735 2.6172
| 44> H 1.4731 0.2627 1.7094
| 45> H -0.9803 0.6903 1.2278
| 46> H -0.8842 -1.0996 1.1938
| 47> H -1.8102 -1.8318 -1.7208
| 48> H -4.0828 -2.1250 -3.4214
| 49> H -7.3193 0.5499 -2.3564
| 50> H -5.9769 1.4289 -0.4589
| 51> H -3.2395 2.5298 0.8552
| 52> H -2.9351 1.7724 3.2170
| 53> H -3.1333 -0.0809 2.6434
| 54> H -5.1712 2.2434 2.4283
| 55> H -5.3548 0.3869 1.8621
| 56> H 0.2753 3.6754 0.5176
| 57> H 2.0179 4.9200 1.7038
| 58> H 5.0209 2.3354 -0.0215
| 59> H 3.2646 1.1021 -1.2053
| 60> H 1.8682 -3.3899 -2.8882
| 61> H 3.6749 -4.8843 -2.1371
| 62> H 5.2670 -5.5897 -0.3958
| 63> H 5.3356 -4.4191 1.7811
| 64> H 3.8410 -2.5466 2.2359
| 65> *
| 66> 
| 67>                          ****END OF INPUT****
================================================================================

                       ****************************
                       * Single Point Calculation *
                       ****************************

---------------------------------
CARTESIAN COORDINATES (ANGSTROEM)
---------------------------------
  C      2.070100   -0.668900    1.760200
  C      1.994000   -1.488200    0.490900
  C      1.067500   -1.159000   -0.528300
  N      0.134500   -0.082600   -0.372600
  C     -0.990500   -0.193800    0.558300
  C     -2.291400   -0.287700   -0.191500
  C     -2.509500   -1.135000   -1.276300
  C     -3.789300   -0.856000   -1.699300
  C     -4.508800   -1.365400   -2.777400
  C     -5.800000   -0.852600   -3.007900
  Cl    -6.750100   -1.455200   -4.352200
  C     -6.329300    0.152300   -2.168300
  C     -5.576000    0.649000   -1.089800
  C     -4.302500    0.111300   -0.872500
  N     -3.406000    0.444200    0.081100
  C     -3.552700    1.492100    1.098300
  C     -3.342500    1.004000    2.525500
  C     -4.743200    1.300200    2.028600
  S      0.398700    1.385900   -1.259100
  O      0.831400    1.065300   -2.662500
  O     -0.873900    2.183600   -1.329400
  C      1.649600    2.315400   -0.445600
  C      1.310400    3.388400    0.386600
  C      2.307000    4.094100    1.066600
  C      3.657700    3.729500    0.930300
  C      4.708800    4.474800    1.656600
  O      5.918300    4.137500    1.557400
  O      4.375300    5.559000    2.460700
  C      3.990400    2.644700    0.099400
  C      2.991900    1.943400   -0.581700
  N      1.068700   -1.848800   -1.697500
  C      1.914400   -2.879600   -1.934000
  C      2.824800   -3.280600   -0.953600
  C      3.694700   -4.356200   -1.191800
  C      4.598500   -4.759600   -0.208500
  C      4.637600   -4.098000    1.018500
  C      3.781100   -3.022500    1.267100
  C      2.865200   -2.589000    0.282300
  H      3.118400   -0.353100    1.944200
  H      1.705800   -1.273500    2.617200
  H      1.473100    0.262700    1.709400
  H     -0.980300    0.690300    1.227800
  H     -0.884200   -1.099600    1.193800
  H     -1.810200   -1.831800   -1.720800
  H     -4.082800   -2.125000   -3.421400
  H     -7.319300    0.549900   -2.356400
  H     -5.976900    1.428900   -0.458900
  H     -3.239500    2.529800    0.855200
  H     -2.935100    1.772400    3.217000
  H     -3.133300   -0.080900    2.643400
  H     -5.171200    2.243400    2.428300
  H     -5.354800    0.386900    1.862100
  H      0.275300    3.675400    0.517600
  H      2.017900    4.920000    1.703800
  H      5.020900    2.335400   -0.021500
  H      3.264600    1.102100   -1.205300
  H      1.868200   -3.389900   -2.888200
  H      3.674900   -4.884300   -2.137100
  H      5.267000   -5.589700   -0.395800
  H      5.335600   -4.419100    1.781100
  H      3.841000   -2.546600    2.235900

----------------------------
CARTESIAN COORDINATES (A.U.)
----------------------------
  NO LB      ZA    FRAG     MASS         X           Y           Z
   0 C     6.0000    0    12.011    3.911922   -1.264038    3.326296
   1 C     6.0000    0    12.011    3.768114   -2.812290    0.927667
   2 C     6.0000    0    12.011    2.017283   -2.190193   -0.998342
   3 N     7.0000    0    14.007    0.254168   -0.156091   -0.704112
   4 C     6.0000    0    12.011   -1.871774   -0.366229    1.055034
   5 C     6.0000    0    12.011   -4.330118   -0.543674   -0.361883
   6 C     6.0000    0    12.011   -4.742268   -2.144839   -2.411857
   7 C     6.0000    0    12.011   -7.160739   -1.617606   -3.211212
   8 C     6.0000    0    12.011   -8.520397   -2.580232   -5.248525
   9 C     6.0000    0    12.011  -10.960412   -1.611181   -5.684107
  10 Cl   17.0000    0    35.453  -12.755840   -2.749929   -8.224466
  11 C     6.0000    0    12.011  -11.960644    0.287805   -4.097493
  12 C     6.0000    0    12.011  -10.537113    1.226432   -2.059424
  13 C     6.0000    0    12.011   -8.130547    0.210327   -1.648786
  14 N     7.0000    0    14.007   -6.436407    0.839416    0.153257
  15 C     6.0000    0    12.011   -6.713630    2.819660    2.075486
  16 C     6.0000    0    12.011   -6.316410    1.897285    4.772503
  17 C     6.0000    0    12.011   -8.963349    2.457022    3.833498
  18 S    16.0000    0    32.060    0.753434    2.618971   -2.379354
  19 O     8.0000    0    15.999    1.571118    2.013125   -5.031396
  20 O     8.0000    0    15.999   -1.651432    4.126406   -2.512202
  21 C     6.0000    0    12.011    3.117292    4.375472   -0.842062
  22 C     6.0000    0    12.011    2.476297    6.403148    0.730568
  23 C     6.0000    0    12.011    4.359598    7.736728    2.015582
  24 C     6.0000    0    12.011    6.912051    7.047734    1.758012
  25 C     6.0000    0    12.011    8.898342    8.456147    3.130520
  26 O     8.0000    0    15.999   11.183966    7.818742    2.943059
  27 O     8.0000    0    15.999    8.268119   10.504988    4.650049
  28 C     6.0000    0    12.011    7.540763    4.997759    0.187839
  29 C     6.0000    0    12.011    5.653872    3.672494   -1.099254
  30 N     7.0000    0    14.007    2.019550   -3.493726   -3.207810
  31 C     6.0000    0    12.011    3.617692   -5.441655   -3.654730
  32 C     6.0000    0    12.011    5.338098   -6.199436   -1.802043
  33 C     6.0000    0    12.011    6.981971   -8.232025   -2.252176
  34 C     6.0000    0    12.011    8.689906   -8.994341   -0.394008
  35 C     6.0000    0    12.011    8.763794   -7.744098    1.924686
  36 C     6.0000    0    12.011    7.145243   -5.711697    2.394472
  37 C     6.0000    0    12.011    5.414443   -4.892501    0.533470
  38 H     1.0000    0     1.008    5.892922   -0.667262    3.674006
  39 H     1.0000    0     1.008    3.223495   -2.406566    4.945791
  40 H     1.0000    0     1.008    2.783756    0.496431    3.230298
  41 H     1.0000    0     1.008   -1.852499    1.304478    2.320206
  42 H     1.0000    0     1.008   -1.670896   -2.077943    2.255955
  43 H     1.0000    0     1.008   -3.420782   -3.461600   -3.251841
  44 H     1.0000    0     1.008   -7.715374   -4.015668   -6.465509
  45 H     1.0000    0     1.008  -13.831472    1.039160   -4.452951
  46 H     1.0000    0     1.008  -11.294704    2.700230   -0.867195
  47 H     1.0000    0     1.008   -6.121768    4.780629    1.616094
  48 H     1.0000    0     1.008   -5.546535    3.349351    6.079249
  49 H     1.0000    0     1.008   -5.921079   -0.152879    4.995302
  50 H     1.0000    0     1.008   -9.772152    4.239412    4.588822
  51 H     1.0000    0     1.008  -10.119106    0.731135    3.518859
  52 H     1.0000    0     1.008    0.520242    6.945499    0.978122
  53 H     1.0000    0     1.008    3.813278    9.297453    3.219715
  54 H     1.0000    0     1.008    9.488126    4.413266   -0.040629
  55 H     1.0000    0     1.008    6.169200    2.082667   -2.277687
  56 H     1.0000    0     1.008    3.530386   -6.405983   -5.457907
  57 H     1.0000    0     1.008    6.944555   -9.229989   -4.038534
  58 H     1.0000    0     1.008    9.953188  -10.563002   -0.747954
  59 H     1.0000    0     1.008   10.082823   -8.350889    3.365791
  60 H     1.0000    0     1.008    7.258438   -4.812377    4.225239

--------------------------------
INTERNAL COORDINATES (ANGSTROEM)
--------------------------------
 C      0   0   0     0.000000000000     0.00000000     0.00000000
 C      1   0   0     1.512668565813     0.00000000     0.00000000
 C      2   1   0     1.416172139960   120.72423685     0.00000000
 N      3   2   1     1.432957937275   121.49244073   357.23198713
 C      4   3   2     1.464433422864   120.81154225   289.13998697
 C      5   4   3     1.504446097406   110.62226966   249.49533061
 C      6   5   4     1.393655603081   124.13929307    47.22541886
 C      7   6   5     1.376465778725   105.15777335   183.05797061
 C      8   7   6     1.392647916740   130.09954962   177.12853853
 C      9   8   7     1.408293836527   117.85271647   182.55546992
 Cl    10   9   8     1.752985812835   119.81946911   179.90306982
 C     10   9   8     1.412413062811   120.35556126     0.41803669
 C     12  10   9     1.406177097666   120.42962543   359.75865989
 C      8   7   6     1.372093936289   107.78678313   359.23159793
 N     14   8   7     1.350513835546   110.54692899   358.84534802
 C     15  14   8     1.467757180190   126.79750572   176.09917190
 C     16  15  14     1.522933186322   114.00714575   126.06572743
 C     17  16  15     1.515455225337    60.16585212   254.85058885
 S      4   3   2     1.735562197099   118.74878161   106.58949854
 O     19   4   3     1.503178369323   109.89135590    41.99459913
 O     19   4   3     1.503588421078   110.11678844   161.14916783
 C     19   4   3     1.757982738823   108.62214793   281.76674646
 C     22  19   4     1.399622263327   120.53348517   259.70766785
 C     23  22  19     1.397721020089   120.23446235   177.78934639
 C     24  23  22     1.405667578057   120.46443446   359.55721492
 C     25  24  23     1.479119667235   120.30002580   180.28971475
 O     26  25  24     1.259564281805   120.58210383   178.70713388
 O     26  25  24     1.390427524181   120.42638635   358.75183020
 C     25  24  23     1.406369489146   118.99116332     0.00000000
 C     29  25  24     1.397397992699   120.40028484     0.14392982
 N      3   2   1     1.357517631561   120.07626775   175.74240198
 C     31   3   2     1.354137873335   122.53241099     1.41075628
 C     32  31   3     1.396715189292   120.20095519     0.56368504
 C     33  32  31     1.403702464912   120.31957503   179.44978704
 C     34  33  32     1.395157657758   120.22651764   180.33660766
 C     35  34  33     1.394550956401   120.07310285     0.24595730
 C     36  35  34     1.397173740091   120.30194492   359.50275185
 C     37  36  35     1.413020205093   120.63065646   359.96541647
 H      1   2   3     1.110188511020   109.91619475   232.06445534
 H      1   2   3     1.110272331457   109.64838440   111.41869239
 H      1   2   3     1.107640826261   112.95098222   350.34004437
 H      5   4   3     1.109038818076   108.42977411   127.54136820
 H      5   4   3     1.111590563112   110.59920478     9.69454722
 H      7   6   5     1.082649980372   127.57425440     0.59649886
 H      9   8   7     1.083145493459   120.90368799     2.01128361
 H     12  10   9     1.083313144940   120.02524019   179.39500466
 H     13  12  10     1.080277570812   120.27359483   179.00601437
 H     16  15  14     1.110861440505   119.14909506   272.36478510
 H     17  16  15     1.111119062027   114.34236162   149.98798131
 H     17  16  15     1.111158431548   115.99849189   358.31673891
 H     18  17  16     1.110211840146   113.84873329   254.42398609
 H     18  17  16     1.111707560467   113.39223206   107.88636795
 H     23  22  19     1.082109980547   120.47301577   358.31889080
 H     24  23  22     1.082457140029   118.76267841   179.98567697
 H     29  25  24     1.082688112985   120.76342138   180.38466999
 H     30  29  25     1.082140443750   119.40484617   180.89928448
 H     32  31   3     1.083068866693   119.07061987   180.11269869
 H     34  33  32     1.082992954732   120.69314119     0.29920365
 H     35  34  33     1.082145808105   119.99993622   179.95903670
 H     36  35  34     1.082528507708   119.81355451   179.55814307
 H     37  36  35     1.081037584916   117.66888208   179.43916532

---------------------------
INTERNAL COORDINATES (A.U.)
---------------------------
 C      0   0   0     0.000000000000     0.00000000     0.00000000
 C      1   0   0     2.858529320779     0.00000000     0.00000000
 C      2   1   0     2.676177503014   120.72423685     0.00000000
 N      3   2   1     2.707898062879   121.49244073   357.23198713
 C      4   3   2     2.767378110573   120.81154225   289.13998697
 C      5   4   3     2.842991107344   110.62226966   249.49533061
 C      6   5   4     2.633627414829   124.13929307    47.22541886
 C      7   6   5     2.601143354504   105.15777335   183.05797061
 C      8   7   6     2.631723163614   130.09954962   177.12853853
 C      9   8   7     2.661289667125   117.85271647   182.55546992
 Cl    10   9   8     3.312663102907   119.81946911   179.90306982
 C     10   9   8     2.669073876686   120.35556126     0.41803669
 C     12  10   9     2.657289610381   120.42962543   359.75865989
 C      8   7   6     2.592881769599   107.78678313   359.23159793
 N     14   8   7     2.552101289253   110.54692899   358.84534802
 C     15  14   8     2.773659101656   126.79750572   176.09917190
 C     16  15  14     2.877926642408   114.00714575   126.06572743
 C     17  16  15     2.863795344106    60.16585212   254.85058885
 S      4   3   2     3.279737240904   118.74878161   106.58949854
 O     19   4   3     2.840595448454   109.89135590    41.99459913
 O     19   4   3     2.841370333973   110.11678844   161.14916783
 C     19   4   3     3.322105924536   108.62214793   281.76674646
 C     22  19   4     2.644902768627   120.53348517   259.70766785
 C     23  22  19     2.641309939594   120.23446235   177.78934639
 C     24  23  22     2.656326757860   120.46443446   359.55721492
 C     25  24  23     2.795131090370   120.30002580   180.28971475
 O     26  25  24     2.380231540681   120.58210383   178.70713388
 O     26  25  24     2.627527229768   120.42638635   358.75183020
 C     25  24  23     2.657653177588   118.99116332     0.00000000
 C     29  25  24     2.640699506293   120.40028484     0.14392982
 N      3   2   1     2.565336545620   120.07626775   175.74240198
 C     31   3   2     2.558949728174   122.53241099     1.41075628
 C     32  31   3     2.639409194851   120.20095519     0.56368504
 C     33  32  31     2.652613232194   120.31957503   179.44978704
 C     34  33  32     2.636465886805   120.22651764   180.33660766
 C     35  34  33     2.635319387397   120.07310285     0.24595730
 C     36  35  34     2.640275730279   120.30194492   359.50275185
 C     37  36  35     2.670221209322   120.63065646   359.96541647
 H      1   2   3     2.097952242853   109.91619475   232.06445534
 H      1   2   3     2.098110640525   109.64838440   111.41869239
 H      1   2   3     2.093137816383   112.95098222   350.34004437
 H      5   4   3     2.095779638052   108.42977411   127.54136820
 H      5   4   3     2.100601737333   110.59920478     9.69454722
 H      7   6   5     2.045911961799   127.57425440     0.59649886
 H      9   8   7     2.046848345828   120.90368799     2.01128361
 H     12  10   9     2.047165161214   120.02524019   179.39500466
 H     13  12  10     2.041428757453   120.27359483   179.00601437
 H     16  15  14     2.099223895287   119.14909506   272.36478510
 H     17  16  15     2.099710729411   114.34236162   149.98798131
 H     17  16  15     2.099785127023   115.99849189   358.31673891
 H     18  17  16     2.097996328512   113.84873329   254.42398609
 H     18  17  16     2.100822830293   113.39223206   107.88636795
 H     23  22  19     2.044891510017   120.47301577   358.31889080
 H     24  23  22     2.045547546363   118.76267841   179.98567697
 H     29  25  24     2.045984021994   120.76342138   180.38466999
 H     30  29  25     2.044949077128   119.40484617   180.89928448
 H     32  31   3     2.046703542227   119.07061987   180.11269869
 H     34  33  32     2.046560089410   120.69314119     0.29920365
 H     35  34  33     2.044959214290   119.99993622   179.95903670
 H     36  35  34     2.045682411730   119.81355451   179.55814307
 H     37  36  35     2.042864975966   117.66888208   179.43916532

---------------------
BASIS SET INFORMATION
---------------------
There are 6 groups of distinct atoms

 Group   1 Type C   : 10s4p1d contracted to 3s2p1d pattern {631/31/1}
 Group   2 Type N   : 10s4p1d contracted to 3s2p1d pattern {631/31/1}
 Group   3 Type Cl  : 16s10p1d contracted to 4s3p1d pattern {6631/631/1}
 Group   4 Type S   : 16s10p1d contracted to 4s3p1d pattern {6631/631/1}
 Group   5 Type O   : 10s4p1d contracted to 3s2p1d pattern {631/31/1}
 Group   6 Type H   : 4s contracted to 2s pattern {31}

Atom   0C    basis set group =>   1
Atom   1C    basis set group =>   1
Atom   2C    basis set group =>   1
Atom   3N    basis set group =>   2
Atom   4C    basis set group =>   1
Atom   5C    basis set group =>   1
Atom   6C    basis set group =>   1
Atom   7C    basis set group =>   1
Atom   8C    basis set group =>   1
Atom   9C    basis set group =>   1
Atom  10Cl   basis set group =>   3
Atom  11C    basis set group =>   1
Atom  12C    basis set group =>   1
Atom  13C    basis set group =>   1
Atom  14N    basis set group =>   2
Atom  15C    basis set group =>   1
Atom  16C    basis set group =>   1
Atom  17C    basis set group =>   1
Atom  18S    basis set group =>   4
Atom  19O    basis set group =>   5
Atom  20O    basis set group =>   5
Atom  21C    basis set group =>   1
Atom  22C    basis set group =>   1
Atom  23C    basis set group =>   1
Atom  24C    basis set group =>   1
Atom  25C    basis set group =>   1
Atom  26O    basis set group =>   5
Atom  27O    basis set group =>   5
Atom  28C    basis set group =>   1
Atom  29C    basis set group =>   1
Atom  30N    basis set group =>   2
Atom  31C    basis set group =>   1
Atom  32C    basis set group =>   1
Atom  33C    basis set group =>   1
Atom  34C    basis set group =>   1
Atom  35C    basis set group =>   1
Atom  36C    basis set group =>   1
Atom  37C    basis set group =>   1
Atom  38H    basis set group =>   6
Atom  39H    basis set group =>   6
Atom  40H    basis set group =>   6
Atom  41H    basis set group =>   6
Atom  42H    basis set group =>   6
Atom  43H    basis set group =>   6
Atom  44H    basis set group =>   6
Atom  45H    basis set group =>   6
Atom  46H    basis set group =>   6
Atom  47H    basis set group =>   6
Atom  48H    basis set group =>   6
Atom  49H    basis set group =>   6
Atom  50H    basis set group =>   6
Atom  51H    basis set group =>   6
Atom  52H    basis set group =>   6
Atom  53H    basis set group =>   6
Atom  54H    basis set group =>   6
Atom  55H    basis set group =>   6
Atom  56H    basis set group =>   6
Atom  57H    basis set group =>   6
Atom  58H    basis set group =>   6
Atom  59H    basis set group =>   6
Atom  60H    basis set group =>   6
---------------------------------
AUXILIARY/J BASIS SET INFORMATION
---------------------------------
There are 6 groups of distinct atoms

 Group   1 Type C   : 12s5p4d2f1g contracted to 6s4p3d1f1g pattern {711111/2111/211/2/1}
 Group   2 Type N   : 12s5p4d2f1g contracted to 6s4p3d1f1g pattern {711111/2111/211/2/1}
 Group   3 Type Cl  : 14s5p5d2f1g contracted to 8s4p3d1f1g pattern {71111111/2111/311/2/1}
 Group   4 Type S   : 14s5p5d2f1g contracted to 8s4p3d1f1g pattern {71111111/2111/311/2/1}
 Group   5 Type O   : 12s5p4d2f1g contracted to 6s4p3d1f1g pattern {711111/2111/211/2/1}
 Group   6 Type H   : 5s2p1d contracted to 3s1p1d pattern {311/2/1}

Atom   0C    basis set group =>   1
Atom   1C    basis set group =>   1
Atom   2C    basis set group =>   1
Atom   3N    basis set group =>   2
Atom   4C    basis set group =>   1
Atom   5C    basis set group =>   1
Atom   6C    basis set group =>   1
Atom   7C    basis set group =>   1
Atom   8C    basis set group =>   1
Atom   9C    basis set group =>   1
Atom  10Cl   basis set group =>   3
Atom  11C    basis set group =>   1
Atom  12C    basis set group =>   1
Atom  13C    basis set group =>   1
Atom  14N    basis set group =>   2
Atom  15C    basis set group =>   1
Atom  16C    basis set group =>   1
Atom  17C    basis set group =>   1
Atom  18S    basis set group =>   4
Atom  19O    basis set group =>   5
Atom  20O    basis set group =>   5
Atom  21C    basis set group =>   1
Atom  22C    basis set group =>   1
Atom  23C    basis set group =>   1
Atom  24C    basis set group =>   1
Atom  25C    basis set group =>   1
Atom  26O    basis set group =>   5
Atom  27O    basis set group =>   5
Atom  28C    basis set group =>   1
Atom  29C    basis set group =>   1
Atom  30N    basis set group =>   2
Atom  31C    basis set group =>   1
Atom  32C    basis set group =>   1
Atom  33C    basis set group =>   1
Atom  34C    basis set group =>   1
Atom  35C    basis set group =>   1
Atom  36C    basis set group =>   1
Atom  37C    basis set group =>   1
Atom  38H    basis set group =>   6
Atom  39H    basis set group =>   6
Atom  40H    basis set group =>   6
Atom  41H    basis set group =>   6
Atom  42H    basis set group =>   6
Atom  43H    basis set group =>   6
Atom  44H    basis set group =>   6
Atom  45H    basis set group =>   6
Atom  46H    basis set group =>   6
Atom  47H    basis set group =>   6
Atom  48H    basis set group =>   6
Atom  49H    basis set group =>   6
Atom  50H    basis set group =>   6
Atom  51H    basis set group =>   6
Atom  52H    basis set group =>   6
Atom  53H    basis set group =>   6
Atom  54H    basis set group =>   6
Atom  55H    basis set group =>   6
Atom  56H    basis set group =>   6
Atom  57H    basis set group =>   6
Atom  58H    basis set group =>   6
Atom  59H    basis set group =>   6
Atom  60H    basis set group =>   6
------------------------------------------------------------------------------
                             ORCA STARTUP CALCULATIONS
                           -- RI-GTO INTEGRALS CHOSEN --
------------------------------------------------------------------------------
------------------------------------------------------------------------------
                   ___                                                        
                  /   \      - P O W E R E D   B Y -                         
                 /     \                                                     
                 |  |  |   _    _      __       _____    __    __             
                 |  |  |  | |  | |    /  \     |  _  \  |  |  /  |          
                  \  \/   | |  | |   /    \    | | | |  |  | /  /          
                 / \  \   | |__| |  /  /\  \   | |_| |  |  |/  /          
                |  |  |   |  __  | /  /__\  \  |    /   |      \           
                |  |  |   | |  | | |   __   |  |    \   |  |\   \          
                \     /   | |  | | |  |  |  |  | |\  \  |  | \   \       
                 \___/    |_|  |_| |__|  |__|  |_| \__\ |__|  \__/        
                                                                              
                      - O R C A' S   B I G   F R I E N D -                    
                                      &                                       
                       - I N T E G R A L  F E E D E R -                       
                                                                              
 v1 FN, 2020, v2 2021, v3 2022-2024                                           
------------------------------------------------------------------------------


----------------------
SHARK INTEGRAL PACKAGE
----------------------

Number of atoms                             ...     61
Number of basis functions                   ...    586
Number of shells                            ...    278
Maximum angular momentum                    ...      2
Integral batch strategy                     ... SHARK/LIBINT Hybrid
RI-J (if used) integral strategy            ... SPLIT-RIJ (Revised 2003 algorithm where possible)
Printlevel                                  ...      1
Contraction scheme used                     ... SEGMENTED contraction
Prescreening option                         ... SCHWARTZ
   Thresh                                   ... 1.000e-10
   Tcut                                     ... 1.000e-11
   Tpresel                                  ... 1.000e-11 
Coulomb Range Separation                    ... NOT USED
Exchange Range Separation                   ... NOT USED
Multipole approximations                    ... NOT USED
Finite Nucleus Model                        ... NOT USED
CABS basis                                  ... NOT available
Auxiliary Coulomb fitting basis             ... AVAILABLE
   # of basis functions in Aux-J            ...   2119
   # of shells in Aux-J                     ...    689
   Maximum angular momentum in Aux-J        ...      4
Auxiliary J/K fitting basis                 ... NOT available
Auxiliary Correlation fitting basis         ... NOT available
Auxiliary 'external' fitting basis          ... NOT available

Checking pre-screening integrals            ... done (  0.0 sec) Dimension = 278
Check shell pair data                       ... done (  0.0 sec)
Shell pair information
Shell pair cut-off parameter TPreSel        ...   1.0e-11
Total number of shell pairs                 ...     38781
Shell pairs after pre-screening             ...     20578
Total number of primitive shell pairs       ...    236568
Primitive shell pairs kept                  ...     62520
          la=0 lb=0:   6595 shell pairs
          la=1 lb=0:   7360 shell pairs
          la=1 lb=1:   2052 shell pairs
          la=2 lb=0:   2691 shell pairs
          la=2 lb=1:   1593 shell pairs
          la=2 lb=2:    287 shell pairs

Calculating one electron integrals          ... done (  0.2 sec)
Calculating RI/J V-Matrix + Cholesky decomp.... done (  0.5 sec)
Calculating Nuclear repulsion               ... done (  0.0 sec) ENN=   4452.220839667600 Eh

Diagonalization of the overlap matrix:
Smallest eigenvalue                        ... 3.524e-04
Time for diagonalization                   ...    0.047 sec
Threshold for overlap eigenvalues          ... 1.000e-07
Number of eigenvalues below threshold      ... 0
Time for construction of square roots      ...    0.054 sec
Total time needed                          ...    0.111 sec

-------------------
DFT GRID GENERATION
-------------------

General Integration Accuracy     IntAcc      ... 4.388
Radial Grid Type                 RadialGrid  ... OptM3 with GC (2021)
Angular Grid (max. ang.)         AngularGrid ... 4 (Lebedev-302)
Angular grid pruning method      GridPruning ... 4 (adaptive)
Weight generation scheme         WeightScheme... mBecke (2022)
Basis function cutoff            BFCut       ... 1.0000e-10
Integration weight cutoff        WCut        ... 1.0000e-14
Partially contracted basis set               ... off
Rotationally invariant grid construction     ... off
Angular grids for H and He will be reduced by one unit

Total number of grid points                  ...   301875
Total number of batches                      ...     4749
Average number of points per batch           ...       63
Average number of grid points per atom       ...     4949

--------------------
COSX GRID GENERATION
--------------------

GRIDX 1
-------
General Integration Accuracy     IntAcc      ... 3.816
Radial Grid Type                 RadialGrid  ... OptM3 with GC (2021)
Angular Grid (max. ang.)         AngularGrid ... 1 (Lebedev-50)
Angular grid pruning method      GridPruning ... 4 (adaptive)
Weight generation scheme         WeightScheme... mBecke (2022)
Basis function cutoff            BFCut       ... 1.0000e-10
Integration weight cutoff        WCut        ... 1.0000e-14
Partially contracted basis set               ... on
Rotationally invariant grid construction     ... off
Angular grids for H and He will be reduced by one unit

Total number of grid points                  ...    40244
Total number of batches                      ...      346
Average number of points per batch           ...      116
Average number of grid points per atom       ...      660
UseSFitting                                  ... on

GRIDX 2
-------
General Integration Accuracy     IntAcc      ... 4.020
Radial Grid Type                 RadialGrid  ... OptM3 with GC (2021)
Angular Grid (max. ang.)         AngularGrid ... 2 (Lebedev-110)
Angular grid pruning method      GridPruning ... 4 (adaptive)
Weight generation scheme         WeightScheme... mBecke (2022)
Basis function cutoff            BFCut       ... 1.0000e-10
Integration weight cutoff        WCut        ... 1.0000e-14
Partially contracted basis set               ... on
Rotationally invariant grid construction     ... off
Angular grids for H and He will be reduced by one unit

Total number of grid points                  ...    83152
Total number of batches                      ...      680
Average number of points per batch           ...      122
Average number of grid points per atom       ...     1363
UseSFitting                                  ... on

GRIDX 3
-------
General Integration Accuracy     IntAcc      ... 4.338
Radial Grid Type                 RadialGrid  ... OptM3 with GC (2021)
Angular Grid (max. ang.)         AngularGrid ... 3 (Lebedev-194)
Angular grid pruning method      GridPruning ... 4 (adaptive)
Weight generation scheme         WeightScheme... mBecke (2022)
Basis function cutoff            BFCut       ... 1.0000e-10
Integration weight cutoff        WCut        ... 1.0000e-14
Partially contracted basis set               ... on
Rotationally invariant grid construction     ... off
Angular grids for H and He will be reduced by one unit

Total number of grid points                  ...   182651
Total number of batches                      ...     1457
Average number of points per batch           ...      125
Average number of grid points per atom       ...     2994
UseSFitting                                  ... on
Initializing property integral containers    ... done (  0.0 sec)

SHARK setup successfully completed in  12.7 seconds

Maximum memory used throughout the entire STARTUP-calculation: 134.9 MB
-------------------------------------------------------------------------------
                                 ORCA GUESS
                   Start orbitals & Density for SCF / CASSCF
-------------------------------------------------------------------------------

------------
SCF SETTINGS
------------
Hamiltonian:
 Density Functional     Method          .... DFT(GTOs)
 Exchange Functional    Exchange        .... B88
   X-Alpha parameter    XAlpha          ....  0.666667
   Becke's b parameter  XBeta           ....  0.004200
 Correlation Functional Correlation     .... LYP
 LDA part of GGA corr.  LDAOpt          .... VWN-5
 Gradients option       PostSCFGGA      .... off
 Hybrid DFT is turned on
   Fraction HF Exchange ScalHFX         ....  0.200000
   Scaling of DF-GGA-X  ScalDFX         ....  0.720000
   Scaling of DF-GGA-C  ScalDFC         ....  0.810000
   Scaling of DF-LDA-C  ScalLDAC        ....  1.000000
   Perturbative correction              ....  0.000000
   NL short-range parameter             ....  4.800000
 RI-approximation to the Coulomb term is turned on
   Number of AuxJ basis functions       .... 2119
   RIJ-COSX (HFX calculated with COS-X)).... on


General Settings:
 Integral files         IntName         .... /home/nmrbox/aojoawo/Documents/ERDOS/inputs/CHEMBL3687340
 Hartree-Fock type      HFTyp           .... RHF
 Total Charge           Charge          ....   -1
 Multiplicity           Mult            ....    1
 Number of Electrons    NEL             ....  284
 Basis Dimension        Dim             ....  586
 Nuclear Repulsion      ENuc            ....   4452.2208396676 Eh

Convergence Acceleration:
 AO-DIIS                CNVDIIS         .... on
   Start iteration      DIISMaxIt       ....    12
   Startup error        DIISStart       ....  0.200000
   # of expansion vecs  DIISMaxEq       ....     5
   Bias factor          DIISBfac        ....   1.050
   Max. coefficient     DIISMaxC        ....  10.000
 MO-DIIS                CNVKDIIS        .... off
 Trust-Rad. Augm. Hess. CNVTRAH         .... auto
   Auto Start mean grad. ratio tolernc. ....  1.125000
   Auto Start start iteration           ....    50
   Auto Start num. interpolation iter.  ....    10
   Max. Number of Micro iterations      ....    24
   Max. Number of Macro iterations      .... Maxiter - #DIIS iter
   Number of Davidson start vectors     ....     2
   Converg. threshold    (grad. norm)   ....   5.000e-05
   Grad. Scal. Fac. for Micro threshold ....   0.100
   Minimum threshold for Micro iter.    ....   1.000e-02
   NR start threshold (gradient norm)   ....   1.000e-04
   Initial trust radius                 ....   0.400
   Minimum AH scaling param. (alpha)    ....   1.000
   Maximum AH scaling param. (alpha)    .... 1000.000
   Quad. conv. algorithm                .... NR
   White noise on init. David. guess    .... on
   Maximum white noise                  ....   0.010
   Pseudo random numbers                .... off
   Inactive MOs                         .... canonical
   Orbital update algorithm             .... Taylor
   Preconditioner                       .... Diag
   Full preconditioner red. dimension   ....   250
 SOSCF                  CNVSOSCF        .... on
   Start iteration      SOSCFMaxIt      ....   150
   Startup grad/error   SOSCFStart      ....  0.003300
   Hessian update       SOSCFHessUp     .... L-BFGS
 Level Shifting         CNVShift        .... on
   Level shift para.    LevelShift      ....    0.2500
   Turn off err/grad.   ShiftErr        ....    0.0010
 Zerner damping         CNVZerner       .... off
 Static damping         CNVDamp         .... on
   Fraction old density DampFac         ....    0.7000
   Max. Damping (<1)    DampMax         ....    0.9800
   Min. Damping (>=0)   DampMin         ....    0.0000
   Turn off err/grad.   DampErr         ....    0.1000

SCF Procedure:
 Maximum # iterations   MaxIter         ....   125
 SCF integral mode      SCFMode         .... Direct
   Integral package                     .... SHARK and LIBINT hybrid scheme
 Reset frequency        DirectResetFreq ....    20
 Integral Threshold     Thresh          ....  1.000e-10 Eh
 Primitive CutOff       TCut            ....  1.000e-11 Eh

Convergence Tolerance:
 Convergence Check Mode ConvCheckMode   .... Total+1el-Energy
 Convergence forced     ConvForced      .... 0
 Energy Change          TolE            ....  1.000e-06 Eh
 1-El. energy change                    ....  1.000e-03 Eh
 Orbital Gradient       TolG            ....  5.000e-05
 Orbital Rotation angle TolX            ....  5.000e-05
 DIIS Error             TolErr          ....  1.000e-06

------------------------------
INITIAL GUESS: MODEL POTENTIAL
------------------------------
Loading Hartree-Fock densities                     ... done
Calculating cut-offs                               ... done
Initializing the effective Hamiltonian             ... done
Setting up the integral package (SHARK)            ... done
Starting the Coulomb interaction                   ... done (   3.1 sec)
Making the grid                                    ... done (   1.5 sec)
Mapping shells                                     ... done
Starting the XC term evaluation                    ... done (   1.1 sec)
  promolecular density results
     # of electrons  =    283.000149778
     EX              =   -261.071715125
     EC              =     -9.958136168
     EX+EC           =   -271.029851294
Transforming the Hamiltonian                       ... done (   0.0 sec)
Diagonalizing the Hamiltonian                      ... done (   0.0 sec)
Back transforming the eigenvectors                 ... done (   0.0 sec)
Now organizing SCF variables                       ... done
                      ------------------
                      INITIAL GUESS DONE (   5.9 sec)
                      ------------------
             **** ENERGY FILE WAS UPDATED (/home/nmrbox/aojoawo/Documents/ERDOS/inputs/CHEMBL3687340.en.tmp) ****
Finished Guess after   6.2 sec
Maximum memory used throughout the entire GUESS-calculation: 74.4 MB

-------------------------------------------------------------------------------------------
                                      ORCA LEAN-SCF
                              memory conserving SCF solver
-------------------------------------------------------------------------------------------

----------------------------------------D-I-I-S--------------------------------------------
Iteration    Energy (Eh)           Delta-E    RMSDP     MaxDP     DIISErr   Damp  Time(sec)
-------------------------------------------------------------------------------------------
               ***  Starting incremental Fock matrix formation  ***
    1    -2440.1633188979903935     0.00e+00  2.56e-03  1.88e-01  3.17e-01  0.700  62.1
Warning: op=0 Small HOMO/LUMO gap (  -0.048) - skipping pre-diagonalization
         Will do a full diagonalization
    2    -2440.6982339702835816    -5.35e-01  1.58e-03  9.72e-02  1.23e-01  0.700  28.3
                               ***Turning on AO-DIIS***
    3    -2440.8949668120721981    -1.97e-01  6.49e-04  1.88e-02  3.50e-02  0.700  27.9
    4    -2441.0160981818244181    -1.21e-01  1.14e-03  3.85e-02  1.65e-02  0.000  25.4
    5    -2441.2859823247445092    -2.70e-01  2.64e-04  1.13e-02  8.18e-03  0.000  27.3
                              *** Initializing SOSCF ***
---------------------------------------S-O-S-C-F--------------------------------------
Iteration    Energy (Eh)           Delta-E    RMSDP     MaxDP     MaxGrad    Time(sec)
--------------------------------------------------------------------------------------
    6    -2441.2879619738650945    -1.98e-03  9.36e-05  4.33e-03  2.39e-03    23.2
               *** Restarting incremental Fock matrix formation ***
    7    -2441.2880591316134087    -9.72e-05  8.02e-05  3.46e-03  1.00e-03    62.9
    8    -2441.2880520811495444     7.05e-06  4.42e-05  2.03e-03  7.82e-04    36.0
    9    -2441.2881329504625683    -8.09e-05  1.92e-05  1.24e-03  3.02e-04    32.2
   10    -2441.2881297379208263     3.21e-06  1.11e-05  8.53e-04  3.08e-04    27.5
   11    -2441.2881371285002388    -7.39e-06  5.64e-06  2.46e-04  5.72e-05    23.9
   12    -2441.2881370930736011     3.54e-08  3.39e-06  1.35e-04  9.13e-05    22.6
                 **** Energy Check signals convergence ****

               *****************************************************
               *                     SUCCESS                       *
               *           SCF CONVERGED AFTER  12 CYCLES          *
               *****************************************************

Recomputing exchange energy using gridx3       ... done (  107.878 sec)
Old exchange energy                            :    -52.846610686 Eh
New exchange energy                            :    -52.846624877 Eh
Exchange energy change after final integration :     -0.000014191 Eh
Total energy after final integration           :  -2441.288151284 Eh
             **** ENERGY FILE WAS UPDATED (/home/nmrbox/aojoawo/Documents/ERDOS/inputs/CHEMBL3687340.en.tmp) ****

----------------
TOTAL SCF ENERGY
----------------

Total Energy       :      -2441.28815128416500 Eh          -66430.82787 eV

Components:
Nuclear Repulsion  :       4452.22083966759965 Eh          121151.08825 eV
Electronic Energy  :      -6893.50897676067325 Eh         -187581.91574 eV
One Electron Energy:     -12226.99599352476980 Eh         -332713.47581 eV
Two Electron Energy:       5333.48701676409655 Eh          145131.56007 eV

Virial components:
Potential Energy   :      -4871.09040936264500 Eh         -132549.10871 eV
Kinetic Energy     :       2429.80225807848046 Eh           66118.28083 eV
Virial Ratio       :          2.00472708969115

DFT components:
N(Alpha)           :      142.000198289752 electrons
N(Beta)            :      142.000198289752 electrons
N(Total)           :      284.000396579504 electrons
E(X)               :     -209.954169681461 Eh       
E(C)               :      -11.734513856860 Eh       
E(XC)              :     -221.688683538321 Eh       

---------------
SCF CONVERGENCE
---------------

  Last Energy change         ...   -3.5427e-08  Tolerance :   1.0000e-06
  Last MAX-Density change    ...    1.3470e-04  Tolerance :   1.0000e-05
  Last RMS-Density change    ...    3.3895e-06  Tolerance :   1.0000e-06
  Last DIIS Error            ...    2.3928e-03  Tolerance :   1.0000e-06
  Last Orbital Gradient      ...    9.1291e-05  Tolerance :   5.0000e-05
  Last Orbital Rotation      ...    2.7703e-04  Tolerance :   5.0000e-05


----------------
ORBITAL ENERGIES
----------------

  NO   OCC          E(Eh)            E(eV) 
   0   2.0000    -101.454054     -2760.7051 
   1   2.0000     -89.003834     -2421.9174 
   2   2.0000     -19.037262      -518.0302 
   3   2.0000     -19.029581      -517.8212 
   4   2.0000     -18.909883      -514.5641 
   5   2.0000     -18.889025      -513.9965 
   6   2.0000     -14.312244      -389.4560 
   7   2.0000     -14.287205      -388.7746 
   8   2.0000     -14.261890      -388.0858 
   9   2.0000     -10.190449      -277.2962 
  10   2.0000     -10.181715      -277.0585 
  11   2.0000     -10.167956      -276.6842 
  12   2.0000     -10.163939      -276.5748 
  13   2.0000     -10.158263      -276.4204 
  14   2.0000     -10.143830      -276.0277 
  15   2.0000     -10.143479      -276.0181 
  16   2.0000     -10.143324      -276.0139 
  17   2.0000     -10.142940      -276.0034 
  18   2.0000     -10.142458      -275.9903 
  19   2.0000     -10.137740      -275.8619 
  20   2.0000     -10.137643      -275.8593 
  21   2.0000     -10.136799      -275.8363 
  22   2.0000     -10.136373      -275.8247 
  23   2.0000     -10.135185      -275.7924 
  24   2.0000     -10.134687      -275.7789 
  25   2.0000     -10.119080      -275.3542 
  26   2.0000     -10.117156      -275.3018 
  27   2.0000     -10.116159      -275.2747 
  28   2.0000     -10.115681      -275.2617 
  29   2.0000     -10.112947      -275.1873 
  30   2.0000     -10.099629      -274.8249 
  31   2.0000     -10.097373      -274.7635 
  32   2.0000     -10.096532      -274.7406 
  33   2.0000     -10.095266      -274.7062 
  34   2.0000     -10.084322      -274.4084 
  35   2.0000     -10.078778      -274.2575 
  36   2.0000     -10.077354      -274.2187 
  37   2.0000     -10.076366      -274.1918 
  38   2.0000      -9.386027      -255.4068 
  39   2.0000      -8.039361      -218.7621 
  40   2.0000      -7.148821      -194.5293 
  41   2.0000      -7.139703      -194.2812 
  42   2.0000      -7.139530      -194.2765 
  43   2.0000      -6.004867      -163.4007 
  44   2.0000      -6.002603      -163.3391 
  45   2.0000      -6.001326      -163.3044 
  46   2.0000      -0.991163       -26.9709 
  47   2.0000      -0.936862       -25.4933 
  48   2.0000      -0.888960       -24.1898 
  49   2.0000      -0.869520       -23.6608 
  50   2.0000      -0.840996       -22.8847 
  51   2.0000      -0.819444       -22.2982 
  52   2.0000      -0.817456       -22.2441 
  53   2.0000      -0.803274       -21.8582 
  54   2.0000      -0.801328       -21.8052 
  55   2.0000      -0.760733       -20.7006 
  56   2.0000      -0.751901       -20.4603 
  57   2.0000      -0.742563       -20.2062 
  58   2.0000      -0.719452       -19.5773 
  59   2.0000      -0.712645       -19.3921 
  60   2.0000      -0.700334       -19.0570 
  61   2.0000      -0.687612       -18.7109 
  62   2.0000      -0.678342       -18.4586 
  63   2.0000      -0.662886       -18.0380 
  64   2.0000      -0.654114       -17.7994 
  65   2.0000      -0.647370       -17.6158 
  66   2.0000      -0.633366       -17.2348 
  67   2.0000      -0.616008       -16.7624 
  68   2.0000      -0.587103       -15.9759 
  69   2.0000      -0.581499       -15.8234 
  70   2.0000      -0.571453       -15.5500 
  71   2.0000      -0.553586       -15.0638 
  72   2.0000      -0.547690       -14.9034 
  73   2.0000      -0.533311       -14.5121 
  74   2.0000      -0.531004       -14.4494 
  75   2.0000      -0.509818       -13.8728 
  76   2.0000      -0.505572       -13.7573 
  77   2.0000      -0.503363       -13.6972 
  78   2.0000      -0.495249       -13.4764 
  79   2.0000      -0.473835       -12.8937 
  80   2.0000      -0.469944       -12.7878 
  81   2.0000      -0.459982       -12.5168 
  82   2.0000      -0.438795       -11.9402 
  83   2.0000      -0.435944       -11.8627 
  84   2.0000      -0.431872       -11.7518 
  85   2.0000      -0.422793       -11.5048 
  86   2.0000      -0.419145       -11.4055 
  87   2.0000      -0.412043       -11.2123 
  88   2.0000      -0.397865       -10.8265 
  89   2.0000      -0.391237       -10.6461 
  90   2.0000      -0.388119       -10.5613 
  91   2.0000      -0.386805       -10.5255 
  92   2.0000      -0.382852       -10.4179 
  93   2.0000      -0.368960       -10.0399 
  94   2.0000      -0.367472        -9.9994 
  95   2.0000      -0.366248        -9.9661 
  96   2.0000      -0.362242        -9.8571 
  97   2.0000      -0.359979        -9.7955 
  98   2.0000      -0.353286        -9.6134 
  99   2.0000      -0.344066        -9.3625 
 100   2.0000      -0.340332        -9.2609 
 101   2.0000      -0.339689        -9.2434 
 102   2.0000      -0.336476        -9.1560 
 103   2.0000      -0.332498        -9.0477 
 104   2.0000      -0.328356        -8.9350 
 105   2.0000      -0.327587        -8.9141 
 106   2.0000      -0.323309        -8.7977 
 107   2.0000      -0.321208        -8.7405 
 108   2.0000      -0.315914        -8.5965 
 109   2.0000      -0.305548        -8.3144 
 110   2.0000      -0.299978        -8.1628 
 111   2.0000      -0.299609        -8.1528 
 112   2.0000      -0.294825        -8.0226 
 113   2.0000      -0.289275        -7.8716 
 114   2.0000      -0.287859        -7.8330 
 115   2.0000      -0.280463        -7.6318 
 116   2.0000      -0.276012        -7.5107 
 117   2.0000      -0.255654        -6.9567 
 118   2.0000      -0.249406        -6.7867 
 119   2.0000      -0.248502        -6.7621 
 120   2.0000      -0.243231        -6.6187 
 121   2.0000      -0.237280        -6.4567 
 122   2.0000      -0.233005        -6.3404 
 123   2.0000      -0.230162        -6.2630 
 124   2.0000      -0.226685        -6.1684 
 125   2.0000      -0.215900        -5.8749 
 126   2.0000      -0.210073        -5.7164 
 127   2.0000      -0.206936        -5.6310 
 128   2.0000      -0.201730        -5.4894 
 129   2.0000      -0.199301        -5.4233 
 130   2.0000      -0.189102        -5.1457 
 131   2.0000      -0.184040        -5.0080 
 132   2.0000      -0.180118        -4.9013 
 133   2.0000      -0.174540        -4.7495 
 134   2.0000      -0.158444        -4.3115 
 135   2.0000      -0.153556        -4.1785 
 136   2.0000      -0.146120        -3.9761 
 137   2.0000      -0.133355        -3.6288 
 138   2.0000      -0.123882        -3.3710 
 139   2.0000      -0.064072        -1.7435 
 140   2.0000      -0.042351        -1.1524 
 141   2.0000      -0.025720        -0.6999 
 142   0.0000       0.002015         0.0548 
 143   0.0000       0.034176         0.9300 
 144   0.0000       0.054166         1.4739 
 145   0.0000       0.063070         1.7162 
 146   0.0000       0.082993         2.2583 
 147   0.0000       0.090611         2.4657 
 148   0.0000       0.096605         2.6288 
 149   0.0000       0.109844         2.9890 
 150   0.0000       0.118302         3.2192 
 151   0.0000       0.123291         3.3549 
 152   0.0000       0.126554         3.4437 
*Only the first 10 virtual orbitals were printed.

                    ********************************
                    * MULLIKEN POPULATION ANALYSIS *
                    ********************************

-----------------------
MULLIKEN ATOMIC CHARGES
-----------------------
   0 C :   -0.542595
   1 C :    0.102320
   2 C :    0.289060
   3 N :   -0.602070
   4 C :   -0.232253
   5 C :    0.302556
   6 C :   -0.252490
   7 C :    0.143408
   8 C :   -0.205090
   9 C :   -0.085420
  10 Cl:   -0.065210
  11 C :   -0.155018
  12 C :   -0.174080
  13 C :    0.288012
  14 N :   -0.487751
  15 C :    0.007354
  16 C :   -0.319407
  17 C :   -0.321851
  18 S :    1.199683
  19 O :   -0.538519
  20 O :   -0.567589
  21 C :   -0.138866
  22 C :   -0.162460
  23 C :   -0.150187
  24 C :    0.104699
  25 C :    0.410427
  26 O :   -0.551458
  27 O :   -0.657930
  28 C :   -0.162321
  29 C :   -0.155362
  30 N :   -0.349832
  31 C :   -0.059989
  32 C :    0.138522
  33 C :   -0.203304
  34 C :   -0.128093
  35 C :   -0.122186
  36 C :   -0.196687
  37 C :    0.119576
  38 H :    0.184560
  39 H :    0.143801
  40 H :    0.187774
  41 H :    0.171673
  42 H :    0.166619
  43 H :    0.149879
  44 H :    0.135354
  45 H :    0.124142
  46 H :    0.129451
  47 H :    0.192149
  48 H :    0.161299
  49 H :    0.163469
  50 H :    0.153847
  51 H :    0.172805
  52 H :    0.138317
  53 H :    0.150969
  54 H :    0.146982
  55 H :    0.144673
  56 H :    0.144255
  57 H :    0.129361
  58 H :    0.122454
  59 H :    0.128175
  60 H :    0.140394
Sum of atomic charges:   -1.0000000

--------------------------------
MULLIKEN REDUCED ORBITAL CHARGES
--------------------------------
  0 C s       :     3.321213  s :     3.321213
      pz      :     1.018580  p :     3.187248
      px      :     1.110722
      py      :     1.057946
      dz2     :     0.008178  d :     0.034134
      dxz     :     0.003769
      dyz     :     0.009150
      dx2y2   :     0.005716
      dxy     :     0.007321

  1 C s       :     3.182134  s :     3.182134
      pz      :     0.868682  p :     2.675849
      px      :     0.907120
      py      :     0.900047
      dz2     :     0.008880  d :     0.039698
      dxz     :     0.008334
      dyz     :     0.008726
      dx2y2   :     0.006991
      dxy     :     0.006767

  2 C s       :     3.061631  s :     3.061631
      pz      :     0.871551  p :     2.574459
      px      :     0.884896
      py      :     0.818012
      dz2     :     0.017954  d :     0.074850
      dxz     :     0.014886
      dyz     :     0.017195
      dx2y2   :     0.012163
      dxy     :     0.012653

  3 N s       :     3.587258  s :     3.587258
      pz      :     1.481881  p :     3.982529
      px      :     1.326584
      py      :     1.174064
      dz2     :     0.004501  d :     0.032283
      dxz     :     0.005205
      dyz     :     0.006502
      dx2y2   :     0.008671
      dxy     :     0.007404

  4 C s       :     3.237591  s :     3.237591
      pz      :     0.956928  p :     2.938714
      px      :     0.881804
      py      :     1.099983
      dz2     :     0.007547  d :     0.055948
      dxz     :     0.014907
      dyz     :     0.013303
      dx2y2   :     0.015088
      dxy     :     0.005103

  5 C s       :     3.051768  s :     3.051768
      pz      :     0.932982  p :     2.587327
      px      :     0.752294
      py      :     0.902051
      dz2     :     0.010523  d :     0.058349
      dxz     :     0.014401
      dyz     :     0.006259
      dx2y2   :     0.013215
      dxy     :     0.013951

  6 C s       :     3.194988  s :     3.194988
      pz      :     1.001316  p :     3.020392
      px      :     0.988022
      py      :     1.031053
      dz2     :     0.007504  d :     0.037111
      dxz     :     0.007082
      dyz     :     0.006443
      dx2y2   :     0.006928
      dxy     :     0.009154

  7 C s       :     3.093898  s :     3.093898
      pz      :     0.896599  p :     2.715394
      px      :     0.878851
      py      :     0.939945
      dz2     :     0.008648  d :     0.047300
      dxz     :     0.012246
      dyz     :     0.007806
      dx2y2   :     0.009604
      dxy     :     0.008995

  8 C s       :     3.199182  s :     3.199182
      pz      :     1.021571  p :     2.970123
      px      :     0.943550
      py      :     1.005002
      dz2     :     0.006147  d :     0.035784
      dxz     :     0.007921
      dyz     :     0.007632
      dx2y2   :     0.006474
      dxy     :     0.007610

  9 C s       :     3.196860  s :     3.196860
      pz      :     0.886602  p :     2.840602
      px      :     0.948567
      py      :     1.005432
      dz2     :     0.009311  d :     0.047959
      dxz     :     0.012087
      dyz     :     0.007750
      dx2y2   :     0.009621
      dxy     :     0.009189

 10 Cls       :     5.924579  s :     5.924579
      pz      :     3.511935  p :    11.110981
      px      :     3.736584
      py      :     3.862462
      dz2     :     0.007728  d :     0.029650
      dxz     :     0.010067
      dyz     :     0.005848
      dx2y2   :     0.001993
      dxy     :     0.004014

 11 C s       :     3.197738  s :     3.197738
      pz      :     0.962473  p :     2.922288
      px      :     0.986667
      py      :     0.973148
      dz2     :     0.008224  d :     0.034992
      dxz     :     0.006829
      dyz     :     0.006077
      dx2y2   :     0.007375
      dxy     :     0.006488

 12 C s       :     3.171883  s :     3.171883
      pz      :     0.978062  p :     2.966226
      px      :     0.999547
      py      :     0.988617
      dz2     :     0.006056  d :     0.035971
      dxz     :     0.007488
      dyz     :     0.007577
      dx2y2   :     0.006878
      dxy     :     0.007972

 13 C s       :     3.019279  s :     3.019279
      pz      :     0.872699  p :     2.630560
      px      :     0.799464
      py      :     0.958398
      dz2     :     0.013749  d :     0.062148
      dxz     :     0.015989
      dyz     :     0.008085
      dx2y2   :     0.011371
      dxy     :     0.012953

 14 N s       :     3.601092  s :     3.601092
      pz      :     1.318705  p :     3.839277
      px      :     1.227450
      py      :     1.293121
      dz2     :     0.008772  d :     0.047382
      dxz     :     0.011139
      dyz     :     0.008104
      dx2y2   :     0.008746
      dxy     :     0.010620

 15 C s       :     3.158064  s :     3.158064
      pz      :     0.783412  p :     2.776011
      px      :     1.033999
      py      :     0.958600
      dz2     :     0.014842  d :     0.058571
      dxz     :     0.010407
      dyz     :     0.015351
      dx2y2   :     0.012187
      dxy     :     0.005785

 16 C s       :     3.275667  s :     3.275667
      pz      :     0.958915  p :     3.003635
      px      :     0.998709
      py      :     1.046010
      dz2     :     0.009141  d :     0.040105
      dxz     :     0.008339
      dyz     :     0.007532
      dx2y2   :     0.009855
      dxy     :     0.005239

 17 C s       :     3.275022  s :     3.275022
      pz      :     1.057445  p :     3.006738
      px      :     0.884431
      py      :     1.064861
      dz2     :     0.006367  d :     0.040092
      dxz     :     0.009832
      dyz     :     0.004159
      dx2y2   :     0.009919
      dxy     :     0.009814

 18 S s       :     5.226412  s :     5.226412
      pz      :     3.023112  p :     9.038856
      px      :     3.018641
      py      :     2.997103
      dz2     :     0.103004  d :     0.535049
      dxz     :     0.116163
      dyz     :     0.117604
      dx2y2   :     0.094579
      dxy     :     0.103699

 19 O s       :     3.923978  s :     3.923978
      pz      :     1.222465  p :     4.587846
      px      :     1.690117
      py      :     1.675265
      dz2     :     0.010049  d :     0.026694
      dxz     :     0.007434
      dyz     :     0.007260
      dx2y2   :     0.001082
      dxy     :     0.000869

 20 O s       :     3.919214  s :     3.919214
      pz      :     1.690466  p :     4.622190
      px      :     1.374049
      py      :     1.557674
      dz2     :     0.002966  d :     0.026184
      dxz     :     0.005433
      dyz     :     0.002361
      dx2y2   :     0.007573
      dxy     :     0.007852

 21 C s       :     3.213860  s :     3.213860
      pz      :     1.034293  p :     2.886277
      px      :     0.887338
      py      :     0.964646
      dz2     :     0.005229  d :     0.038729
      dxz     :     0.008772
      dyz     :     0.005163
      dx2y2   :     0.007980
      dxy     :     0.011584

 22 C s       :     3.203790  s :     3.203790
      pz      :     0.959197  p :     2.922011
      px      :     1.013378
      py      :     0.949435
      dz2     :     0.007545  d :     0.036659
      dxz     :     0.005103
      dyz     :     0.005664
      dx2y2   :     0.011299
      dxy     :     0.007047

 23 C s       :     3.219060  s :     3.219060
      pz      :     0.950490  p :     2.895576
      px      :     0.986359
      py      :     0.958727
      dz2     :     0.003761  d :     0.035551
      dxz     :     0.007729
      dyz     :     0.006007
      dx2y2   :     0.008801
      dxy     :     0.009252

 24 C s       :     3.210242  s :     3.210242
      pz      :     0.886995  p :     2.645085
      px      :     0.884287
      py      :     0.873804
      dz2     :     0.005975  d :     0.039973
      dxz     :     0.008216
      dyz     :     0.005671
      dx2y2   :     0.010355
      dxy     :     0.009755

 25 C s       :     3.003039  s :     3.003039
      pz      :     0.833842  p :     2.474078
      px      :     0.836535
      py      :     0.803701
      dz2     :     0.012581  d :     0.112456
      dxz     :     0.026639
      dyz     :     0.012357
      dx2y2   :     0.028441
      dxy     :     0.032439

 26 O s       :     3.843012  s :     3.843012
      pz      :     1.620081  p :     4.685433
      px      :     1.396116
      py      :     1.669236
      dz2     :     0.002395  d :     0.023013
      dxz     :     0.006646
      dyz     :     0.000464
      dx2y2   :     0.006925
      dxy     :     0.006583

 27 O s       :     3.910665  s :     3.910665
      pz      :     1.489929  p :     4.730171
      px      :     1.820797
      py      :     1.419445
      dz2     :     0.003326  d :     0.017094
      dxz     :     0.001556
      dyz     :     0.005927
      dx2y2   :     0.003841
      dxy     :     0.002444

 28 C s       :     3.217764  s :     3.217764
      pz      :     0.970607  p :     2.909092
      px      :     0.950766
      py      :     0.987719
      dz2     :     0.005987  d :     0.035466
      dxz     :     0.006001
      dyz     :     0.005131
      dx2y2   :     0.009517
      dxy     :     0.008830

 29 C s       :     3.199409  s :     3.199409
      pz      :     0.992429  p :     2.919221
      px      :     0.916507
      py      :     1.010284
      dz2     :     0.003854  d :     0.036733
      dxz     :     0.007991
      dyz     :     0.006499
      dx2y2   :     0.009922
      dxy     :     0.008467

 30 N s       :     3.694910  s :     3.694910
      pz      :     1.278800  p :     3.619364
      px      :     1.286906
      py      :     1.053659
      dz2     :     0.009782  d :     0.035557
      dxz     :     0.005405
      dyz     :     0.006677
      dx2y2   :     0.006388
      dxy     :     0.007306

 31 C s       :     3.161929  s :     3.161929
      pz      :     0.972860  p :     2.844129
      px      :     0.948062
      py      :     0.923207
      dz2     :     0.010940  d :     0.053931
      dxz     :     0.009066
      dyz     :     0.014333
      dx2y2   :     0.010056
      dxy     :     0.009536

 32 C s       :     3.138271  s :     3.138271
      pz      :     0.866423  p :     2.681376
      px      :     0.902858
      py      :     0.912095
      dz2     :     0.009592  d :     0.041832
      dxz     :     0.008786
      dyz     :     0.009354
      dx2y2   :     0.007392
      dxy     :     0.006707

 33 C s       :     3.209532  s :     3.209532
      pz      :     0.976351  p :     2.957424
      px      :     0.985711
      py      :     0.995362
      dz2     :     0.008747  d :     0.036348
      dxz     :     0.005769
      dyz     :     0.009345
      dx2y2   :     0.006545
      dxy     :     0.005942

 34 C s       :     3.190212  s :     3.190212
      pz      :     0.940161  p :     2.901445
      px      :     0.982332
      py      :     0.978953
      dz2     :     0.010098  d :     0.036436
      dxz     :     0.007541
      dyz     :     0.007639
      dx2y2   :     0.003338
      dxy     :     0.007820

 35 C s       :     3.193560  s :     3.193560
      pz      :     0.949308  p :     2.892035
      px      :     0.977235
      py      :     0.965492
      dz2     :     0.007472  d :     0.036591
      dxz     :     0.009791
      dyz     :     0.008188
      dx2y2   :     0.005565
      dxy     :     0.005576

 36 C s       :     3.208329  s :     3.208329
      pz      :     0.993840  p :     2.952747
      px      :     0.986763
      py      :     0.972144
      dz2     :     0.008828  d :     0.035611
      dxz     :     0.006152
      dyz     :     0.008783
      dx2y2   :     0.006399
      dxy     :     0.005450

 37 C s       :     3.137176  s :     3.137176
      pz      :     0.867957  p :     2.701761
      px      :     0.922435
      py      :     0.911370
      dz2     :     0.009608  d :     0.041486
      dxz     :     0.008247
      dyz     :     0.009643
      dx2y2   :     0.007193
      dxy     :     0.006796

 38 H s       :     0.815440  s :     0.815440

 39 H s       :     0.856199  s :     0.856199

 40 H s       :     0.812226  s :     0.812226

 41 H s       :     0.828327  s :     0.828327

 42 H s       :     0.833381  s :     0.833381

 43 H s       :     0.850121  s :     0.850121

 44 H s       :     0.864646  s :     0.864646

 45 H s       :     0.875858  s :     0.875858

 46 H s       :     0.870549  s :     0.870549

 47 H s       :     0.807851  s :     0.807851

 48 H s       :     0.838701  s :     0.838701

 49 H s       :     0.836531  s :     0.836531

 50 H s       :     0.846153  s :     0.846153

 51 H s       :     0.827195  s :     0.827195

 52 H s       :     0.861683  s :     0.861683

 53 H s       :     0.849031  s :     0.849031

 54 H s       :     0.853018  s :     0.853018

 55 H s       :     0.855327  s :     0.855327

 56 H s       :     0.855745  s :     0.855745

 57 H s       :     0.870639  s :     0.870639

 58 H s       :     0.877546  s :     0.877546

 59 H s       :     0.871825  s :     0.871825

 60 H s       :     0.859606  s :     0.859606



                     *******************************
                     * LOEWDIN POPULATION ANALYSIS *
                     *******************************

----------------------
LOEWDIN ATOMIC CHARGES
----------------------
   0 C :   -0.361504
   1 C :   -0.018204
   2 C :    0.028316
   3 N :   -0.286412
   4 C :   -0.150357
   5 C :    0.010690
   6 C :   -0.184745
   7 C :   -0.032955
   8 C :   -0.138606
   9 C :   -0.107020
  10 Cl:    0.002587
  11 C :   -0.161023
  12 C :   -0.148827
  13 C :    0.009663
  14 N :    0.025748
  15 C :   -0.066450
  16 C :   -0.256458
  17 C :   -0.255955
  18 S :    1.268563
  19 O :   -0.567991
  20 O :   -0.589456
  21 C :   -0.215220
  22 C :   -0.131954
  23 C :   -0.109042
  24 C :   -0.004492
  25 C :    0.070886
  26 O :   -0.377028
  27 O :   -0.506351
  28 C :   -0.115548
  29 C :   -0.127065
  30 N :   -0.107383
  31 C :   -0.064635
  32 C :   -0.031038
  33 C :   -0.115331
  34 C :   -0.133970
  35 C :   -0.123584
  36 C :   -0.122205
  37 C :   -0.008048
  38 H :    0.148700
  39 H :    0.128214
  40 H :    0.148091
  41 H :    0.136224
  42 H :    0.142233
  43 H :    0.145545
  44 H :    0.139002
  45 H :    0.132552
  46 H :    0.134203
  47 H :    0.148924
  48 H :    0.138679
  49 H :    0.139878
  50 H :    0.135554
  51 H :    0.145355
  52 H :    0.136912
  53 H :    0.149753
  54 H :    0.146524
  55 H :    0.138824
  56 H :    0.133583
  57 H :    0.132711
  58 H :    0.129146
  59 H :    0.132141
  60 H :    0.139651

-------------------------------
LOEWDIN REDUCED ORBITAL CHARGES
-------------------------------
  0 C s       :     2.972591  s :     2.972591
      pz      :     1.068251  p :     3.322411
      px      :     1.144121
      py      :     1.110040
      dz2     :     0.016786  d :     0.066502
      dxz     :     0.007534
      dyz     :     0.018407
      dx2y2   :     0.010214
      dxy     :     0.013561

  1 C s       :     2.889359  s :     2.889359
      pz      :     1.027947  p :     3.031306
      px      :     0.994305
      py      :     1.009054
      dz2     :     0.021803  d :     0.097538
      dxz     :     0.021305
      dyz     :     0.021959
      dx2y2   :     0.015842
      dxy     :     0.016628

  2 C s       :     2.848898  s :     2.848898
      pz      :     1.021259  p :     2.944173
      px      :     0.979575
      py      :     0.943340
      dz2     :     0.044091  d :     0.178612
      dxz     :     0.035854
      dyz     :     0.041234
      dx2y2   :     0.026998
      dxy     :     0.030434

  3 N s       :     3.168337  s :     3.168337
      pz      :     1.486359  p :     4.035526
      px      :     1.321341
      py      :     1.227826
      dz2     :     0.010748  d :     0.082549
      dxz     :     0.012089
      dyz     :     0.017725
      dx2y2   :     0.022806
      dxy     :     0.019181

  4 C s       :     2.917753  s :     2.917753
      pz      :     1.023803  p :     3.113632
      px      :     0.967010
      py      :     1.122819
      dz2     :     0.015669  d :     0.118972
      dxz     :     0.034802
      dyz     :     0.026146
      dx2y2   :     0.032067
      dxy     :     0.010289

  5 C s       :     2.862536  s :     2.862536
      pz      :     1.031393  p :     2.988844
      px      :     0.960922
      py      :     0.996529
      dz2     :     0.024691  d :     0.137930
      dxz     :     0.033226
      dyz     :     0.015959
      dx2y2   :     0.031154
      dxy     :     0.032899

  6 C s       :     2.901590  s :     2.901590
      pz      :     1.060365  p :     3.196755
      px      :     1.055971
      py      :     1.080419
      dz2     :     0.017481  d :     0.086400
      dxz     :     0.017455
      dyz     :     0.015616
      dx2y2   :     0.016168
      dxy     :     0.019681

  7 C s       :     2.833157  s :     2.833157
      pz      :     1.019977  p :     3.076712
      px      :     1.042371
      py      :     1.014363
      dz2     :     0.021609  d :     0.123085
      dxz     :     0.032216
      dyz     :     0.020499
      dx2y2   :     0.025821
      dxy     :     0.022940

  8 C s       :     2.913488  s :     2.913488
      pz      :     1.052159  p :     3.141284
      px      :     1.039844
      py      :     1.049281
      dz2     :     0.014367  d :     0.083834
      dxz     :     0.020226
      dyz     :     0.015089
      dx2y2   :     0.016770
      dxy     :     0.017381

  9 C s       :     2.917580  s :     2.917580
      pz      :     0.973362  p :     3.077583
      px      :     1.041063
      py      :     1.063159
      dz2     :     0.020797  d :     0.111856
      dxz     :     0.028428
      dyz     :     0.017759
      dx2y2   :     0.022756
      dxy     :     0.022117

 10 Cls       :     5.798716  s :     5.798716
      pz      :     3.552051  p :    11.165991
[...]
      dx2y2   :     0.012936
      dxy     :     0.017144

 31 C s       :     2.911515  s :     2.911515
      pz      :     1.053181  p :     3.029362
      px      :     0.987606
      py      :     0.988576
      dz2     :     0.023908  d :     0.123757
      dxz     :     0.022214
      dyz     :     0.031714
      dx2y2   :     0.021044
      dxy     :     0.024877

 32 C s       :     2.858729  s :     2.858729
      pz      :     1.042011  p :     3.063295
      px      :     1.008878
      py      :     1.012405
      dz2     :     0.025547  d :     0.109014
      dxz     :     0.023654
      dyz     :     0.024834
      dx2y2   :     0.016985
      dxy     :     0.017995

 33 C s       :     2.915740  s :     2.915740
      pz      :     1.061327  p :     3.114787
      px      :     1.023786
      py      :     1.029675
      dz2     :     0.019442  d :     0.084804
      dxz     :     0.015287
      dyz     :     0.020271
      dx2y2   :     0.014590
      dxy     :     0.015214

 34 C s       :     2.916174  s :     2.916174
      pz      :     1.061545  p :     3.131716
      px      :     1.032705
      py      :     1.037466
      dz2     :     0.025537  d :     0.086080
      dxz     :     0.019730
      dyz     :     0.019064
      dx2y2   :     0.006959
      dxy     :     0.014790

 35 C s       :     2.917371  s :     2.917371
      pz      :     1.059003  p :     3.120019
      px      :     1.026012
      py      :     1.035004
      dz2     :     0.018631  d :     0.086194
      dxz     :     0.020676
      dyz     :     0.021133
      dx2y2   :     0.012399
      dxy     :     0.013356

 36 C s       :     2.917170  s :     2.917170
      pz      :     1.062619  p :     3.122415
      px      :     1.024339
      py      :     1.035458
      dz2     :     0.019733  d :     0.082619
      dxz     :     0.014835
      dyz     :     0.019043
      dx2y2   :     0.013969
      dxy     :     0.015039

 37 C s       :     2.856169  s :     2.856169
      pz      :     1.033220  p :     3.045556
      px      :     1.003290
      py      :     1.009047
      dz2     :     0.025503  d :     0.106323
      dxz     :     0.022030
      dyz     :     0.025277
      dx2y2   :     0.016302
      dxy     :     0.017211

 38 H s       :     0.851300  s :     0.851300

 39 H s       :     0.871786  s :     0.871786

 40 H s       :     0.851909  s :     0.851909

 41 H s       :     0.863776  s :     0.863776

 42 H s       :     0.857767  s :     0.857767

 43 H s       :     0.854455  s :     0.854455

 44 H s       :     0.860998  s :     0.860998

 45 H s       :     0.867448  s :     0.867448

 46 H s       :     0.865797  s :     0.865797

 47 H s       :     0.851076  s :     0.851076

 48 H s       :     0.861321  s :     0.861321

 49 H s       :     0.860122  s :     0.860122

 50 H s       :     0.864446  s :     0.864446

 51 H s       :     0.854645  s :     0.854645

 52 H s       :     0.863088  s :     0.863088

 53 H s       :     0.850247  s :     0.850247

 54 H s       :     0.853476  s :     0.853476

 55 H s       :     0.861176  s :     0.861176

 56 H s       :     0.866417  s :     0.866417

 57 H s       :     0.867289  s :     0.867289

 58 H s       :     0.870854  s :     0.870854

 59 H s       :     0.867859  s :     0.867859

 60 H s       :     0.860349  s :     0.860349



                      *****************************
                      * MAYER POPULATION ANALYSIS *
                      *****************************

  NA   - Mulliken gross atomic population
  ZA   - Total nuclear charge
  QA   - Mulliken gross atomic charge
  VA   - Mayer's total valence
  BVA  - Mayer's bonded valence
  FA   - Mayer's free valence

  ATOM       NA         ZA         QA         VA         BVA        FA
  0 C      6.5426     6.0000    -0.5426     3.8225     3.8225    -0.0000
  1 C      5.8977     6.0000     0.1023     3.8461     3.8461    -0.0000
  2 C      5.7109     6.0000     0.2891     3.8915     3.8915    -0.0000
  3 N      7.6021     7.0000    -0.6021     2.7793     2.7793     0.0000
  4 C      6.2323     6.0000    -0.2323     3.8371     3.8371     0.0000
  5 C      5.6974     6.0000     0.3026     3.7658     3.7658     0.0000
  6 C      6.2525     6.0000    -0.2525     3.8490     3.8490     0.0000
  7 C      5.8566     6.0000     0.1434     4.0983     4.0983    -0.0000
  8 C      6.2051     6.0000    -0.2051     3.8620     3.8620     0.0000
  9 C      6.0854     6.0000    -0.0854     3.8949     3.8949    -0.0000
 10 Cl    17.0652    17.0000    -0.0652     1.0498     1.0498    -0.0000
 11 C      6.1550     6.0000    -0.1550     3.9179     3.9179     0.0000
 12 C      6.1741     6.0000    -0.1741     3.8720     3.8720     0.0000
 13 C      5.7120     6.0000     0.2880     3.8766     3.8766     0.0000
 14 N      7.4878     7.0000    -0.4878     3.2955     3.2955     0.0000
 15 C      5.9926     6.0000     0.0074     3.7966     3.7966     0.0000
 16 C      6.3194     6.0000    -0.3194     3.7958     3.7958     0.0000
 17 C      6.3219     6.0000    -0.3219     3.7925     3.7925     0.0000
 18 S     14.8003    16.0000     1.1997     5.0691     5.0691    -0.0000
 19 O      8.5385     8.0000    -0.5385     1.9000     1.9000     0.0000
 20 O      8.5676     8.0000    -0.5676     1.8635     1.8635    -0.0000
 21 C      6.1389     6.0000    -0.1389     3.8056     3.8056     0.0000
 22 C      6.1625     6.0000    -0.1625     3.8925     3.8925     0.0000
 23 C      6.1502     6.0000    -0.1502     3.8690     3.8690    -0.0000
 24 C      5.8953     6.0000     0.1047     3.8381     3.8381    -0.0000
 25 C      5.5896     6.0000     0.4104     4.2072     4.2072     0.0000
 26 O      8.5515     8.0000    -0.5515     1.9565     1.9565     0.0000
 27 O      8.6579     8.0000    -0.6579     1.8363     1.8363    -0.0000
 28 C      6.1623     6.0000    -0.1623     3.8768     3.8768     0.0000
 29 C      6.1554     6.0000    -0.1554     3.9006     3.9006    -0.0000
 30 N      7.3498     7.0000    -0.3498     2.9838     2.9838     0.0000
 31 C      6.0600     6.0000    -0.0600     3.8623     3.8623     0.0000
 32 C      5.8615     6.0000     0.1385     3.9477     3.9477    -0.0000
 33 C      6.2033     6.0000    -0.2033     3.9026     3.9026    -0.0000
 34 C      6.1281     6.0000    -0.1281     3.9279     3.9279    -0.0000
 35 C      6.1222     6.0000    -0.1222     3.9282     3.9282     0.0000
 36 C      6.1967     6.0000    -0.1967     3.8753     3.8753    -0.0000
 37 C      5.8804     6.0000     0.1196     3.9965     3.9965    -0.0000
 38 H      0.8154     1.0000     0.1846     0.9294     0.9294    -0.0000
 39 H      0.8562     1.0000     0.1438     0.9319     0.9319     0.0000
 40 H      0.8122     1.0000     0.1878     0.9343     0.9343    -0.0000
 41 H      0.8283     1.0000     0.1717     0.9345     0.9345     0.0000
 42 H      0.8334     1.0000     0.1666     0.9327     0.9327     0.0000
 43 H      0.8501     1.0000     0.1499     0.9554     0.9554     0.0000
 44 H      0.8646     1.0000     0.1354     0.9402     0.9402     0.0000
 45 H      0.8759     1.0000     0.1241     0.9442     0.9442     0.0000
 46 H      0.8705     1.0000     0.1295     0.9419     0.9419     0.0000
 47 H      0.8079     1.0000     0.1921     0.9290     0.9290     0.0000
 48 H      0.8387     1.0000     0.1613     0.9418     0.9418     0.0000
 49 H      0.8365     1.0000     0.1635     0.9458     0.9458    -0.0000
 50 H      0.8462     1.0000     0.1538     0.9436     0.9436     0.0000
 51 H      0.8272     1.0000     0.1728     0.9450     0.9450     0.0000
 52 H      0.8617     1.0000     0.1383     0.9470     0.9470     0.0000
 53 H      0.8490     1.0000     0.1510     0.9650     0.9650     0.0000
 54 H      0.8530     1.0000     0.1470     0.9589     0.9589    -0.0000
 55 H      0.8553     1.0000     0.1447     0.9432     0.9432     0.0000
 56 H      0.8557     1.0000     0.1443     0.9349     0.9349     0.0000
 57 H      0.8706     1.0000     0.1294     0.9386     0.9386    -0.0000
 58 H      0.8775     1.0000     0.1225     0.9386     0.9386     0.0000
 59 H      0.8718     1.0000     0.1282     0.9379     0.9379    -0.0000
 60 H      0.8596     1.0000     0.1404     0.9423     0.9423    -0.0000

  Mayer bond orders larger than 0.100000
B(  0-C ,  1-C ) :   0.9986 B(  0-C , 38-H ) :   0.9231 B(  0-C , 39-H ) :   0.9280 
B(  0-C , 40-H ) :   0.9249 B(  1-C ,  2-C ) :   1.4215 B(  1-C , 31-C ) :   0.1033 
B(  1-C , 37-C ) :   1.2635 B(  2-C ,  3-N ) :   0.9120 B(  2-C , 30-N ) :   1.2914 
B(  3-N ,  4-C ) :   0.9450 B(  3-N , 18-S ) :   0.7659 B(  4-C ,  5-C ) :   0.9597 
B(  4-C , 41-H ) :   0.9144 B(  4-C , 42-H ) :   0.9180 B(  5-C ,  6-C ) :   1.5214 
B(  5-C , 14-N ) :   1.1151 B(  6-C ,  7-C ) :   1.2837 B(  6-C , 43-H ) :   0.9145 
B(  7-C ,  8-C ) :   1.3277 B(  7-C , 13-C ) :   1.3075 B(  8-C ,  9-C ) :   1.4330 
B(  8-C , 44-H ) :   0.9232 B(  9-C , 10-Cl) :   0.9732 B(  9-C , 11-C ) :   1.3541 
B( 11-C , 12-C ) :   1.4587 B( 11-C , 45-H ) :   0.9294 B( 12-C , 13-C ) :   1.3610 
B( 12-C , 46-H ) :   0.9152 B( 13-C , 14-N ) :   1.0305 B( 14-N , 15-C ) :   0.9753 
B( 15-C , 16-C ) :   0.9362 B( 15-C , 17-C ) :   0.9344 B( 15-C , 47-H ) :   0.9088 
B( 16-C , 17-C ) :   0.9633 B( 16-C , 48-H ) :   0.9405 B( 16-C , 49-H ) :   0.9414 
B( 17-C , 50-H ) :   0.9425 B( 17-C , 51-H ) :   0.9377 B( 18-S , 19-O ) :   1.6708 
B( 18-S , 20-O ) :   1.5988 B( 18-S , 21-C ) :   0.8448 B( 21-C , 22-C ) :   1.3660 
B( 21-C , 29-C ) :   1.3626 B( 22-C , 23-C ) :   1.3985 B( 22-C , 52-H ) :   0.9211 
B( 23-C , 24-C ) :   1.4053 B( 23-C , 53-H ) :   0.9014 B( 24-C , 25-C ) :   0.9271 
B( 24-C , 28-C ) :   1.3855 B( 25-C , 26-O ) :   1.7078 B( 25-C , 27-O ) :   1.5498 
B( 26-O , 27-O ) :   0.1481 B( 28-C , 29-C ) :   1.4135 B( 28-C , 54-H ) :   0.9075 
B( 29-C , 55-H ) :   0.9197 B( 30-N , 31-C ) :   1.5010 B( 31-C , 32-C ) :   1.2275 
B( 31-C , 56-H ) :   0.9283 B( 32-C , 33-C ) :   1.2845 B( 32-C , 37-C ) :   1.2922 
B( 33-C , 34-C ) :   1.5135 B( 33-C , 36-C ) :   0.1065 B( 33-C , 57-H ) :   0.9245 
B( 34-C , 35-C ) :   1.3520 B( 34-C , 58-H ) :   0.9315 B( 35-C , 36-C ) :   1.5111 
B( 35-C , 59-H ) :   0.9306 B( 36-C , 37-C ) :   1.2934 B( 36-C , 60-H ) :   0.9157 


-------
TIMINGS
-------

Total SCF time: 0 days 0 hours 8 min 27 sec 

Total time                  ....     507.960 sec
Sum of individual times     ....     507.591 sec  ( 99.9%)

SCF preparation             ....       0.378 sec  (  0.1%)
Fock matrix formation       ....     504.429 sec  ( 99.3%)
  Startup                   ....       0.120 sec  (  0.0% of F)
  Split-RI-J                ....      69.125 sec  ( 13.7% of F)
  Chain of spheres X        ....     394.497 sec  ( 78.2% of F)
  XC integration            ....      39.566 sec  (  7.8% of F)
    XC Preparation          ....       0.000 sec  (  0.0% of XC)
    Basis function eval.    ....      15.519 sec  ( 39.2% of XC)
    Density eval.           ....      10.026 sec  ( 25.3% of XC)
    XC-Functional eval.     ....       1.594 sec  (  4.0% of XC)
    XC-Potential eval.      ....      10.778 sec  ( 27.2% of XC)
Diagonalization             ....       0.000 sec  (  0.0%)
Density matrix formation    ....       0.519 sec  (  0.1%)
Total Energy calculation    ....       0.102 sec  (  0.0%)
Population analysis         ....       0.079 sec  (  0.0%)
Orbital Transformation      ....       0.235 sec  (  0.0%)
Orbital Orthonormalization  ....       0.000 sec  (  0.0%)
DIIS solution               ....       1.072 sec  (  0.2%)
SOSCF solution              ....       0.778 sec  (  0.2%)
Finished LeanSCF after 508.2 sec

Maximum memory used throughout the entire LEANSCF-calculation: 107.7 MB

-------------------------   --------------------
FINAL SINGLE POINT ENERGY     -2441.288151284165
-------------------------   --------------------


------------------------------------------------------------------------------
                              ORCA PROPERTY CALCULATIONS
------------------------------------------------------------------------------

GBWName                                 ... /home/nmrbox/aojoawo/Documents/ERDOS/inputs/CHEMBL3687340.gbw
Number of atoms                         ...     61
Number of basis functions               ...    586
Max core memory                         ...   1024 MB

Electric properties:
Dipole moment                           ... YES
Quadrupole moment                       ...  NO
Static polarizability (Dipole/Dipole)   ...  NO
Static polarizability (Dipole/Quad.)    ...  NO
Static polarizability (Quad./Quad.)     ...  NO
Static polarizability (Velocity)        ...  NO

Atomic electric properties:
Dipole moment                           ...  NO
Quadrupole moment                       ...  NO
Static polarizability                   ...  NO

Choice of electric origin               ... Center of mass
Position of electric origin             ...    -0.240871     0.364066    -0.886949

General magnetic properties:
Magnetizability                         ...  NO

EPR properties:
g-Tensor (aka g-matrix)                 ...  NO
Zero-Field splitting spin-orbit         ...  NO
Zero-field splitting spin-spin          ...  NO
Hyperfine couplings                     ...  NO (   0 nuclei)
Quadrupole couplings                    ...  NO (   0 nuclei)
Contact density                         ...  NO (   0 nuclei)

NMR properties:
Chemical shifts                         ...  NO (   0 nuclei)
Spin-rotation constants                 ...  NO (   0 nuclei)
Spin-spin couplings                     ...  NO (   0 nuclei,    0 pairs)

Choice of magnetic origin               ... GIAO
Position of magnetic origin             ...     0.000000     0.000000     0.000000

Properties with geometric perturbations:
SCF Hessian                             ...  NO
IR spectrum                             ...  NO
VCD spectrum                            ...  NO
X-ray spectroscopy properties:
SCF XES/XAS/RIXS spectra                ...  NO


-------------
DIPOLE MOMENT
-------------

Method             : SCF
Type of density    : Electron Density
Multiplicity       :   1
Irrep              :   0
Energy             : -2441.2881512841649965 Eh
Relativity type    : 
Basis              : AO
                                X                 Y                 Z
Electronic contribution:    -13.490659570      -0.309744232     -25.935010944
Nuclear contribution   :      7.997188133      -7.155364697      26.017982858
                        -----------------------------------------
Total Dipole Moment    :     -5.493471437      -7.465108929       0.082971914
                        -----------------------------------------
Magnitude (a.u.)       :      9.268924646
Magnitude (Debye)      :     23.559734127



--------------------
Rotational spectrum 
--------------------
 
Rotational constants in cm-1:             0.003835             0.001808             0.001418 
Rotational constants in MHz :           114.974235            54.201860            42.514751 

Dipole components along the rotational axes: 
x,y,z [a.u.] :     6.463892     5.629333    -3.527276 
x,y,z [Debye]:    16.429909    14.308626    -8.965622 

 

Dipole moment calculation done in   0.0 sec 

Maximum memory used throughout the entire PROP-calculation: 53.2 MB

--------------------------------
SUGGESTED CITATIONS FOR THIS RUN
--------------------------------

Below you find a list of papers that are relevant to this ORCA run
We neither can nor want to force you to cite these papers, but we appreciate if you do
You receive ORCA, which is the product of decades of hard work by many enthusiastic individuals, for free
The only thing we kindly ask in return is that you cite our papers,
We deeply appreciate it, if you show your appreciation for ORCA by not just citing the generic ORCA reference.

Please note that relegating all ORCA citations to the supporting information does *not* help us.
SI sections are not indexed - citations you put there will not count into any citation statistics
But we need these citations in order to attract the funding resources that allow us to do what we are doing

Therefore, if you are a happy ORCA user, please consider citing a few of the papers listed below in the main body of your paper

In addition to the list printed below, the program has created the file /home/nmrbox/aojoawo/Documents/ERDOS/inputs/CHEMBL3687340.bibtex that contains the list in bibtex format
You can import this file easily into all common literature databanks and citation aid programs


List of essential papers. We consider these as the minimum necessary citations

  1. Neese,F.
     Software update: the ORCA program system, version 5.0
     WIRES Comput. Molec. Sci., 2022 12(1)e1606
     doi.org/10.1002/wcms.1606

List of papers to cite with high priority. The work reported in these papers was absolutely
necessary for this run to complete.
Our perspective: the developers of density functionals and basis sets usually get cited in chemistry papers
Good! But without the algorithms to do something with them, the functionals or basis sets would not do anything.
Hence, in our opinion, the algorithm design and method developments papers are equally worthy of getting cited

  1. Neese,F.
     An improvement of the resolution of the identity approximation for the formation of the Coulomb matrix
     J. Comp. Chem., 2003 24(14)1740-1747
     doi.org/10.1002/jcc.10318
  2. Neese,F.; Wennmohs,F.; Hansen,A.; Becker,U.
     Efficient, approximate and parallel Hartree-Fock and hybrid DFT calculations. A 'chain-of-spheres' algorithm for the Hartree-Fock exchange
     Chem. Phys., 2009 356(1-3)98-109
     doi.org/10.1016/j.chemphys.2008.10.036
  3. Helmich-Paris,B.; de Souza,B.; Neese,F.; Izsák,R.
     An improved chain of spheres for exchange algorithm
     J. Chem. Phys., 2021 155 104109
     doi.org/doi: 10.1063/5.0058766.
  4. Neese,F.
     The SHARK Integral Generation and Digestion System
     J. Comp. Chem., 2022  1-16
     doi.org/10.1002/jcc.26942

List of suggested additional citations. These are papers that are important in the 'surrounding' of 
of this run, or papers that preceded the highly important papers. If you like your results we are grateful for a citation.

  1. Izsak,R.; Neese,F.
     An overlap fitted chain of spheres exchange method
     J. Chem. Phys., 2011 135 144105
     doi.org/10.1063/1.3646921
  2. Izsak,R.; Hansen,A.; Neese,F.
     The resolution of identity and chain of spheres approximations for the LPNO-CCSD singles Fock term
     Molec. Phys., 2012 110 2413-2417
     doi.org/10.1080/00268976.2012.687466
  3. Neese,F.
     The ORCA program system
     WIRES Comput. Molec. Sci., 2012 2(1)73-78
     doi.org/10.1002/wcms.81
  4. Izsak,R.; Neese,F.; Klopper,W.
     Robust fitting techniques in the chain of spheres approximation to the Fock exchange: The role of the complementary space
     J. Chem. Phys., 2013 139 
     doi.org/10.1063/1.4819264
  5. Neese,F.
     Software update: the ORCA program system, version 4.0
     WIRES Comput. Molec. Sci., 2018 8(1)1-6
     doi.org/10.1002/wcms.1327
  6. Neese,F.; Wennmohs,F.; Becker,U.; Riplinger,C.
     The ORCA quantum chemistry program package
     J. Chem. Phys., 2020 152 Art. No. L224108
     doi.org/10.1063/5.0004608

List of optional additional citations

  1. Neese,F.
     Approximate second-order SCF convergence for spin unrestricted wavefunctions
     Chem. Phys. Lett., 2000 325(1-3)93-98
     doi.org/10.1016/s0009-2614(00)00662-x

Timings for individual modules:

Sum of individual times          ...      527.472 sec (=   8.791 min)
Startup calculation              ...       12.741 sec (=   0.212 min)   2.4 %
SCF iterations                   ...      514.528 sec (=   8.575 min)  97.5 %
Property calculations            ...        0.203 sec (=   0.003 min)   0.0 %
                             ****ORCA TERMINATED NORMALLY****
TOTAL RUN TIME: 0 days 0 hours 8 minutes 48 seconds 128 msec
