
                                 *****************
                                 * O   R   C   A *
                                 *****************

                                            #,                                       
                                            ###                                      
                                            ####                                     
                                            #####                                    
                                            ######                                   
                                           ########,                                 
                                     ,,################,,,,,                         
                               ,,#################################,,                 
                          ,,##########################################,,             
                       ,#########################################, ''#####,          
                    ,#############################################,,   '####,        
                  ,##################################################,,,,####,       
                ,###########''''           ''''###############################       
              ,#####''   ,,,,##########,,,,          '''####'''          '####       
            ,##' ,,,,###########################,,,                        '##       
           ' ,,###''''                  '''############,,,                           
         ,,##''                                '''############,,,,        ,,,,,,###''
      ,#''                                            '''#######################'''  
     '                                                          ''''####''''         
             ,#######,   #######,   ,#######,      ##                                
            ,#'     '#,  ##    ##  ,#'     '#,    #''#        ,####,   ,####,        
            ##       ##  ##   ,#'  ##            #'  '#       #'       #'  '#        
            ##       ##  #######   ##           ,######,      #####,   #    #        
            '#,     ,#'  ##    ##  '#,     ,#' ,#      #,     #,   #   #,  ,#        
             '#######'   ##     ##  '#######'  #'      '#     '####' # '####'        



                #########################################################
                #                        -***-                          #
                #          Department of theory and spectroscopy        #
                #                                                       #
                #                      Frank Neese                      #
                #                                                       #
                #     Directorship, Architecture, Infrastructure        #
                #                    SHARK, DRIVERS                     #
                #        Core code/Algorithms in most modules           #
                #                                                       #
                #        Max Planck Institute fuer Kohlenforschung      #
                #                Kaiser Wilhelm Platz 1                 #
                #                 D-45470 Muelheim/Ruhr                 #
                #                      Germany                          #
                #                                                       #
                #                  All rights reserved                  #
                #                        -***-                          #
                #########################################################


                         Program Version 6.0.0  -   RELEASE  -


 With contributions from (in alphabetic order):
   Daniel Aravena         : Magnetic Suceptibility
   Michael Atanasov       : Ab Initio Ligand Field Theory (pilot matlab implementation)
   Alexander A. Auer      : GIAO ZORA, VPT2 properties, NMR spectrum
   Ute Becker             : All parallelization in ORCA, NUMFREQ, NUMCALC
   Giovanni Bistoni       : ED, misc. LED, open-shell LED, HFLD
   Martin Brehm           : Molecular dynamics
   Dmytro Bykov           : pre 5.0 version of the SCF Hessian
   Marcos Casanova-Páez   : Triplet and SCS-CIS(D). UHF-(DLPNO)-IP/EA/STEOM-CCSD. UHF-CVS-IP/STEOM-CCSD
   Vijay G. Chilkuri      : MRCI spin determinant printing, contributions to CSF-ICE
   Pauline Colinet        : FMM embedding
   Dipayan Datta          : RHF DLPNO-CCSD density
   Achintya Kumar Dutta   : EOM-CC, STEOM-CC
   Nicolas Foglia         : Exact transition moments, OPA infrastructure, MCD improvements
   Dmitry Ganyushin       : Spin-Orbit,Spin-Spin,Magnetic field MRCI
   Miquel Garcia          : C-PCM and meta-GGA Hessian, CCSD/C-PCM, Gaussian charge scheme
   Tiago L. C. Gouveia    : GS-ROHF, GS-ROCIS
   Yang Guo               : DLPNO-NEVPT2, F12-NEVPT2, CIM, IAO-localization
   Andreas Hansen         : Spin unrestricted coupled pair/coupled cluster methods
   Ingolf Harden          : AUTO-CI MPn and infrastructure 
   Benjamin Helmich-Paris : MC-RPA, TRAH-(SCF,CASSCF), AVAS, COSX integrals, SCF dyn. polar.
   Lee Huntington         : MR-EOM, pCC
   Robert Izsak           : Overlap fitted RIJCOSX, COSX-SCS-MP3, EOM
   Riya Kayal             : Wick's Theorem for AUTO-CI, AUTO-CI UHF-CCSDT
   Emily Kempfer          : AUTO-CI, RHF CISDT and CCSDT
   Christian Kollmar      : KDIIS, OOCD, Brueckner-CCSD(T), CCSD density, CASPT2, CASPT2-K, improved NEVPT2
   Axel Koslowski         : Symmetry handling
   Simone Kossmann        : Meta GGA functionals, TD-DFT gradient, OOMP2, (MP2 Hessian; deprecated post 5.0)
   Lucas Lang             : DCDCAS
   Marvin Lechner         : AUTO-CI (C++ implementation), FIC-MRCC
   Spencer Leger          : CASSCF response
   Dagmar Lenk            : GEPOL surface, SMD, ORCA-2-JSON
   Dimitrios Liakos       : Extrapolation schemes; Compound Job, initial MDCI parallelization
   Dimitrios Manganas     : Further ROCIS development; embedding schemes. LFT, Crystal Embedding
   Dimitrios Pantazis     : SARC Basis sets
   Anastasios Papadopoulos: AUTO-CI, single reference methods and gradients
   Taras Petrenko         : pre 6.0 DFT Hessian and TD-DFT gradient, (ASA, deprecated), ECA, 1-Electron XAS/XES, NRVS
   Peter Pinski           : DLPNO-MP2, DLPNO-MP2 Gradient
   Christoph Reimann      : Effective Core Potentials
   Marius Retegan         : Local ZFS, SOC
   Christoph Riplinger    : Optimizer, TS searches, QM/MM, DLPNO-CCSD(T), (RO)-DLPNO pert. Triples
   Michael Roemelt        : Original ROCIS implementation
   Masaaki Saitow         : Open-shell DLPNO-CCSD energy and density
   Barbara Sandhoefer     : DKH picture change effects
   Kantharuban Sivalingam : CASSCF convergence/infrastructure, NEVPT2 and variants, FIC-MRCI
   Bernardo de Souza      : ESD, SOC TD-DFT
   Georgi Stoychev        : AutoAux, RI-MP2 NMR, DLPNO-MP2 response, X2C
   Van Anh Tran           : RI-MP2 g-tensors
   Willem Van den Heuvel  : Paramagnetic NMR
   Zikuan Wang            : NOTCH, Electric field optimization 
   Frank Wennmohs         : Technical directorship and infrastructure
   Hang Xu                : AUTO-CI-Response properties 


 We gratefully acknowledge several colleagues who have allowed us to
 interface, adapt or use parts of their codes:
   Stefan Grimme, W. Hujo, H. Kruse, P. Pracht,  : VdW corrections, initial TS optimization,
                  C. Bannwarth, S. Ehlert,         DFT functionals, gCP, sTDA/sTD-DF
                  L. Wittmann, M. Mueller
   Ed Valeev, F. Pavosevic, A. Kumar             : LibInt (2-el integral package), F12 methods
   Garnet Chan, S. Sharma, J. Yang, R. Olivares  : DMRG
   Ulf Ekstrom                                   : XCFun DFT Library
   Mihaly Kallay                                 : mrcc  (arbitrary order and MRCC methods)
   Frank Weinhold                                : gennbo (NPA and NBO analysis)
   Simon Mueller                                 : openCOSMO-RS
   Christopher J. Cramer and Donald G. Truhlar   : smd solvation model
   Lars Goerigk                                  : TD-DFT with DH, B97 family of functionals
   V. Asgeirsson, H. Jonsson                     : NEB implementation
   FAccTs GmbH                                   : IRC, NEB, NEB-TS, DLPNO-Multilevel, CI-OPT
                                                   MM, QMMM, 2- and 3-layer-ONIOM, Crystal-QMMM,
                                                   LR-CPCM, SF, NACMEs, symmetry and pop. for TD-DFT,
                                                   nearIR, NL-DFT gradient (VV10), updates on ESD,
                                                   ML-optimized integration grids, MBIS, APM,
                                                   GOAT, DOCKER, SOLVATOR, interface openCOSMO-RS
   S Lehtola, MJT Oliveira, MAL Marques          : LibXC Library
   Liviu Ungur et al                             : ANISO software


 Your calculation uses the libint2 library for the computation of 2-el integrals
 For citations please refer to: http://libint.valeyev.net

 Your ORCA version has been built with support for libXC version: 6.2.2
 For citations please refer to: https://libxc.gitlab.io

 This ORCA versions uses:
   CBLAS   interface :  Fast vector & matrix operations
   LAPACKE interface :  Fast linear algebra routines
   SCALAPACK package :  Parallel linear algebra routines
   Shared memory     :  Shared parallel matrices
   BLAS/LAPACK       :  OpenBLAS 0.3.27  USE64BITINT DYNAMIC_ARCH NO_AFFINITY SkylakeX SINGLE_THREADED
        Core in use  :  SkylakeX
   Copyright (c) 2011-2014, The OpenBLAS Project


Warning: RI is on but no J-basis has been assigned. Assigning Def2/J (nothing to worry about!)
================================================================================

----- Orbital basis set information -----
Your calculation utilizes the basis: 6-31G*
   H-He, Li-Ne : W. J. Hehre, R. Ditchfield and J.A. Pople, J. Chem. Phys. 56, 2257 (1972).
                 Note: He and Ne are unpublished basis sets taken from the Gaussian program.
                 Note: Li and B from J. D. Dill and J. A. Pople, J. Chem. Phys. 62, 2921 (1975).
   Na - Ar     : M. M. Francl, W. J. Pietro, W. J. Hehre, J. S. Binkley, M. S. Gordon, 
                 D. J. DeFrees and J. A. Pople, J. Chem. Phys. 77, 3654 (1982).
   K - Zn      : V. A. Rassolov, J. A. Pople, M. A. Ratner, and T. L. Windus, J. Chem. Phys. 109, 1223 (1998).

----- AuxJ basis set information -----
Your calculation utilizes the auxiliary basis: def2/J
   F. Weigend, Phys. Chem. Chem. Phys. 8, 1057 (2006).

================================================================================
                                        WARNINGS
                       Please study these warnings very carefully!
================================================================================


================================================================================
                                       INPUT FILE
================================================================================
NAME = /home/nmrbox/aojoawo/Documents/ERDOS/inputs/CHEMBL3353595.inp
|  1> ! B3LYP 6-31G* SP
|  2> 
|  3> * xyz 0 1
|  4> O 6.5278 -3.6619 0.1527
|  5> C 6.0394 -2.5936 0.6110
|  6> O 6.6719 -1.9567 1.6759
|  7> C 4.8070 -2.0216 0.0257
|  8> C 4.1592 -2.6589 -1.0482
|  9> C 2.9930 -2.1157 -1.5956
| 10> C 2.4569 -0.9302 -1.0774
| 11> S 0.9854 -0.2397 -1.7519
| 12> O 0.2821 -1.2428 -2.6224
| 13> O 1.3528 0.9568 -2.5847
| 14> N -0.0760 0.2337 -0.4600
| 15> C -0.3923 -0.7158 0.6084
| 16> C -1.8866 -0.8198 0.7850
| 17> C -2.5213 -0.0478 1.7730
| 18> C -3.9091 -0.0808 1.9129
| 19> C -4.6777 -0.8766 1.0640
| 20> C -4.0624 -1.6397 0.0692
| 21> C -2.6611 -1.6162 -0.0850
| 22> O -2.0073 -2.3602 -1.0828
| 23> C -2.6462 -3.1836 -2.0556
| 24> F -1.6820 -3.7416 -2.8724
| 25> F -3.5040 -2.4253 -2.8321
| 26> F -3.3464 -4.2017 -1.4334
| 27> C -0.4475 1.6104 -0.3211
| 28> N 0.0676 2.3412 0.7038
| 29> C -0.2648 3.6438 0.8996
| 30> C -1.1831 4.2764 0.0470
| 31> C -1.5224 5.7344 0.2253
| 32> F -0.6303 6.5013 -0.5006
| 33> F -1.4454 6.0946 1.5596
| 34> F -2.8071 5.9944 -0.2197
| 35> C -1.7133 3.5430 -1.0257
| 36> C -1.3594 2.2038 -1.2082
| 37> Cl -2.1032 1.2853 -2.5103
| 38> C 3.0989 -0.2888 -0.0118
| 39> C 4.2646 -0.8298 0.5378
| 40> H 7.5160 -2.3400 2.0843
| 41> H 4.5529 -3.5773 -1.4658
| 42> H 2.5113 -2.6216 -2.4223
| 43> H 0.0281 -1.7182 0.3765
| 44> H 0.0914 -0.3826 1.5525
| 45> H -1.9406 0.5878 2.4301
| 46> H -4.3901 0.5155 2.6775
| 47> H -5.7543 -0.8989 1.1737
| 48> H -4.6884 -2.2396 -0.5755
| 49> H 0.1887 4.1832 1.7208
| 50> H -2.4071 4.0066 -1.7161
| 51> H 2.6947 0.6296 0.3955
| 52> H 4.7397 -0.3149 1.3632
| 53> *
| 54> 
| 55>                          ****END OF INPUT****
================================================================================

                       ****************************
                       * Single Point Calculation *
                       ****************************

---------------------------------
CARTESIAN COORDINATES (ANGSTROEM)
---------------------------------
  O      6.527800   -3.661900    0.152700
  C      6.039400   -2.593600    0.611000
  O      6.671900   -1.956700    1.675900
  C      4.807000   -2.021600    0.025700
  C      4.159200   -2.658900   -1.048200
  C      2.993000   -2.115700   -1.595600
  C      2.456900   -0.930200   -1.077400
  S      0.985400   -0.239700   -1.751900
  O      0.282100   -1.242800   -2.622400
  O      1.352800    0.956800   -2.584700
  N     -0.076000    0.233700   -0.460000
  C     -0.392300   -0.715800    0.608400
  C     -1.886600   -0.819800    0.785000
  C     -2.521300   -0.047800    1.773000
  C     -3.909100   -0.080800    1.912900
  C     -4.677700   -0.876600    1.064000
  C     -4.062400   -1.639700    0.069200
  C     -2.661100   -1.616200   -0.085000
  O     -2.007300   -2.360200   -1.082800
  C     -2.646200   -3.183600   -2.055600
  F     -1.682000   -3.741600   -2.872400
  F     -3.504000   -2.425300   -2.832100
  F     -3.346400   -4.201700   -1.433400
  C     -0.447500    1.610400   -0.321100
  N      0.067600    2.341200    0.703800
  C     -0.264800    3.643800    0.899600
  C     -1.183100    4.276400    0.047000
  C     -1.522400    5.734400    0.225300
  F     -0.630300    6.501300   -0.500600
  F     -1.445400    6.094600    1.559600
  F     -2.807100    5.994400   -0.219700
  C     -1.713300    3.543000   -1.025700
  C     -1.359400    2.203800   -1.208200
  Cl    -2.103200    1.285300   -2.510300
  C      3.098900   -0.288800   -0.011800
  C      4.264600   -0.829800    0.537800
  H      7.516000   -2.340000    2.084300
  H      4.552900   -3.577300   -1.465800
  H      2.511300   -2.621600   -2.422300
  H      0.028100   -1.718200    0.376500
  H      0.091400   -0.382600    1.552500
  H     -1.940600    0.587800    2.430100
  H     -4.390100    0.515500    2.677500
  H     -5.754300   -0.898900    1.173700
  H     -4.688400   -2.239600   -0.575500
  H      0.188700    4.183200    1.720800
  H     -2.407100    4.006600   -1.716100
  H      2.694700    0.629600    0.395500
  H      4.739700   -0.314900    1.363200

----------------------------
CARTESIAN COORDINATES (A.U.)
----------------------------
  NO LB      ZA    FRAG     MASS         X           Y           Z
   0 O     8.0000    0    15.999   12.335754   -6.919988    0.288561
   1 C     6.0000    0    12.011   11.412812   -4.901194    1.154623
   2 O     8.0000    0    15.999   12.608064   -3.697627    3.166992
   3 C     6.0000    0    12.011    9.083914   -3.820270    0.048566
   4 C     6.0000    0    12.011    7.859749   -5.024593   -1.980811
   5 C     6.0000    0    12.011    5.655950   -3.998094   -3.015247
   6 C     6.0000    0    12.011    4.642868   -1.757823   -2.035991
   7 S    16.0000    0    32.060    1.862136   -0.452967   -3.310611
   8 O     8.0000    0    15.999    0.533092   -2.348552   -4.955618
   9 O     8.0000    0    15.999    2.556422    1.808090   -4.884375
  10 N     7.0000    0    14.007   -0.143619    0.441629   -0.869274
  11 C     6.0000    0    12.011   -0.741340   -1.352666    1.149709
  12 C     6.0000    0    12.011   -3.565157   -1.549197    1.483435
  13 C     6.0000    0    12.011   -4.764567   -0.090329    3.350484
  14 C     6.0000    0    12.011   -7.387128   -0.152690    3.614857
  15 C     6.0000    0    12.011   -8.839572   -1.656534    2.010669
  16 C     6.0000    0    12.011   -7.676823   -3.098584    0.130769
  17 C     6.0000    0    12.011   -5.028750   -3.054175   -0.160627
  18 O     8.0000    0    15.999   -3.793247   -4.460132   -2.046195
  19 C     6.0000    0    12.011   -5.000593   -6.016132   -3.884521
  20 F     9.0000    0    18.998   -3.178519   -7.070599   -5.428049
  21 F     9.0000    0    18.998   -6.621600   -4.583153   -5.351893
  22 F     9.0000    0    18.998   -6.323780   -7.940062   -2.708733
  23 C     6.0000    0    12.011   -0.845652    3.043215   -0.606791
  24 N     7.0000    0    14.007    0.127745    4.424227    1.329989
  25 C     6.0000    0    12.011   -0.500399    6.885784    1.699998
  26 C     6.0000    0    12.011   -2.235735    8.081225    0.088817
  27 C     6.0000    0    12.011   -2.876919   10.836446    0.425755
  28 F     9.0000    0    18.998   -1.191094   12.285677   -0.945997
  29 F     9.0000    0    18.998   -2.731410   11.517125    2.947217
  30 F     9.0000    0    18.998   -5.304650   11.327774   -0.415173
  31 C     6.0000    0    12.011   -3.237668    6.695300   -1.938292
  32 C     6.0000    0    12.011   -2.568894    4.164578   -2.283167
  33 Cl   17.0000    0    35.453   -3.974472    2.428865   -4.743780
  34 C     6.0000    0    12.011    5.856072   -0.545753   -0.022299
  35 C     6.0000    0    12.011    8.058926   -1.568095    1.016295
  36 H     1.0000    0     1.008   14.203182   -4.421959    3.938756
  37 H     1.0000    0     1.008    8.603734   -6.760117   -2.769961
  38 H     1.0000    0     1.008    4.745669   -4.954106   -4.577484
  39 H     1.0000    0     1.008    0.053101   -3.246927    0.711482
  40 H     1.0000    0     1.008    0.172721   -0.723009    2.933800
  41 H     1.0000    0     1.008   -3.667203    1.110781    4.592223
  42 H     1.0000    0     1.008   -8.296087    0.974154    5.059742
  43 H     1.0000    0     1.008  -10.874051   -1.698675    2.217972
  44 H     1.0000    0     1.008   -8.859792   -4.232231   -1.087537
  45 H     1.0000    0     1.008    0.356591    7.905102    3.251841
  46 H     1.0000    0     1.008   -4.548760    7.571377   -3.242959
  47 H     1.0000    0     1.008    5.092245    1.189772    0.747387
  48 H     1.0000    0     1.008    8.956735   -0.595075    2.576075

--------------------------------
INTERNAL COORDINATES (ANGSTROEM)
--------------------------------
 O      0   0   0     0.000000000000     0.00000000     0.00000000
 C      1   0   0     1.260887917303     0.00000000     0.00000000
 O      2   1   0     1.392734673224   119.30505348     0.00000000
 C      2   1   3     1.479381576876   120.42872928   180.04212372
 C      4   2   1     1.406789728424   120.69473930     0.09266705
 C      5   4   2     1.398118535747   120.46212693   179.84993329
 C      6   5   4     1.400480167657   120.21926425   359.91840712
 S      7   6   5     1.759844524383   120.69013114   180.29334017
 O      8   7   6     1.502867509130   110.57367057    14.47365988
 O      8   7   6     1.503379808964   108.67776124   254.93559903
 N      8   7   6     1.737723548209   109.43092156   134.62912677
 C     11   8   7     1.463924349138   119.85824702   309.40395753
 C     12  11   8     1.508289113532   110.13500390   231.93640428
 C     13  12  11     1.405337002288   119.46451399   264.02804821
 C     14  13  12     1.395223942598   120.44646548   177.00039937
 C     15  14  13     1.394515976961   120.04531434   359.58299606
 C     16  15  14     1.396618322950   120.17128152   359.81314053
 C     17  16  15     1.409954460257   120.44115077     0.15146649
 O     18  17  16     1.405914392842   122.07163126   180.64120543
 C     19  18  17     1.425664971163   125.55680237     1.44574122
 F     20  19  18     1.381378977689   108.90292761   179.38074374
 F     20  19  18     1.383398706086   110.13886132    60.14062707
 F     20  19  18     1.383452380821   110.17956734   298.61599638
 C     11   8   7     1.432692692101   119.48771482   118.59882688
 N     24  11   8     1.360079652079   119.41782048   252.06328314
 C     25  24  11     1.358526466433   122.08275579   181.11778659
 C     26  25  24     1.403703818475   120.30731397     1.08932743
 C     27  26  25     1.507540838584   120.74758151   182.16868646
 F     28  27  26     1.382356260159   109.21974717    88.48081500
 F     28  27  26     1.384207184637   110.68056926   328.44571729
 F     28  27  26     1.384225086465   110.64167361   208.49232381
 C     27  26  25     1.403450351812   118.41734412   358.21359539
 C     32  27  26     1.397142834502   120.33422480     1.87173384
 Cl    33  32  27     1.758506497002   119.35620878   176.81725945
 C      7   6   5     1.399664716995   119.60575704     0.28562164
 C     35   7   6     1.397711576113   120.30049036   359.68877338
 H      3   2   1     1.013022339339   120.90634246     0.00000000
 H      5   4   2     1.082981075550   120.73903689   359.85701468
 H      6   5   4     1.082313535904   119.25461319   179.92496361
 H     12  11   8     1.111449292591   110.54623741   353.31664309
 H     12  11   8     1.111896011325   109.34923759   110.17582269
 H     14  13  12     1.083042132144   120.44909042   357.56835967
 H     15  14  13     1.082380640071   119.98859915   179.89533947
 H     16  15  14     1.082404240568   119.88530703   180.10798618
 H     17  16  15     1.080460133462   118.23787161   180.42326129
 H     26  25  24     1.082120164307   118.99807348   181.09151224
 H     32  27  26     1.083021495632   120.36880149   181.38039311
 H     35   7   6     1.082926354837   120.24986830   179.86064024
 H     36  35   7     1.082648225418   118.79563258   180.16199541

---------------------------
INTERNAL COORDINATES (A.U.)
---------------------------
 O      0   0   0     0.000000000000     0.00000000     0.00000000
 C      1   0   0     2.382732849272     0.00000000     0.00000000
 O      2   1   0     2.631887109609   119.30505348     0.00000000
 C      2   1   3     2.795626027864   120.42872928   180.04212372
 C      4   2   1     2.658447314735   120.69473930     0.09266705
 C      5   4   2     2.642061135321   120.46212693   179.84993329
 C      6   5   4     2.646523972859   120.21926425   359.91840712
 S      7   6   5     3.325624189364   120.69013114   180.29334017
 O      8   7   6     2.840008007825   110.57367057    14.47365988
 O      8   7   6     2.840976114208   108.67776124   254.93559903
 N      8   7   6     3.283821602581   109.43092156   134.62912677
 C     11   8   7     2.766416100650   119.85824702   309.40395753
 C     12  11   8     2.850253355351   110.13500390   231.93640428
 C     13  12  11     2.655702060190   119.46451399   264.02804821
 C     14  13  12     2.636591147001   120.44646548   177.00039937
 C     15  14  13     2.635253285834   120.04531434   359.58299606
 C     16  15  14     2.639226143992   120.17128152   359.81314053
 C     17  16  15     2.664427791187   120.44115077     0.15146649
 O     18  17  16     2.656793170209   122.07163126   180.64120543
 C     19  18  17     2.694116354222   125.55680237     1.44574122
 F     20  19  18     2.610427954988   108.90292761   179.38074374
 F     20  19  18     2.614244688523   110.13886132    60.14062707
 F     20  19  18     2.614346119074   110.17956734   298.61599638
 C     11   8   7     2.707396822142   119.48771482   118.59882688
 N     24  11   8     2.570178062749   119.41782048   252.06328314
 C     25  24  11     2.567242967243   122.08275579   181.11778659
 C     26  25  24     2.652615790056   120.30731397     1.08932743
 C     27  26  25     2.848839320627   120.74758151   182.16868646
 F     28  27  26     2.612274751212   109.21974717    88.48081500
 F     28  27  26     2.615772491570   110.68056926   328.44571729
 F     28  27  26     2.615806321123   110.64167361   208.49232381
 C     27  26  25     2.652136807479   118.41734412   358.21359539
 C     32  27  26     2.640217327179   120.33422480     1.87173384
 Cl    33  32  27     3.323095684056   119.35620878   176.81725945
 C      7   6   5     2.644982994432   119.60575704     0.28562164
 C     35   7   6     2.641292093065   120.30049036   359.68877338
 H      3   2   1     1.914334788895   120.90634246     0.00000000
 H      5   4   2     2.046537641009   120.73903689   359.85701468
 H      6   5   4     2.045276173894   119.25461319   179.92496361
 H     12  11   8     2.100334774737   110.54623741   353.31664309
 H     12  11   8     2.101178950803   109.34923759   110.17582269
 H     14  13  12     2.046653021251   120.44909042   357.56835967
 H     15  14  13     2.045402982392   119.98859915   179.89533947
 H     16  15  14     2.045447580869   119.88530703   180.10798618
 H     17  16  15     2.041773750863   118.23787161   180.42326129
 H     26  25  24     2.044910754534   118.99807348   181.09151224
 H     32  27  26     2.046614023893   120.36880149   181.38039311
 H     35   7   6     2.046434233847   120.24986830   179.86064024
 H     36  35   7     2.045908645415   118.79563258   180.16199541

---------------------
BASIS SET INFORMATION
---------------------
There are 7 groups of distinct atoms

 Group   1 Type O   : 10s4p1d contracted to 3s2p1d pattern {631/31/1}
 Group   2 Type C   : 10s4p1d contracted to 3s2p1d pattern {631/31/1}
 Group   3 Type S   : 16s10p1d contracted to 4s3p1d pattern {6631/631/1}
 Group   4 Type N   : 10s4p1d contracted to 3s2p1d pattern {631/31/1}
 Group   5 Type F   : 10s4p1d contracted to 3s2p1d pattern {631/31/1}
 Group   6 Type Cl  : 16s10p1d contracted to 4s3p1d pattern {6631/631/1}
 Group   7 Type H   : 4s contracted to 2s pattern {31}

Atom   0O    basis set group =>   1
Atom   1C    basis set group =>   2
Atom   2O    basis set group =>   1
Atom   3C    basis set group =>   2
Atom   4C    basis set group =>   2
Atom   5C    basis set group =>   2
Atom   6C    basis set group =>   2
Atom   7S    basis set group =>   3
Atom   8O    basis set group =>   1
Atom   9O    basis set group =>   1
Atom  10N    basis set group =>   4
Atom  11C    basis set group =>   2
Atom  12C    basis set group =>   2
Atom  13C    basis set group =>   2
Atom  14C    basis set group =>   2
Atom  15C    basis set group =>   2
Atom  16C    basis set group =>   2
Atom  17C    basis set group =>   2
Atom  18O    basis set group =>   1
Atom  19C    basis set group =>   2
Atom  20F    basis set group =>   5
Atom  21F    basis set group =>   5
Atom  22F    basis set group =>   5
Atom  23C    basis set group =>   2
Atom  24N    basis set group =>   4
Atom  25C    basis set group =>   2
Atom  26C    basis set group =>   2
Atom  27C    basis set group =>   2
Atom  28F    basis set group =>   5
Atom  29F    basis set group =>   5
Atom  30F    basis set group =>   5
Atom  31C    basis set group =>   2
Atom  32C    basis set group =>   2
Atom  33Cl   basis set group =>   6
Atom  34C    basis set group =>   2
Atom  35C    basis set group =>   2
Atom  36H    basis set group =>   7
Atom  37H    basis set group =>   7
Atom  38H    basis set group =>   7
Atom  39H    basis set group =>   7
Atom  40H    basis set group =>   7
Atom  41H    basis set group =>   7
Atom  42H    basis set group =>   7
Atom  43H    basis set group =>   7
Atom  44H    basis set group =>   7
Atom  45H    basis set group =>   7
Atom  46H    basis set group =>   7
Atom  47H    basis set group =>   7
Atom  48H    basis set group =>   7
---------------------------------
AUXILIARY/J BASIS SET INFORMATION
---------------------------------
There are 7 groups of distinct atoms

 Group   1 Type O   : 12s5p4d2f1g contracted to 6s4p3d1f1g pattern {711111/2111/211/2/1}
 Group   2 Type C   : 12s5p4d2f1g contracted to 6s4p3d1f1g pattern {711111/2111/211/2/1}
 Group   3 Type S   : 14s5p5d2f1g contracted to 8s4p3d1f1g pattern {71111111/2111/311/2/1}
 Group   4 Type N   : 12s5p4d2f1g contracted to 6s4p3d1f1g pattern {711111/2111/211/2/1}
 Group   5 Type F   : 12s5p4d2f1g contracted to 6s4p3d1f1g pattern {711111/2111/211/2/1}
 Group   6 Type Cl  : 14s5p5d2f1g contracted to 8s4p3d1f1g pattern {71111111/2111/311/2/1}
 Group   7 Type H   : 5s2p1d contracted to 3s1p1d pattern {311/2/1}

Atom   0O    basis set group =>   1
Atom   1C    basis set group =>   2
Atom   2O    basis set group =>   1
Atom   3C    basis set group =>   2
Atom   4C    basis set group =>   2
Atom   5C    basis set group =>   2
Atom   6C    basis set group =>   2
Atom   7S    basis set group =>   3
Atom   8O    basis set group =>   1
Atom   9O    basis set group =>   1
Atom  10N    basis set group =>   4
Atom  11C    basis set group =>   2
Atom  12C    basis set group =>   2
Atom  13C    basis set group =>   2
Atom  14C    basis set group =>   2
Atom  15C    basis set group =>   2
Atom  16C    basis set group =>   2
Atom  17C    basis set group =>   2
Atom  18O    basis set group =>   1
Atom  19C    basis set group =>   2
Atom  20F    basis set group =>   5
Atom  21F    basis set group =>   5
Atom  22F    basis set group =>   5
Atom  23C    basis set group =>   2
Atom  24N    basis set group =>   4
Atom  25C    basis set group =>   2
Atom  26C    basis set group =>   2
Atom  27C    basis set group =>   2
Atom  28F    basis set group =>   5
Atom  29F    basis set group =>   5
Atom  30F    basis set group =>   5
Atom  31C    basis set group =>   2
Atom  32C    basis set group =>   2
Atom  33Cl   basis set group =>   6
Atom  34C    basis set group =>   2
Atom  35C    basis set group =>   2
Atom  36H    basis set group =>   7
Atom  37H    basis set group =>   7
Atom  38H    basis set group =>   7
Atom  39H    basis set group =>   7
Atom  40H    basis set group =>   7
Atom  41H    basis set group =>   7
Atom  42H    basis set group =>   7
Atom  43H    basis set group =>   7
Atom  44H    basis set group =>   7
Atom  45H    basis set group =>   7
Atom  46H    basis set group =>   7
Atom  47H    basis set group =>   7
Atom  48H    basis set group =>   7
------------------------------------------------------------------------------
                             ORCA STARTUP CALCULATIONS
                           -- RI-GTO INTEGRALS CHOSEN --
------------------------------------------------------------------------------
------------------------------------------------------------------------------
                   ___                                                        
                  /   \      - P O W E R E D   B Y -                         
                 /     \                                                     
                 |  |  |   _    _      __       _____    __    __             
                 |  |  |  | |  | |    /  \     |  _  \  |  |  /  |          
                  \  \/   | |  | |   /    \    | | | |  |  | /  /          
                 / \  \   | |__| |  /  /\  \   | |_| |  |  |/  /          
                |  |  |   |  __  | /  /__\  \  |    /   |      \           
                |  |  |   | |  | | |   __   |  |    \   |  |\   \          
                \     /   | |  | | |  |  |  |  | |\  \  |  | \   \       
                 \___/    |_|  |_| |__|  |__|  |_| \__\ |__|  \__/        
                                                                              
                      - O R C A' S   B I G   F R I E N D -                    
                                      &                                       
                       - I N T E G R A L  F E E D E R -                       
                                                                              
 v1 FN, 2020, v2 2021, v3 2022-2024                                           
------------------------------------------------------------------------------


----------------------
SHARK INTEGRAL PACKAGE
----------------------

Number of atoms                             ...     49
Number of basis functions                   ...    538
Number of shells                            ...    246
Maximum angular momentum                    ...      2
Integral batch strategy                     ... SHARK/LIBINT Hybrid
RI-J (if used) integral strategy            ... SPLIT-RIJ (Revised 2003 algorithm where possible)
Printlevel                                  ...      1
Contraction scheme used                     ... SEGMENTED contraction
Prescreening option                         ... SCHWARTZ
   Thresh                                   ... 1.000e-10
   Tcut                                     ... 1.000e-11
   Tpresel                                  ... 1.000e-11 
Coulomb Range Separation                    ... NOT USED
Exchange Range Separation                   ... NOT USED
Multipole approximations                    ... NOT USED
Finite Nucleus Model                        ... NOT USED
CABS basis                                  ... NOT available
Auxiliary Coulomb fitting basis             ... AVAILABLE
   # of basis functions in Aux-J            ...   1911
   # of shells in Aux-J                     ...    609
   Maximum angular momentum in Aux-J        ...      4
Auxiliary J/K fitting basis                 ... NOT available
Auxiliary Correlation fitting basis         ... NOT available
Auxiliary 'external' fitting basis          ... NOT available

Checking pre-screening integrals            ... done (  0.0 sec) Dimension = 246
Check shell pair data                       ... done (  0.0 sec)
Shell pair information
Shell pair cut-off parameter TPreSel        ...   1.0e-11
Total number of shell pairs                 ...     30381
Shell pairs after pre-screening             ...     16299
Total number of primitive shell pairs       ...    190891
Primitive shell pairs kept                  ...     51274
          la=0 lb=0:   4647 shell pairs
          la=1 lb=0:   5859 shell pairs
          la=1 lb=1:   1861 shell pairs
          la=2 lb=0:   2197 shell pairs
          la=2 lb=1:   1463 shell pairs
          la=2 lb=2:    272 shell pairs

Calculating one electron integrals          ... done (  0.2 sec)
Calculating RI/J V-Matrix + Cholesky decomp.... done (  0.4 sec)
Calculating Nuclear repulsion               ... done (  0.0 sec) ENN=   4525.783990756111 Eh

Diagonalization of the overlap matrix:
Smallest eigenvalue                        ... 4.540e-04
Time for diagonalization                   ...    0.046 sec
Threshold for overlap eigenvalues          ... 1.000e-07
Number of eigenvalues below threshold      ... 0
Time for construction of square roots      ...    0.043 sec
Total time needed                          ...    0.100 sec

-------------------
DFT GRID GENERATION
-------------------

General Integration Accuracy     IntAcc      ... 4.388
Radial Grid Type                 RadialGrid  ... OptM3 with GC (2021)
Angular Grid (max. ang.)         AngularGrid ... 4 (Lebedev-302)
Angular grid pruning method      GridPruning ... 4 (adaptive)
Weight generation scheme         WeightScheme... mBecke (2022)
Basis function cutoff            BFCut       ... 1.0000e-10
Integration weight cutoff        WCut        ... 1.0000e-14
Partially contracted basis set               ... off
Rotationally invariant grid construction     ... off
Angular grids for H and He will be reduced by one unit

Total number of grid points                  ...   259807
Total number of batches                      ...     4086
Average number of points per batch           ...       63
Average number of grid points per atom       ...     5302

--------------------
COSX GRID GENERATION
--------------------

GRIDX 1
-------
General Integration Accuracy     IntAcc      ... 3.816
Radial Grid Type                 RadialGrid  ... OptM3 with GC (2021)
Angular Grid (max. ang.)         AngularGrid ... 1 (Lebedev-50)
Angular grid pruning method      GridPruning ... 4 (adaptive)
Weight generation scheme         WeightScheme... mBecke (2022)
Basis function cutoff            BFCut       ... 1.0000e-10
Integration weight cutoff        WCut        ... 1.0000e-14
Partially contracted basis set               ... on
Rotationally invariant grid construction     ... off
Angular grids for H and He will be reduced by one unit

Total number of grid points                  ...    34756
Total number of batches                      ...      295
Average number of points per batch           ...      117
Average number of grid points per atom       ...      709
UseSFitting                                  ... on

GRIDX 2
-------
General Integration Accuracy     IntAcc      ... 4.020
Radial Grid Type                 RadialGrid  ... OptM3 with GC (2021)
Angular Grid (max. ang.)         AngularGrid ... 2 (Lebedev-110)
Angular grid pruning method      GridPruning ... 4 (adaptive)
Weight generation scheme         WeightScheme... mBecke (2022)
Basis function cutoff            BFCut       ... 1.0000e-10
Integration weight cutoff        WCut        ... 1.0000e-14
Partially contracted basis set               ... on
Rotationally invariant grid construction     ... off
Angular grids for H and He will be reduced by one unit

Total number of grid points                  ...    73236
Total number of batches                      ...      593
Average number of points per batch           ...      123
Average number of grid points per atom       ...     1495
UseSFitting                                  ... on

GRIDX 3
-------
General Integration Accuracy     IntAcc      ... 4.338
Radial Grid Type                 RadialGrid  ... OptM3 with GC (2021)
Angular Grid (max. ang.)         AngularGrid ... 3 (Lebedev-194)
Angular grid pruning method      GridPruning ... 4 (adaptive)
Weight generation scheme         WeightScheme... mBecke (2022)
Basis function cutoff            BFCut       ... 1.0000e-10
Integration weight cutoff        WCut        ... 1.0000e-14
Partially contracted basis set               ... on
Rotationally invariant grid construction     ... off
Angular grids for H and He will be reduced by one unit

Total number of grid points                  ...   161942
Total number of batches                      ...     1290
Average number of points per batch           ...      125
Average number of grid points per atom       ...     3305
UseSFitting                                  ... on
Initializing property integral containers    ... done (  0.0 sec)

SHARK setup successfully completed in  10.5 seconds

Maximum memory used throughout the entire STARTUP-calculation: 114.5 MB
-------------------------------------------------------------------------------
                                 ORCA GUESS
                   Start orbitals & Density for SCF / CASSCF
-------------------------------------------------------------------------------

------------
SCF SETTINGS
------------
Hamiltonian:
 Density Functional     Method          .... DFT(GTOs)
 Exchange Functional    Exchange        .... B88
   X-Alpha parameter    XAlpha          ....  0.666667
   Becke's b parameter  XBeta           ....  0.004200
 Correlation Functional Correlation     .... LYP
 LDA part of GGA corr.  LDAOpt          .... VWN-5
 Gradients option       PostSCFGGA      .... off
 Hybrid DFT is turned on
   Fraction HF Exchange ScalHFX         ....  0.200000
   Scaling of DF-GGA-X  ScalDFX         ....  0.720000
   Scaling of DF-GGA-C  ScalDFC         ....  0.810000
   Scaling of DF-LDA-C  ScalLDAC        ....  1.000000
   Perturbative correction              ....  0.000000
   NL short-range parameter             ....  4.800000
 RI-approximation to the Coulomb term is turned on
   Number of AuxJ basis functions       .... 1911
   RIJ-COSX (HFX calculated with COS-X)).... on


General Settings:
 Integral files         IntName         .... /home/nmrbox/aojoawo/Documents/ERDOS/inputs/CHEMBL3353595
 Hartree-Fock type      HFTyp           .... RHF
 Total Charge           Charge          ....    0
 Multiplicity           Mult            ....    1
 Number of Electrons    NEL             ....  280
 Basis Dimension        Dim             ....  538
 Nuclear Repulsion      ENuc            ....   4525.7839907561 Eh

Convergence Acceleration:
 AO-DIIS                CNVDIIS         .... on
   Start iteration      DIISMaxIt       ....    12
   Startup error        DIISStart       ....  0.200000
   # of expansion vecs  DIISMaxEq       ....     5
   Bias factor          DIISBfac        ....   1.050
   Max. coefficient     DIISMaxC        ....  10.000
 MO-DIIS                CNVKDIIS        .... off
 Trust-Rad. Augm. Hess. CNVTRAH         .... auto
   Auto Start mean grad. ratio tolernc. ....  1.125000
   Auto Start start iteration           ....    50
   Auto Start num. interpolation iter.  ....    10
   Max. Number of Micro iterations      ....    24
   Max. Number of Macro iterations      .... Maxiter - #DIIS iter
   Number of Davidson start vectors     ....     2
   Converg. threshold    (grad. norm)   ....   5.000e-05
   Grad. Scal. Fac. for Micro threshold ....   0.100
   Minimum threshold for Micro iter.    ....   1.000e-02
   NR start threshold (gradient norm)   ....   1.000e-04
   Initial trust radius                 ....   0.400
   Minimum AH scaling param. (alpha)    ....   1.000
   Maximum AH scaling param. (alpha)    .... 1000.000
   Quad. conv. algorithm                .... NR
   White noise on init. David. guess    .... on
   Maximum white noise                  ....   0.010
   Pseudo random numbers                .... off
   Inactive MOs                         .... canonical
   Orbital update algorithm             .... Taylor
   Preconditioner                       .... Diag
   Full preconditioner red. dimension   ....   250
 SOSCF                  CNVSOSCF        .... on
   Start iteration      SOSCFMaxIt      ....   150
   Startup grad/error   SOSCFStart      ....  0.003300
   Hessian update       SOSCFHessUp     .... L-BFGS
 Level Shifting         CNVShift        .... on
   Level shift para.    LevelShift      ....    0.2500
   Turn off err/grad.   ShiftErr        ....    0.0010
 Zerner damping         CNVZerner       .... off
 Static damping         CNVDamp         .... on
   Fraction old density DampFac         ....    0.7000
   Max. Damping (<1)    DampMax         ....    0.9800
   Min. Damping (>=0)   DampMin         ....    0.0000
   Turn off err/grad.   DampErr         ....    0.1000

SCF Procedure:
 Maximum # iterations   MaxIter         ....   125
 SCF integral mode      SCFMode         .... Direct
   Integral package                     .... SHARK and LIBINT hybrid scheme
 Reset frequency        DirectResetFreq ....    20
 Integral Threshold     Thresh          ....  1.000e-10 Eh
 Primitive CutOff       TCut            ....  1.000e-11 Eh

Convergence Tolerance:
 Convergence Check Mode ConvCheckMode   .... Total+1el-Energy
 Convergence forced     ConvForced      .... 0
 Energy Change          TolE            ....  1.000e-06 Eh
 1-El. energy change                    ....  1.000e-03 Eh
 Orbital Gradient       TolG            ....  5.000e-05
 Orbital Rotation angle TolX            ....  5.000e-05
 DIIS Error             TolErr          ....  1.000e-06

------------------------------
INITIAL GUESS: MODEL POTENTIAL
------------------------------
Loading Hartree-Fock densities                     ... done
Calculating cut-offs                               ... done
Initializing the effective Hamiltonian             ... done
Setting up the integral package (SHARK)            ... done
Starting the Coulomb interaction                   ... done (   2.8 sec)
Making the grid                                    ... done (   1.4 sec)
Mapping shells                                     ... done
Starting the XC term evaluation                    ... done (   1.0 sec)
  promolecular density results
     # of electrons  =    280.003287579
     EX              =   -278.801587371
     EC              =    -10.171237186
     EX+EC           =   -288.972824557
Transforming the Hamiltonian                       ... done (   0.0 sec)
Diagonalizing the Hamiltonian                      ... done (   0.0 sec)
Back transforming the eigenvectors                 ... done (   0.0 sec)
Now organizing SCF variables                       ... done
                      ------------------
                      INITIAL GUESS DONE (   5.3 sec)
                      ------------------
             **** ENERGY FILE WAS UPDATED (/home/nmrbox/aojoawo/Documents/ERDOS/inputs/CHEMBL3353595.en.tmp) ****
Finished Guess after   5.6 sec
Maximum memory used throughout the entire GUESS-calculation: 64.3 MB

-------------------------------------------------------------------------------------------
                                      ORCA LEAN-SCF
                              memory conserving SCF solver
-------------------------------------------------------------------------------------------

----------------------------------------D-I-I-S--------------------------------------------
Iteration    Energy (Eh)           Delta-E    RMSDP     MaxDP     DIISErr   Damp  Time(sec)
-------------------------------------------------------------------------------------------
               ***  Starting incremental Fock matrix formation  ***
    1    -2748.9263695222525712     0.00e+00  2.40e-03  1.89e-01  2.97e-01  0.700  57.5
    2    -2749.4134240783250789    -4.87e-01  1.39e-03  7.85e-02  9.83e-02  0.700  25.8
                               ***Turning on AO-DIIS***
    3    -2749.5692778596130665    -1.56e-01  4.95e-04  1.73e-02  3.60e-02  0.700  23.3
    4    -2749.6756231374483832    -1.06e-01  8.27e-04  3.34e-02  1.50e-02  0.000  19.3
    5    -2749.9193650750876259    -2.44e-01  2.05e-04  7.80e-03  6.75e-03  0.000  20.1
                              *** Initializing SOSCF ***
---------------------------------------S-O-S-C-F--------------------------------------
Iteration    Energy (Eh)           Delta-E    RMSDP     MaxDP     MaxGrad    Time(sec)
--------------------------------------------------------------------------------------
    6    -2749.9207308735913102    -1.37e-03  6.69e-05  2.94e-03  2.81e-03    17.3
               *** Restarting incremental Fock matrix formation ***
    7    -2749.9208939839036248    -1.63e-04  6.41e-05  3.51e-03  4.15e-04    48.7
    8    -2749.9208322822805712     6.17e-05  4.22e-05  2.37e-03  9.64e-04    27.3
    9    -2749.9209216305180234    -8.93e-05  1.31e-05  6.33e-04  1.17e-04    25.0
   10    -2749.9209183201282940     3.31e-06  8.60e-06  3.97e-04  2.33e-04    19.7
   11    -2749.9209228024828917    -4.48e-06  2.60e-06  1.11e-04  3.05e-05    18.1
   12    -2749.9209227062383434     9.62e-08  1.65e-06  8.70e-05  4.73e-05    15.3
                 **** Energy Check signals convergence ****

               *****************************************************
               *                     SUCCESS                       *
               *           SCF CONVERGED AFTER  12 CYCLES          *
               *****************************************************

Recomputing exchange energy using gridx3       ... done (   83.583 sec)
Old exchange energy                            :    -56.123040466 Eh
New exchange energy                            :    -56.122982402 Eh
Exchange energy change after final integration :      0.000058064 Eh
Total energy after final integration           :  -2749.920864642 Eh
             **** ENERGY FILE WAS UPDATED (/home/nmrbox/aojoawo/Documents/ERDOS/inputs/CHEMBL3353595.en.tmp) ****

----------------
TOTAL SCF ENERGY
----------------

Total Energy       :      -2749.92086464229988 Eh          -74829.15097 eV

Components:
Nuclear Repulsion  :       4525.78399075611105 Eh          123152.84336 eV
Electronic Energy  :      -7275.70491346234940 Eh         -197981.99591 eV
One Electron Energy:     -12798.17288900489802 Eh         -348255.98930 eV
Two Electron Energy:       5522.46797554254863 Eh          150273.99340 eV

Virial components:
Potential Energy   :      -5486.03248743379118 Eh         -149282.53336 eV
Kinetic Energy     :       2736.11162279149130 Eh           74453.38239 eV
Virial Ratio       :          2.00504703161076

DFT components:
N(Alpha)           :      140.000072458030 electrons
N(Beta)            :      140.000072458030 electrons
N(Total)           :      280.000144916060 electrons
E(X)               :     -223.226942362050 Eh       
E(C)               :      -11.920740124843 Eh       
E(XC)              :     -235.147682486893 Eh       

---------------
SCF CONVERGENCE
---------------

  Last Energy change         ...   -9.6245e-08  Tolerance :   1.0000e-06
  Last MAX-Density change    ...    8.6996e-05  Tolerance :   1.0000e-05
  Last RMS-Density change    ...    1.6463e-06  Tolerance :   1.0000e-06
  Last DIIS Error            ...    2.8108e-03  Tolerance :   1.0000e-06
  Last Orbital Gradient      ...    4.7282e-05  Tolerance :   5.0000e-05
  Last Orbital Rotation      ...    7.4528e-05  Tolerance :   5.0000e-05


----------------
ORBITAL ENERGIES
----------------

  NO   OCC          E(Eh)            E(eV) 
   0   2.0000    -101.539110     -2763.0197 
   1   2.0000     -89.103521     -2424.6301 
   2   2.0000     -24.736814      -673.1229 
   3   2.0000     -24.735663      -673.0916 
   4   2.0000     -24.735516      -673.0876 
   5   2.0000     -24.732812      -673.0140 
   6   2.0000     -24.732108      -672.9949 
   7   2.0000     -24.731211      -672.9705 
   8   2.0000     -19.210645      -522.7482 
   9   2.0000     -19.199006      -522.4315 
  10   2.0000     -19.140493      -520.8393 
  11   2.0000     -19.130607      -520.5703 
  12   2.0000     -19.127827      -520.4946 
  13   2.0000     -14.385270      -391.4431 
  14   2.0000     -14.367861      -390.9694 
  15   2.0000     -10.499235      -285.6987 
  16   2.0000     -10.454071      -284.4697 
  17   2.0000     -10.338143      -281.3152 
  18   2.0000     -10.297649      -280.2133 
  19   2.0000     -10.277820      -279.6737 
  20   2.0000     -10.273265      -279.5498 
  21   2.0000     -10.257957      -279.1332 
  22   2.0000     -10.247339      -278.8443 
  23   2.0000     -10.245441      -278.7926 
  24   2.0000     -10.242205      -278.7046 
  25   2.0000     -10.239240      -278.6239 
  26   2.0000     -10.235329      -278.5175 
  27   2.0000     -10.224550      -278.2241 
  28   2.0000     -10.223112      -278.1850 
  29   2.0000     -10.221251      -278.1344 
  30   2.0000     -10.220450      -278.1126 
  31   2.0000     -10.211975      -277.8820 
  32   2.0000     -10.201441      -277.5953 
  33   2.0000     -10.198886      -277.5258 
  34   2.0000     -10.198405      -277.5127 
  35   2.0000     -10.192788      -277.3599 
  36   2.0000      -9.470135      -257.6955 
  37   2.0000      -8.139273      -221.4809 
  38   2.0000      -7.233684      -196.8385 
  39   2.0000      -7.223636      -196.5651 
  40   2.0000      -7.223103      -196.5506 
  41   2.0000      -6.104620      -166.1151 
  42   2.0000      -6.102059      -166.0455 
  43   2.0000      -6.101816      -166.0388 
  44   2.0000      -1.297892       -35.3174 
  45   2.0000      -1.295508       -35.2526 
  46   2.0000      -1.221339       -33.2343 
  47   2.0000      -1.220150       -33.2020 
  48   2.0000      -1.218905       -33.1681 
  49   2.0000      -1.216080       -33.0912 
  50   2.0000      -1.088632       -29.6232 
  51   2.0000      -1.083456       -29.4823 
  52   2.0000      -1.080349       -29.3978 
  53   2.0000      -0.997645       -27.1473 
  54   2.0000      -0.989835       -26.9348 
  55   2.0000      -0.965913       -26.2838 
  56   2.0000      -0.935031       -25.4435 
  57   2.0000      -0.894269       -24.3343 
  58   2.0000      -0.884877       -24.0787 
  59   2.0000      -0.868490       -23.6328 
  60   2.0000      -0.838545       -22.8180 
  61   2.0000      -0.811294       -22.0764 
  62   2.0000      -0.790390       -21.5076 
  63   2.0000      -0.780420       -21.2363 
  64   2.0000      -0.774080       -21.0638 
  65   2.0000      -0.767347       -20.8806 
  66   2.0000      -0.731070       -19.8934 
  67   2.0000      -0.722538       -19.6613 
  68   2.0000      -0.703305       -19.1379 
  69   2.0000      -0.692135       -18.8340 
  70   2.0000      -0.668367       -18.1872 
  71   2.0000      -0.655217       -17.8294 
  72   2.0000      -0.641799       -17.4642 
  73   2.0000      -0.637335       -17.3428 
  74   2.0000      -0.630002       -17.1432 
  75   2.0000      -0.614735       -16.7278 
  76   2.0000      -0.604469       -16.4484 
  77   2.0000      -0.590908       -16.0794 
  78   2.0000      -0.587559       -15.9883 
  79   2.0000      -0.585922       -15.9437 
  80   2.0000      -0.583823       -15.8866 
  81   2.0000      -0.576092       -15.6763 
  82   2.0000      -0.572743       -15.5851 
  83   2.0000      -0.568391       -15.4667 
  84   2.0000      -0.544492       -14.8164 
  85   2.0000      -0.530889       -14.4462 
  86   2.0000      -0.525181       -14.2909 
  87   2.0000      -0.507923       -13.8213 
  88   2.0000      -0.498413       -13.5625 
  89   2.0000      -0.495089       -13.4721 
  90   2.0000      -0.479151       -13.0384 
  91   2.0000      -0.476994       -12.9797 
  92   2.0000      -0.474883       -12.9222 
  93   2.0000      -0.466351       -12.6901 
  94   2.0000      -0.464304       -12.6344 
  95   2.0000      -0.464141       -12.6299 
  96   2.0000      -0.463405       -12.6099 
  97   2.0000      -0.462239       -12.5782 
  98   2.0000      -0.459446       -12.5022 
  99   2.0000      -0.455093       -12.3837 
 100   2.0000      -0.451558       -12.2875 
 101   2.0000      -0.451347       -12.2818 
 102   2.0000      -0.445262       -12.1162 
 103   2.0000      -0.441326       -12.0091 
 104   2.0000      -0.440471       -11.9858 
 105   2.0000      -0.436898       -11.8886 
 106   2.0000      -0.433483       -11.7957 
 107   2.0000      -0.431115       -11.7312 
 108   2.0000      -0.428787       -11.6679 
 109   2.0000      -0.424400       -11.5485 
 110   2.0000      -0.423186       -11.5155 
 111   2.0000      -0.418853       -11.3976 
 112   2.0000      -0.415173       -11.2974 
 113   2.0000      -0.412814       -11.2332 
 114   2.0000      -0.409667       -11.1476 
 115   2.0000      -0.403405       -10.9772 
 116   2.0000      -0.396384       -10.7862 
 117   2.0000      -0.394512       -10.7352 
 118   2.0000      -0.390151       -10.6166 
 119   2.0000      -0.387545       -10.5456 
 120   2.0000      -0.371952       -10.1213 
 121   2.0000      -0.369972       -10.0675 
 122   2.0000      -0.360804        -9.8180 
 123   2.0000      -0.358420        -9.7531 
 124   2.0000      -0.351214        -9.5570 
 125   2.0000      -0.331460        -9.0195 
 126   2.0000      -0.329588        -8.9685 
 127   2.0000      -0.324162        -8.8209 
 128   2.0000      -0.315500        -8.5852 
 129   2.0000      -0.308683        -8.3997 
 130   2.0000      -0.300390        -8.1740 
 131   2.0000      -0.289618        -7.8809 
 132   2.0000      -0.287642        -7.8271 
 133   2.0000      -0.282957        -7.6996 
 134   2.0000      -0.279238        -7.5985 
 135   2.0000      -0.277101        -7.5403 
 136   2.0000      -0.269436        -7.3317 
 137   2.0000      -0.264852        -7.2070 
 138   2.0000      -0.258826        -7.0430 
 139   2.0000      -0.243128        -6.6159 
 140   0.0000      -0.088611        -2.4112 
 141   0.0000      -0.068657        -1.8683 
 142   0.0000      -0.053054        -1.4437 
 143   0.0000      -0.034003        -0.9253 
 144   0.0000      -0.022725        -0.6184 
 145   0.0000      -0.011999        -0.3265 
 146   0.0000       0.006577         0.1790 
 147   0.0000       0.017472         0.4754 
 148   0.0000       0.033004         0.8981 
 149   0.0000       0.039527         1.0756 
 150   0.0000       0.065509         1.7826 
*Only the first 10 virtual orbitals were printed.

                    ********************************
                    * MULLIKEN POPULATION ANALYSIS *
                    ********************************

-----------------------
MULLIKEN ATOMIC CHARGES
-----------------------
   0 O :   -0.442246
   1 C :    0.528887
   2 O :   -0.624049
   3 C :    0.082921
   4 C :   -0.138974
   5 C :   -0.144654
   6 C :   -0.128466
   7 S :    1.217684
   8 O :   -0.529536
   9 O :   -0.532318
  10 N :   -0.613748
  11 C :   -0.232529
  12 C :    0.097159
  13 C :   -0.175469
  14 C :   -0.127673
  15 C :   -0.122670
  16 C :   -0.185572
  17 C :    0.333186
  18 O :   -0.540433
  19 C :    1.096712
  20 F :   -0.272905
  21 F :   -0.290416
  22 F :   -0.294364
  23 C :    0.416829
  24 N :   -0.396136
  25 C :   -0.008553
  26 C :   -0.026283
  27 C :    0.904183
  28 F :   -0.289048
  29 F :   -0.301875
  30 F :   -0.300324
  31 C :   -0.131157
  32 C :   -0.071907
  33 Cl:    0.060710
  34 C :   -0.152920
  35 C :   -0.147222
  36 H :    0.434941
  37 H :    0.184062
  38 H :    0.195995
  39 H :    0.191446
  40 H :    0.172067
  41 H :    0.143735
  42 H :    0.133792
  43 H :    0.142078
  44 H :    0.156794
  45 H :    0.179400
  46 H :    0.191217
  47 H :    0.183983
  48 H :    0.173665
Sum of atomic charges:    0.0000000

--------------------------------
MULLIKEN REDUCED ORBITAL CHARGES
--------------------------------
  0 O s       :     3.878675  s :     3.878675
      pz      :     1.572395  p :     4.537902
      px      :     1.607821
      py      :     1.357686
      dz2     :     0.003570  d :     0.025669
      dxz     :     0.002696
      dyz     :     0.005979
      dx2y2   :     0.007325
      dxy     :     0.006099

  1 C s       :     2.996407  s :     2.996407
      pz      :     0.734628  p :     2.364533
      px      :     0.854321
      py      :     0.775584
      dz2     :     0.022835  d :     0.110173
      dxz     :     0.015299
      dyz     :     0.025928
      dx2y2   :     0.020144
      dxy     :     0.025967

  2 O s       :     3.872511  s :     3.872511
      pz      :     1.537887  p :     4.730652
      px      :     1.471074
      py      :     1.721691
      dz2     :     0.004115  d :     0.020886
      dxz     :     0.003116
      dyz     :     0.005037
      dx2y2   :     0.002886
      dxy     :     0.005733

  3 C s       :     3.165582  s :     3.165582
      pz      :     0.923122  p :     2.713087
      px      :     0.901823
      py      :     0.888141
      dz2     :     0.006886  d :     0.038409
      dxz     :     0.007422
      dyz     :     0.007645
      dx2y2   :     0.008358
      dxy     :     0.008098

  4 C s       :     3.216275  s :     3.216275
      pz      :     0.959176  p :     2.887096
      px      :     0.938588
      py      :     0.989332
      dz2     :     0.006627  d :     0.035603
      dxz     :     0.006857
      dyz     :     0.007063
      dx2y2   :     0.007150
      dxy     :     0.007907

  5 C s       :     3.211376  s :     3.211376
      pz      :     0.999484  p :     2.897363
      px      :     0.957129
      py      :     0.940750
      dz2     :     0.005195  d :     0.035915
      dxz     :     0.007647
      dyz     :     0.007454
      dx2y2   :     0.007788
      dxy     :     0.007831

  6 C s       :     3.221743  s :     3.221743
      pz      :     0.994812  p :     2.867991
      px      :     0.896370
      py      :     0.976809
      dz2     :     0.007303  d :     0.038732
      dxz     :     0.006799
      dyz     :     0.007624
      dx2y2   :     0.008545
      dxy     :     0.008462

  7 S s       :     5.212031  s :     5.212031
      pz      :     3.015453  p :     9.033250
      px      :     3.030640
      py      :     2.987157
      dz2     :     0.085724  d :     0.537035
      dxz     :     0.116048
      dyz     :     0.121835
      dx2y2   :     0.106155
      dxy     :     0.107274

  8 O s       :     3.927806  s :     3.927806
      pz      :     1.457876  p :     4.574782
      px      :     1.595789
      py      :     1.521118
      dz2     :     0.005773  d :     0.026947
      dxz     :     0.004795
      dyz     :     0.006221
      dx2y2   :     0.005179
      dxy     :     0.004979

  9 O s       :     3.927272  s :     3.927272
      pz      :     1.476005  p :     4.578023
      px      :     1.676895
      py      :     1.425123
      dz2     :     0.005603  d :     0.027024
      dxz     :     0.003396
      dyz     :     0.007632
      dx2y2   :     0.005237
      dxy     :     0.005157

 10 N s       :     3.603017  s :     3.603017
      pz      :     1.306680  p :     3.977854
      px      :     1.510597
      py      :     1.160576
      dz2     :     0.006387  d :     0.032877
      dxz     :     0.005912
      dyz     :     0.007604
      dx2y2   :     0.007652
      dxy     :     0.005322

 11 C s       :     3.246617  s :     3.246617
      pz      :     0.938847  p :     2.930641
      px      :     1.014011
      py      :     0.977783
      dz2     :     0.012775  d :     0.055271
      dxz     :     0.011137
      dyz     :     0.011626
      dx2y2   :     0.009893
      dxy     :     0.009841

 12 C s       :     3.123366  s :     3.123366
      pz      :     0.949737  p :     2.741056
      px      :     0.824943
      py      :     0.966376
      dz2     :     0.007622  d :     0.038419
      dxz     :     0.009333
      dyz     :     0.005332
      dx2y2   :     0.008259
      dxy     :     0.007873

 13 C s       :     3.200739  s :     3.200739
      pz      :     0.990230  p :     2.938287
      px      :     0.966621
      py      :     0.981435
      dz2     :     0.005318  d :     0.036443
      dxz     :     0.009966
      dyz     :     0.005674
      dx2y2   :     0.006376
      dxy     :     0.009110

 14 C s       :     3.183728  s :     3.183728
      pz      :     0.981143  p :     2.907925
      px      :     0.939765
      py      :     0.987017
      dz2     :     0.005050  d :     0.036020
      dxz     :     0.009695
      dyz     :     0.005892
      dx2y2   :     0.007164
      dxy     :     0.008219

 15 C s       :     3.189578  s :     3.189578
      pz      :     0.950978  p :     2.896412
      px      :     0.987854
      py      :     0.957581
      dz2     :     0.008622  d :     0.036679
      dxz     :     0.006907
      dyz     :     0.005504
      dx2y2   :     0.010282
      dxy     :     0.005364

 16 C s       :     3.178777  s :     3.178777
      pz      :     1.016565  p :     2.972400
      px      :     0.938950
      py      :     1.016885
      dz2     :     0.005291  d :     0.034396
      dxz     :     0.008925
      dyz     :     0.005536
      dx2y2   :     0.006833
      dxy     :     0.007811

 17 C s       :     3.091860  s :     3.091860
      pz      :     0.771441  p :     2.510065
      px      :     0.857121
      py      :     0.881503
      dz2     :     0.013738  d :     0.064889
      dxz     :     0.016111
      dyz     :     0.010420
      dx2y2   :     0.011461
      dxy     :     0.013159

 18 O s       :     3.892392  s :     3.892392
      pz      :     1.425627  p :     4.622042
      px      :     1.630803
      py      :     1.565612
      dz2     :     0.004009  d :     0.025998
      dxz     :     0.007739
      dyz     :     0.004550
      dx2y2   :     0.003620
      dxy     :     0.006080

 19 C s       :     2.713270  s :     2.713270
      pz      :     0.694346  p :     2.024737
      px      :     0.648064
      py      :     0.682327
      dz2     :     0.024340  d :     0.165281
      dxz     :     0.039105
      dyz     :     0.038654
      dx2y2   :     0.024941
      dxy     :     0.038242

 20 F s       :     3.980678  s :     3.980678
      pz      :     1.747144  p :     5.275872
      px      :     1.692247
      py      :     1.836480
      dz2     :     0.002461  d :     0.016355
      dxz     :     0.005288
      dyz     :     0.002475
      dx2y2   :     0.002626
      dxy     :     0.003505

 21 F s       :     3.982966  s :     3.982966
      pz      :     1.774249  p :     5.291157
      px      :     1.743231
      py      :     1.773678
      dz2     :     0.002464  d :     0.016293
      dxz     :     0.003943
      dyz     :     0.003621
      dx2y2   :     0.002391
      dxy     :     0.003874

 22 F s       :     3.982339  s :     3.982339
      pz      :     1.821132  p :     5.295841
      px      :     1.798107
      py      :     1.676601
      dz2     :     0.001990  d :     0.016184
      dxz     :     0.002382
      dyz     :     0.004147
      dx2y2   :     0.003201
      dxy     :     0.004465

 23 C s       :     3.015906  s :     3.015906
      pz      :     0.859665  p :     2.492799
      px      :     0.894228
      py      :     0.738906
      dz2     :     0.014119  d :     0.074466
      dxz     :     0.009953
      dyz     :     0.017785
      dx2y2   :     0.016860
      dxy     :     0.015749

 24 N s       :     3.701144  s :     3.701144
      pz      :     1.256852  p :     3.659838
      px      :     1.304530
      py      :     1.098456
      dz2     :     0.008267  d :     0.035154
      dxz     :     0.005889
      dyz     :     0.006595
      dx2y2   :     0.006301
      dxy     :     0.008102

 25 C s       :     3.154414  s :     3.154414
      pz      :     0.972253  p :     2.801240
      px      :     0.946623
      py      :     0.882364
      dz2     :     0.007506  d :     0.052899
      dxz     :     0.005754
      dyz     :     0.016205
      dx2y2   :     0.011021
      dxy     :     0.012413

 26 C s       :     3.172442  s :     3.172442
      pz      :     0.927481  p :     2.816632
      px      :     0.967091
      py      :     0.922059
      dz2     :     0.008540  d :     0.037209
      dxz     :     0.005678
      dyz     :     0.007799
      dx2y2   :     0.008709
      dxy     :     0.006482

 27 C s       :     2.801136  s :     2.801136
      pz      :     0.622508  p :     2.156063
      px      :     0.637214
      py      :     0.896341
      dz2     :     0.033245  d :     0.138618
      dxz     :     0.029588
      dyz     :     0.022789
      dx2y2   :     0.028973
      dxy     :     0.024024

 28 F s       :     3.977556  s :     3.977556
      pz      :     1.783093  p :     5.294932
      px      :     1.726558
      py      :     1.785281
      dz2     :     0.002432  d :     0.016560
      dxz     :     0.003902
      dyz     :     0.003069
      dx2y2   :     0.003167
      dxy     :     0.003990

 29 F s       :     3.981384  s :     3.981384
      pz      :     1.515522  p :     5.304042
      px      :     1.901571
      py      :     1.886949
      dz2     :     0.007658  d :     0.016449
      dxz     :     0.003329
      dyz     :     0.004376
      dx2y2   :     0.000622
      dxy     :     0.000465

 30 F s       :     3.981258  s :     3.981258
      pz      :     1.859186  p :     5.302588
      px      :     1.542611
      py      :     1.900791
      dz2     :     0.002193  d :     0.016478
      dxz     :     0.004427
      dyz     :     0.000696
      dx2y2   :     0.005383
      dxy     :     0.003780

 31 C s       :     3.207033  s :     3.207033
      pz      :     0.961074  p :     2.888877
      px      :     0.980219
      py      :     0.947584
      dz2     :     0.006142  d :     0.035247
      dxz     :     0.006678
      dyz     :     0.008712
      dx2y2   :     0.006226
      dxy     :     0.007490

 32 C s       :     3.188036  s :     3.188036
      pz      :     0.916681  p :     2.836597
      px      :     0.959875
      py      :     0.960041
      dz2     :     0.009559  d :     0.047274
      dxz     :     0.007641
      dyz     :     0.011675
      dx2y2   :     0.009132
      dxy     :     0.009267

 33 Cls       :     5.925684  s :     5.925684
      pz      :     3.492052  p :    10.983809
      px      :     3.768689
      py      :     3.723068
      dz2     :     0.006514  d :     0.029798
      dxz     :     0.007046
      dyz     :     0.009712
      dx2y2   :     0.001939
      dxy     :     0.004586

 34 C s       :     3.201613  s :     3.201613
      pz      :     0.947056  p :     2.915367
      px      :     0.959900
      py      :     1.008412
      dz2     :     0.006934  d :     0.035941
      dxz     :     0.006949
      dyz     :     0.006799
      dx2y2   :     0.006948
      dxy     :     0.008310

 35 C s       :     3.210501  s :     3.210501
      pz      :     0.980981  p :     2.901014
      px      :     0.948496
      py      :     0.971537
      dz2     :     0.005055  d :     0.035707
      dxz     :     0.007293
      dyz     :     0.007760
      dx2y2   :     0.007741
      dxy     :     0.007858

 36 H s       :     0.565059  s :     0.565059

 37 H s       :     0.815938  s :     0.815938

 38 H s       :     0.804005  s :     0.804005

 39 H s       :     0.808554  s :     0.808554

 40 H s       :     0.827933  s :     0.827933

 41 H s       :     0.856265  s :     0.856265

 42 H s       :     0.866208  s :     0.866208

 43 H s       :     0.857922  s :     0.857922

 44 H s       :     0.843206  s :     0.843206

 45 H s       :     0.820600  s :     0.820600

 46 H s       :     0.808783  s :     0.808783

 47 H s       :     0.816017  s :     0.816017

 48 H s       :     0.826335  s :     0.826335



                     *******************************
                     * LOEWDIN POPULATION ANALYSIS *
                     *******************************

----------------------
LOEWDIN ATOMIC CHARGES
----------------------
   0 O :   -0.258548
   1 C :    0.179989
   2 O :   -0.334820
   3 C :   -0.038333
   4 C :   -0.083876
   5 C :   -0.098146
   6 C :   -0.173829
   7 S :    1.262759
   8 O :   -0.560686
   9 O :   -0.565993
  10 N :   -0.282319
  11 C :   -0.145798
  12 C :   -0.050245
  13 C :   -0.124549
  14 C :   -0.137612
  15 C :   -0.116018
  16 C :   -0.155416
  17 C :    0.098649
  18 O :   -0.150032
  19 C :    0.363896
  20 F :   -0.080950
  21 F :   -0.102504
  22 F :   -0.106908
  23 C :    0.062288
  24 N :   -0.124998
  25 C :   -0.053859
  26 C :   -0.074649
  27 C :    0.312926
  28 F :   -0.107033
  29 F :   -0.109471
  30 F :   -0.109133
  31 C :   -0.086401
  32 C :   -0.078484
  33 Cl:    0.088739
  34 C :   -0.109677
  35 C :   -0.098661
  36 H :    0.350329
  37 H :    0.162306
  38 H :    0.166531
  39 H :    0.152955
  40 H :    0.133556
  41 H :    0.139631
  42 H :    0.134627
  43 H :    0.138723
  44 H :    0.144209
  45 H :    0.150184
  46 H :    0.164420
  47 H :    0.157150
  48 H :    0.155081

-------------------------------
LOEWDIN REDUCED ORBITAL CHARGES
-------------------------------
  0 O s       :     3.593236  s :     3.593236
      pz      :     1.577989  p :     4.615347
      px      :     1.614453
      py      :     1.422905
      dz2     :     0.006532  d :     0.049965
      dxz     :     0.004414
      dyz     :     0.012596
      dx2y2   :     0.013111
      dxy     :     0.013313

  1 C s       :     2.863226  s :     2.863226
      pz      :     0.848625  p :     2.704449
      px      :     0.928398
      py      :     0.927426
      dz2     :     0.049808  d :     0.252336
      dxz     :     0.034458
      dyz     :     0.063050
      dx2y2   :     0.045445
      dxy     :     0.059575

  2 O s       :     3.540374  s :     3.540374
      pz      :     1.548678  p :     4.752702
      px      :     1.481665
      py      :     1.722359
      dz2     :     0.008037  d :     0.041744
      dxz     :     0.008151
      dyz     :     0.010511
      dx2y2   :     0.005510
      dxy     :     0.009535

  3 C s       :     2.880116  s :     2.880116
      pz      :     1.023848  p :     3.058739
      px      :     0.999804
      py      :     1.035087
      dz2     :     0.016751  d :     0.099478
      dxz     :     0.018690
      dyz     :     0.020769
      dx2y2   :     0.021372
      dxy     :     0.021896

  4 C s       :     2.920709  s :     2.920709
      pz      :     1.006980  p :     3.080390
      px      :     1.022113
      py      :     1.051296
      dz2     :     0.015073  d :     0.082777
      dxz     :     0.018248
      dyz     :     0.015171
      dx2y2   :     0.016353
      dxy     :     0.017932

  5 C s       :     2.918425  s :     2.918425
      pz      :     1.036632  p :     3.094984
      px      :     1.035003
      py      :     1.023349
      dz2     :     0.011857  d :     0.084737
      dxz     :     0.016303
      dyz     :     0.016157
      dx2y2   :     0.018843
      dxy     :     0.021577

  6 C s       :     2.930862  s :     2.930862
      pz      :     1.060106  p :     3.144822
      px      :     1.015863
      py      :     1.068853
      dz2     :     0.017215  d :     0.098145
      dxz     :     0.017535
      dyz     :     0.020198
      dx2y2   :     0.021321
      dxy     :     0.021876

  7 S s       :     5.103152  s :     5.103152
      pz      :     2.972639  p :     8.955559
      px      :     3.005208
      py      :     2.977711
      dz2     :     0.100450  d :     0.678531
      dxz     :     0.151384
      dyz     :     0.160910
      dx2y2   :     0.131015
      dxy     :     0.134771

  8 O s       :     3.711982  s :     3.711982
      pz      :     1.542482  p :     4.792490
      px      :     1.648632
      py      :     1.601376
      dz2     :     0.008229  d :     0.056214
      dxz     :     0.010737
      dyz     :     0.016809
      dx2y2   :     0.008100
      dxy     :     0.012339

  9 O s       :     3.713512  s :     3.713512
      pz      :     1.555973  p :     4.796306
      px      :     1.707395
      py      :     1.532938
      dz2     :     0.008023  d :     0.056174
      dxz     :     0.005589
      dyz     :     0.021234
      dx2y2   :     0.011824
      dxy     :     0.009505

 10 N s       :     3.177133  s :     3.177133
      pz      :     1.340021  p :     4.021680
      px      :     1.496641
      py      :     1.185018
      dz2     :     0.016308  d :     0.083506
      dxz     :     0.015434
      dyz     :     0.020658
      dx2y2   :     0.017691
      dxy     :     0.013415

 11 C s       :     2.919372  s :     2.919372
      pz      :     1.010851  p :     3.108456
      px      :     1.059174
      py      :     1.038431
      dz2     :     0.027922  d :     0.117970
      dxz     :     0.022927
      dyz     :     0.025168
      dx2y2   :     0.021739
      dxy     :     0.020213

 12 C s       :     2.876703  s :     2.876703
      pz      :     1.034369  p :     3.077222
      px      :     1.016802
      py      :     1.026050
      dz2     :     0.018088  d :     0.096320
      dxz     :     0.023690
      dyz     :     0.013920
      dx2y2   :     0.021192
      dxy     :     0.019429

 13 C s       :     2.917346  s :     2.917346
      pz      :     1.030865  p :     3.121830
      px      :     1.072658
      py      :     1.018307
      dz2     :     0.012479  d :     0.085373
      dxz     :     0.024165
      dyz     :     0.010921
      dx2y2   :     0.017016
      dxy     :     0.020792

 14 C s       :     2.914680  s :     2.914680
      pz      :     1.041046  p :     3.137639
      px      :     1.068933
      py      :     1.027660
      dz2     :     0.011722  d :     0.085292
      dxz     :     0.023338
      dyz     :     0.011250
      dx2y2   :     0.018995
      dxy     :     0.019987

 15 C s       :     2.916301  s :     2.916301
      pz      :     1.027073  p :     3.113392
      px      :     1.076129
      py      :     1.010189
      dz2     :     0.019406  d :     0.086325
      dxz     :     0.017505
      dyz     :     0.015007
      dx2y2   :     0.021245
      dxy     :     0.013162

 16 C s       :     2.919158  s :     2.919158
      pz      :     1.058228  p :     3.154950
      px      :     1.050288
      py      :     1.046434
      dz2     :     0.012489  d :     0.081307
      dxz     :     0.021744
      dyz     :     0.011214
      dx2y2   :     0.017994
      dxy     :     0.017866

 17 C s       :     2.859237  s :     2.859237
      pz      :     0.904479  p :     2.888436
      px      :     1.037354
      py      :     0.946603
      dz2     :     0.030661  d :     0.153678
      dxz     :     0.039482
      dyz     :     0.024352
      dx2y2   :     0.028421
      dxy     :     0.030762

 18 O s       :     3.470477  s :     3.470477
      pz      :     1.431213  p :     4.622429
      px      :     1.633728
      py      :     1.557488
      dz2     :     0.009664  d :     0.057125
      dxz     :     0.016299
      dyz     :     0.013011
      dx2y2   :     0.006386
      dxy     :     0.011765

 19 C s       :     2.818606  s :     2.818606
      pz      :     0.821748  p :     2.439083
      px      :     0.802147
      py      :     0.815188
      dz2     :     0.047580  d :     0.378415
      dxz     :     0.094875
      dyz     :     0.092875
      dx2y2   :     0.050893
      dxy     :     0.092192

 20 F s       :     3.760641  s :     3.760641
      pz      :     1.752713  p :     5.289474
      px      :     1.703184
      py      :     1.833577
      dz2     :     0.003759  d :     0.030835
      dxz     :     0.010989
      dyz     :     0.004791
      dx2y2   :     0.004580
      dxy     :     0.006716

 21 F s       :     3.765016  s :     3.765016
      pz      :     1.776338  p :     5.306203
      px      :     1.750599
      py      :     1.779267
      dz2     :     0.003766  d :     0.031284
      dxz     :     0.008650
      dyz     :     0.007101
      dx2y2   :     0.003793
      dxy     :     0.007973

 22 F s       :     3.764694  s :     3.764694
      pz      :     1.822184  p :     5.310966
      px      :     1.802066
      py      :     1.686716
      dz2     :     0.003534  d :     0.031248
      dxz     :     0.004634
      dyz     :     0.008268
      dx2y2   :     0.005139
      dxy     :     0.009673

 23 C s       :     2.847972  s :     2.847972
      pz      :     1.001114  p :     2.910862
      px      :     0.979480
      py      :     0.930268
      dz2     :     0.032954  d :     0.178877
      dxz     :     0.025522
      dyz     :     0.043566
      dx2y2   :     0.040861
      dxy     :     0.035974

 24 N s       :     3.244159  s :     3.244159
      pz      :     1.296017  p :     3.802375
      px      :     1.305446
      py      :     1.200912
      dz2     :     0.016951  d :     0.078464
      dxz     :     0.010440
      dyz     :     0.018141
      dx2y2   :     0.014763
      dxy     :     0.018170

 25 C s       :     2.914876  s :     2.914876
      pz      :     1.030116  p :     3.017518
      px      :     0.987116
      py      :     1.000286
      dz2     :     0.016695  d :     0.121465
      dxz     :     0.011612
      dyz     :     0.036837
      dx2y2   :     0.026028
      dxy     :     0.030293

 26 C s       :     2.895673  s :     2.895673
      pz      :     1.046601  p :     3.082996
      px      :     1.028560
      py      :     1.007835
      dz2     :     0.021102  d :     0.095980
      dxz     :     0.015362
      dyz     :     0.021188
      dx2y2   :     0.021783
      dxy     :     0.016545

 27 C s       :     2.848406  s :     2.848406
      pz      :     0.769012  p :     2.508781
      px      :     0.779558
      py      :     0.960212
      dz2     :     0.083872  d :     0.329887
      dxz     :     0.069587
      dyz     :     0.049921
      dx2y2   :     0.072188
      dxy     :     0.054318

 28 F s       :     3.762175  s :     3.762175
      pz      :     1.788706  p :     5.313362
      px      :     1.734992
      py      :     1.789664
      dz2     :     0.003980  d :     0.031496
      dxz     :     0.007626
      dyz     :     0.006150
      dx2y2   :     0.005358
      dxy     :     0.008382

 29 F s       :     3.759575  s :     3.759575
      pz      :     1.537516  p :     5.318819
      px      :     1.897737
      py      :     1.883566
      dz2     :     0.015575  d :     0.031076
      dxz     :     0.005306
      dyz     :     0.008562
      dx2y2   :     0.001023
      dxy     :     0.000610

 30 F s       :     3.759767  s :     3.759767
      pz      :     1.858656  p :     5.318175
      px      :     1.563196
      py      :     1.896323
      dz2     :     0.004042  d :     0.031191
      dxz     :     0.008135
      dyz     :     0.001216
      dx2y2   :     0.010731
      dxy     :     0.007067

 31 C s       :     2.922684  s :     2.922684
      pz      :     1.029255  p :     3.080323
      px      :     1.004447
      py      :     1.046621
      dz2     :     0.014399  d :     0.083394
      dxz     :     0.012696
      dyz     :     0.022836
      dx2y2   :     0.016644
      dxy     :     0.016818

 32 C s       :     2.924411  s :     2.924411
      pz      :     0.976986  p :     3.041744
      px      :     1.010415
      py      :     1.054343
      dz2     :     0.020971  d :     0.112330
      dxz     :     0.018564
      dyz     :     0.028284
      dx2y2   :     0.022380
      dxy     :     0.022130

 33 Cls       :     5.805129  s :     5.805129
      pz      :     3.537451  p :    11.072276
      px      :     3.789727
      py      :     3.745098
      dz2     :     0.007227  d :     0.033857
      dxz     :     0.008109
      dyz     :     0.011267
      dx2y2   :     0.001997
      dxy     :     0.005258

 34 C s       :     2.916926  s :     2.916926
      pz      :     1.016800  p :     3.107366
      px      :     1.037843
      py      :     1.052724
      dz2     :     0.015750  d :     0.085384
      dxz     :     0.019574
      dyz     :     0.014896
      dx2y2   :     0.016428
      dxy     :     0.018735

 35 C s       :     2.919671  s :     2.919671
      pz      :     1.031654  p :     3.095434
      px      :     1.030511
      py      :     1.033270
      dz2     :     0.011447  d :     0.083556
      dxz     :     0.015986
      dyz     :     0.016338
      dx2y2   :     0.018753
      dxy     :     0.021033

 36 H s       :     0.649671  s :     0.649671

 37 H s       :     0.837694  s :     0.837694

 38 H s       :     0.833469  s :     0.833469

 39 H s       :     0.847045  s :     0.847045

 40 H s       :     0.866444  s :     0.866444

 41 H s       :     0.860369  s :     0.860369

 42 H s       :     0.865373  s :     0.865373

 43 H s       :     0.861277  s :     0.861277

 44 H s       :     0.855791  s :     0.855791

 45 H s       :     0.849816  s :     0.849816

 46 H s       :     0.835580  s :     0.835580

 47 H s       :     0.842850  s :     0.842850

 48 H s       :     0.844919  s :     0.844919



                      *****************************
                      * MAYER POPULATION ANALYSIS *
                      *****************************

  NA   - Mulliken gross atomic population
  ZA   - Total nuclear charge
  QA   - Mulliken gross atomic charge
  VA   - Mayer's total valence
  BVA  - Mayer's bonded valence
  FA   - Mayer's free valence

  ATOM       NA         ZA         QA         VA         BVA        FA
  0 O      8.4422     8.0000    -0.4422     2.0691     2.0691    -0.0000
  1 C      5.4711     6.0000     0.5289     3.9537     3.9537    -0.0000
  2 O      8.6240     8.0000    -0.6240     1.8687     1.8687     0.0000
  3 C      5.9171     6.0000     0.0829     3.9272     3.9272     0.0000
  4 C      6.1390     6.0000    -0.1390     3.8914     3.8914     0.0000
  5 C      6.1447     6.0000    -0.1447     3.9172     3.9172     0.0000
  6 C      6.1285     6.0000    -0.1285     3.8271     3.8271     0.0000
  7 S     14.7823    16.0000     1.2177     5.0674     5.0674     0.0000
  8 O      8.5295     8.0000    -0.5295     1.9124     1.9124    -0.0000
  9 O      8.5323     8.0000    -0.5323     1.8997     1.8997     0.0000
 10 N      7.6137     7.0000    -0.6137     2.7919     2.7919     0.0000
 11 C      6.2325     6.0000    -0.2325     3.8135     3.8135     0.0000
 12 C      5.9028     6.0000     0.0972     3.8989     3.8989     0.0000
 13 C      6.1755     6.0000    -0.1755     3.9586     3.9586     0.0000
 14 C      6.1277     6.0000    -0.1277     3.9404     3.9404     0.0000
 15 C      6.1227     6.0000    -0.1227     3.9527     3.9527     0.0000
 16 C      6.1856     6.0000    -0.1856     3.8985     3.8985     0.0000
 17 C      5.6668     6.0000     0.3332     3.8028     3.8028    -0.0000
 18 O      8.5404     8.0000    -0.5404     1.9738     1.9738    -0.0000
 19 C      4.9033     6.0000     1.0967     3.9846     3.9846    -0.0000
 20 F      9.2729     9.0000    -0.2729     1.0961     1.0961    -0.0000
 21 F      9.2904     9.0000    -0.2904     1.0674     1.0674    -0.0000
 22 F      9.2944     9.0000    -0.2944     1.0625     1.0625     0.0000
 23 C      5.5832     6.0000     0.4168     3.8774     3.8774    -0.0000
 24 N      7.3961     7.0000    -0.3961     2.9734     2.9734     0.0000
 25 C      6.0086     6.0000    -0.0086     3.8846     3.8846     0.0000
 26 C      6.0263     6.0000    -0.0263     3.9305     3.9305     0.0000
 27 C      5.0958     6.0000     0.9042     3.9179     3.9179    -0.0000
 28 F      9.2890     9.0000    -0.2890     1.0659     1.0659    -0.0000
 29 F      9.3019     9.0000    -0.3019     1.0592     1.0592    -0.0000
 30 F      9.3003     9.0000    -0.3003     1.0608     1.0608     0.0000
 31 C      6.1312     6.0000    -0.1312     3.8764     3.8764     0.0000
 32 C      6.0719     6.0000    -0.0719     3.9594     3.9594     0.0000
 33 Cl    16.9393    17.0000     0.0607     1.1974     1.1974    -0.0000
 34 C      6.1529     6.0000    -0.1529     3.9108     3.9108    -0.0000
 35 C      6.1472     6.0000    -0.1472     3.8801     3.8801     0.0000
 36 H      0.5651     1.0000     0.4349     0.7948     0.7948     0.0000
 37 H      0.8159     1.0000     0.1841     0.9377     0.9377    -0.0000
 38 H      0.8040     1.0000     0.1960     0.9340     0.9340     0.0000
 39 H      0.8086     1.0000     0.1914     0.9324     0.9324     0.0000
 40 H      0.8279     1.0000     0.1721     0.9281     0.9281     0.0000
 41 H      0.8563     1.0000     0.1437     0.9405     0.9405    -0.0000
 42 H      0.8662     1.0000     0.1338     0.9367     0.9367     0.0000
 43 H      0.8579     1.0000     0.1421     0.9355     0.9355    -0.0000
 44 H      0.8432     1.0000     0.1568     0.9486     0.9486    -0.0000
 45 H      0.8206     1.0000     0.1794     0.9335     0.9335     0.0000
 46 H      0.8088     1.0000     0.1912     0.9345     0.9345     0.0000
 47 H      0.8160     1.0000     0.1840     0.9375     0.9375     0.0000
 48 H      0.8263     1.0000     0.1737     0.9362     0.9362    -0.0000

  Mayer bond orders larger than 0.100000
B(  0-O ,  1-C ) :   1.8642 B(  1-C ,  2-O ) :   1.0250 B(  1-C ,  3-C ) :   1.0075 
B(  2-O , 36-H ) :   0.7413 B(  3-C ,  4-C ) :   1.4018 B(  3-C , 35-C ) :   1.3842 
B(  4-C ,  5-C ) :   1.4175 B(  4-C , 37-H ) :   0.9086 B(  5-C ,  6-C ) :   1.3962 
B(  5-C , 38-H ) :   0.9063 B(  6-C ,  7-S ) :   0.8087 B(  6-C , 34-C ) :   1.3812 
B(  7-S ,  8-O ) :   1.6469 B(  7-S ,  9-O ) :   1.6624 B(  7-S , 10-N ) :   0.7700 
B( 10-N , 11-C ) :   0.9154 B( 10-N , 23-C ) :   0.9386 B( 11-C , 12-C ) :   0.9626 
B( 11-C , 39-H ) :   0.9105 B( 11-C , 40-H ) :   0.9189 B( 12-C , 13-C ) :   1.4396 
B( 12-C , 17-C ) :   1.3883 B( 13-C , 14-C ) :   1.4403 B( 13-C , 41-H ) :   0.9190 
B( 14-C , 15-C ) :   1.4524 B( 14-C , 42-H ) :   0.9283 B( 15-C , 16-C ) :   1.4441 
B( 15-C , 43-H ) :   0.9280 B( 16-C , 17-C ) :   1.3811 B( 16-C , 44-H ) :   0.9078 
B( 17-C , 18-O ) :   0.8434 B( 18-O , 19-C ) :   0.9740 B( 19-C , 20-F ) :   1.0130 
B( 19-C , 21-F ) :   0.9686 B( 19-C , 22-F ) :   0.9634 B( 23-C , 24-N ) :   1.3761 
B( 23-C , 32-C ) :   1.3401 B( 24-N , 25-C ) :   1.4072 B( 25-C , 26-C ) :   1.3646 
B( 25-C , 45-H ) :   0.9186 B( 26-C , 27-C ) :   0.9727 B( 26-C , 31-C ) :   1.4082 
B( 27-C , 28-F ) :   0.9924 B( 27-C , 29-F ) :   0.9489 B( 27-C , 30-F ) :   0.9522 
B( 31-C , 32-C ) :   1.3881 B( 31-C , 46-H ) :   0.9076 B( 32-C , 33-Cl) :   1.0867 
B( 34-C , 35-C ) :   1.4291 B( 34-C , 47-H ) :   0.9053 B( 35-C , 48-H ) :   0.9146 


-------
TIMINGS
-------

Total SCF time: 0 days 0 hours 6 min 41 sec 

Total time                  ....     401.747 sec
Sum of individual times     ....     401.351 sec  ( 99.9%)

SCF preparation             ....       0.369 sec  (  0.1%)
Fock matrix formation       ....     398.250 sec  ( 99.1%)
  Startup                   ....       0.131 sec  (  0.0% of F)
  Split-RI-J                ....      54.832 sec  ( 13.8% of F)
  Chain of spheres X        ....     309.432 sec  ( 77.7% of F)
  XC integration            ....      32.754 sec  (  8.2% of F)
    XC Preparation          ....       0.000 sec  (  0.0% of XC)
    Basis function eval.    ....      12.636 sec  ( 38.6% of XC)
    Density eval.           ....       8.076 sec  ( 24.7% of XC)
    XC-Functional eval.     ....       1.433 sec  (  4.4% of XC)
    XC-Potential eval.      ....       9.038 sec  ( 27.6% of XC)
Diagonalization             ....       0.000 sec  (  0.0%)
Density matrix formation    ....       0.468 sec  (  0.1%)
Total Energy calculation    ....       0.100 sec  (  0.0%)
Population analysis         ....       0.071 sec  (  0.0%)
Orbital Transformation      ....       0.314 sec  (  0.1%)
Orbital Orthonormalization  ....       0.000 sec  (  0.0%)
DIIS solution               ....       1.109 sec  (  0.3%)
SOSCF solution              ....       0.670 sec  (  0.2%)
Finished LeanSCF after 401.8 sec

Maximum memory used throughout the entire LEANSCF-calculation: 91.1 MB

-------------------------   --------------------
FINAL SINGLE POINT ENERGY     -2749.920864642300
-------------------------   --------------------


------------------------------------------------------------------------------
                              ORCA PROPERTY CALCULATIONS
------------------------------------------------------------------------------

GBWName                                 ... /home/nmrbox/aojoawo/Documents/ERDOS/inputs/CHEMBL3353595.gbw
Number of atoms                         ...     49
Number of basis functions               ...    538
Max core memory                         ...   1024 MB

Electric properties:
Dipole moment                           ... YES
Quadrupole moment                       ...  NO
Static polarizability (Dipole/Dipole)   ...  NO
Static polarizability (Dipole/Quad.)    ...  NO
Static polarizability (Quad./Quad.)     ...  NO
Static polarizability (Velocity)        ...  NO

Atomic electric properties:
Dipole moment                           ...  NO
Quadrupole moment                       ...  NO
Static polarizability                   ...  NO

Choice of electric origin               ... Center of mass
Position of electric origin             ...    -0.363457     0.343428    -1.102020

General magnetic properties:
Magnetizability                         ...  NO

EPR properties:
g-Tensor (aka g-matrix)                 ...  NO
Zero-Field splitting spin-orbit         ...  NO
Zero-field splitting spin-spin          ...  NO
Hyperfine couplings                     ...  NO (   0 nuclei)
Quadrupole couplings                    ...  NO (   0 nuclei)
Contact density                         ...  NO (   0 nuclei)

NMR properties:
Chemical shifts                         ...  NO (   0 nuclei)
Spin-rotation constants                 ...  NO (   0 nuclei)
Spin-spin couplings                     ...  NO (   0 nuclei,    0 pairs)

Choice of magnetic origin               ... GIAO
Position of magnetic origin             ...     0.000000     0.000000     0.000000

Properties with geometric perturbations:
SCF Hessian                             ...  NO
IR spectrum                             ...  NO
VCD spectrum                            ...  NO
X-ray spectroscopy properties:
SCF XES/XAS/RIXS spectra                ...  NO


-------------
DIPOLE MOMENT
-------------

Method             : SCF
Type of density    : Electron Density
Multiplicity       :   1
Irrep              :   0
Energy             : -2749.9208646422998754 Eh
Relativity type    : 
Basis              : AO
                                X                 Y                 Z
Electronic contribution:    -19.483899047      14.594746176     -17.015855178
Nuclear contribution   :     19.390887196     -14.328947153      19.436623844
                        -----------------------------------------
Total Dipole Moment    :     -0.093011851       0.265799023       2.420768667
                        -----------------------------------------
Magnitude (a.u.)       :      2.437092789
Magnitude (Debye)      :      6.194597578



--------------------
Rotational spectrum 
--------------------
 
Rotational constants in cm-1:             0.003423             0.002344             0.001650 
Rotational constants in MHz :           102.613811            70.282391            49.468967 

Dipole components along the rotational axes: 
x,y,z [a.u.] :    -0.333253     0.692547     2.312735 
x,y,z [Debye]:    -0.847061     1.760314     5.878505 

 

Dipole moment calculation done in   0.0 sec 

Maximum memory used throughout the entire PROP-calculation: 45.5 MB

--------------------------------
SUGGESTED CITATIONS FOR THIS RUN
--------------------------------

Below you find a list of papers that are relevant to this ORCA run
We neither can nor want to force you to cite these papers, but we appreciate if you do
You receive ORCA, which is the product of decades of hard work by many enthusiastic individuals, for free
The only thing we kindly ask in return is that you cite our papers,
We deeply appreciate it, if you show your appreciation for ORCA by not just citing the generic ORCA reference.

Please note that relegating all ORCA citations to the supporting information does *not* help us.
SI sections are not indexed - citations you put there will not count into any citation statistics
But we need these citations in order to attract the funding resources that allow us to do what we are doing

Therefore, if you are a happy ORCA user, please consider citing a few of the papers listed below in the main body of your paper

In addition to the list printed below, the program has created the file /home/nmrbox/aojoawo/Documents/ERDOS/inputs/CHEMBL3353595.bibtex that contains the list in bibtex format
You can import this file easily into all common literature databanks and citation aid programs


List of essential papers. We consider these as the minimum necessary citations

  1. Neese,F.
     Software update: the ORCA program system, version 5.0
     WIRES Comput. Molec. Sci., 2022 12(1)e1606
     doi.org/10.1002/wcms.1606

List of papers to cite with high priority. The work reported in these papers was absolutely
necessary for this run to complete.
Our perspective: the developers of density functionals and basis sets usually get cited in chemistry papers
Good! But without the algorithms to do something with them, the functionals or basis sets would not do anything.
Hence, in our opinion, the algorithm design and method developments papers are equally worthy of getting cited

  1. Neese,F.
     An improvement of the resolution of the identity approximation for the formation of the Coulomb matrix
     J. Comp. Chem., 2003 24(14)1740-1747
     doi.org/10.1002/jcc.10318
  2. Neese,F.; Wennmohs,F.; Hansen,A.; Becker,U.
     Efficient, approximate and parallel Hartree-Fock and hybrid DFT calculations. A 'chain-of-spheres' algorithm for the Hartree-Fock exchange
     Chem. Phys., 2009 356(1-3)98-109
     doi.org/10.1016/j.chemphys.2008.10.036
  3. Helmich-Paris,B.; de Souza,B.; Neese,F.; Izsák,R.
     An improved chain of spheres for exchange algorithm
     J. Chem. Phys., 2021 155 104109
     doi.org/doi: 10.1063/5.0058766.
  4. Neese,F.
     The SHARK Integral Generation and Digestion System
     J. Comp. Chem., 2022  1-16
     doi.org/10.1002/jcc.26942

List of suggested additional citations. These are papers that are important in the 'surrounding' of 
of this run, or papers that preceded the highly important papers. If you like your results we are grateful for a citation.

  1. Izsak,R.; Neese,F.
     An overlap fitted chain of spheres exchange method
     J. Chem. Phys., 2011 135 144105
     doi.org/10.1063/1.3646921
  2. Izsak,R.; Hansen,A.; Neese,F.
     The resolution of identity and chain of spheres approximations for the LPNO-CCSD singles Fock term
     Molec. Phys., 2012 110 2413-2417
     doi.org/10.1080/00268976.2012.687466
  3. Neese,F.
     The ORCA program system
     WIRES Comput. Molec. Sci., 2012 2(1)73-78
     doi.org/10.1002/wcms.81
  4. Izsak,R.; Neese,F.; Klopper,W.
     Robust fitting techniques in the chain of spheres approximation to the Fock exchange: The role of the complementary space
     J. Chem. Phys., 2013 139 
     doi.org/10.1063/1.4819264
  5. Neese,F.
     Software update: the ORCA program system, version 4.0
     WIRES Comput. Molec. Sci., 2018 8(1)1-6
     doi.org/10.1002/wcms.1327
  6. Neese,F.; Wennmohs,F.; Becker,U.; Riplinger,C.
     The ORCA quantum chemistry program package
     J. Chem. Phys., 2020 152 Art. No. L224108
     doi.org/10.1063/5.0004608

List of optional additional citations

  1. Neese,F.
     Approximate second-order SCF convergence for spin unrestricted wavefunctions
     Chem. Phys. Lett., 2000 325(1-3)93-98
     doi.org/10.1016/s0009-2614(00)00662-x

Timings for individual modules:

Sum of individual times          ...      418.318 sec (=   6.972 min)
Startup calculation              ...       10.605 sec (=   0.177 min)   2.5 %
SCF iterations                   ...      407.540 sec (=   6.792 min)  97.4 %
Property calculations            ...        0.172 sec (=   0.003 min)   0.0 %
                             ****ORCA TERMINATED NORMALLY****
TOTAL RUN TIME: 0 days 0 hours 6 minutes 59 seconds 212 msec
