
                                 *****************
                                 * O   R   C   A *
                                 *****************

                                            #,                                       
                                            ###                                      
                                            ####                                     
                                            #####                                    
                                            ######                                   
                                           ########,                                 
                                     ,,################,,,,,                         
                               ,,#################################,,                 
                          ,,##########################################,,             
                       ,#########################################, ''#####,          
                    ,#############################################,,   '####,        
                  ,##################################################,,,,####,       
                ,###########''''           ''''###############################       
              ,#####''   ,,,,##########,,,,          '''####'''          '####       
            ,##' ,,,,###########################,,,                        '##       
           ' ,,###''''                  '''############,,,                           
         ,,##''                                '''############,,,,        ,,,,,,###''
      ,#''                                            '''#######################'''  
     '                                                          ''''####''''         
             ,#######,   #######,   ,#######,      ##                                
            ,#'     '#,  ##    ##  ,#'     '#,    #''#        ,####,   ,####,        
            ##       ##  ##   ,#'  ##            #'  '#       #'       #'  '#        
            ##       ##  #######   ##           ,######,      #####,   #    #        
            '#,     ,#'  ##    ##  '#,     ,#' ,#      #,     #,   #   #,  ,#        
             '#######'   ##     ##  '#######'  #'      '#     '####' # '####'        



                #########################################################
                #                        -***-                          #
                #          Department of theory and spectroscopy        #
                #                                                       #
                #                      Frank Neese                      #
                #                                                       #
                #     Directorship, Architecture, Infrastructure        #
                #                    SHARK, DRIVERS                     #
                #        Core code/Algorithms in most modules           #
                #                                                       #
                #        Max Planck Institute fuer Kohlenforschung      #
                #                Kaiser Wilhelm Platz 1                 #
                #                 D-45470 Muelheim/Ruhr                 #
                #                      Germany                          #
                #                                                       #
                #                  All rights reserved                  #
                #                        -***-                          #
                #########################################################


                         Program Version 6.0.0  -   RELEASE  -


 With contributions from (in alphabetic order):
   Daniel Aravena         : Magnetic Suceptibility
   Michael Atanasov       : Ab Initio Ligand Field Theory (pilot matlab implementation)
   Alexander A. Auer      : GIAO ZORA, VPT2 properties, NMR spectrum
   Ute Becker             : All parallelization in ORCA, NUMFREQ, NUMCALC
   Giovanni Bistoni       : ED, misc. LED, open-shell LED, HFLD
   Martin Brehm           : Molecular dynamics
   Dmytro Bykov           : pre 5.0 version of the SCF Hessian
   Marcos Casanova-Páez   : Triplet and SCS-CIS(D). UHF-(DLPNO)-IP/EA/STEOM-CCSD. UHF-CVS-IP/STEOM-CCSD
   Vijay G. Chilkuri      : MRCI spin determinant printing, contributions to CSF-ICE
   Pauline Colinet        : FMM embedding
   Dipayan Datta          : RHF DLPNO-CCSD density
   Achintya Kumar Dutta   : EOM-CC, STEOM-CC
   Nicolas Foglia         : Exact transition moments, OPA infrastructure, MCD improvements
   Dmitry Ganyushin       : Spin-Orbit,Spin-Spin,Magnetic field MRCI
   Miquel Garcia          : C-PCM and meta-GGA Hessian, CCSD/C-PCM, Gaussian charge scheme
   Tiago L. C. Gouveia    : GS-ROHF, GS-ROCIS
   Yang Guo               : DLPNO-NEVPT2, F12-NEVPT2, CIM, IAO-localization
   Andreas Hansen         : Spin unrestricted coupled pair/coupled cluster methods
   Ingolf Harden          : AUTO-CI MPn and infrastructure 
   Benjamin Helmich-Paris : MC-RPA, TRAH-(SCF,CASSCF), AVAS, COSX integrals, SCF dyn. polar.
   Lee Huntington         : MR-EOM, pCC
   Robert Izsak           : Overlap fitted RIJCOSX, COSX-SCS-MP3, EOM
   Riya Kayal             : Wick's Theorem for AUTO-CI, AUTO-CI UHF-CCSDT
   Emily Kempfer          : AUTO-CI, RHF CISDT and CCSDT
   Christian Kollmar      : KDIIS, OOCD, Brueckner-CCSD(T), CCSD density, CASPT2, CASPT2-K, improved NEVPT2
   Axel Koslowski         : Symmetry handling
   Simone Kossmann        : Meta GGA functionals, TD-DFT gradient, OOMP2, (MP2 Hessian; deprecated post 5.0)
   Lucas Lang             : DCDCAS
   Marvin Lechner         : AUTO-CI (C++ implementation), FIC-MRCC
   Spencer Leger          : CASSCF response
   Dagmar Lenk            : GEPOL surface, SMD, ORCA-2-JSON
   Dimitrios Liakos       : Extrapolation schemes; Compound Job, initial MDCI parallelization
   Dimitrios Manganas     : Further ROCIS development; embedding schemes. LFT, Crystal Embedding
   Dimitrios Pantazis     : SARC Basis sets
   Anastasios Papadopoulos: AUTO-CI, single reference methods and gradients
   Taras Petrenko         : pre 6.0 DFT Hessian and TD-DFT gradient, (ASA, deprecated), ECA, 1-Electron XAS/XES, NRVS
   Peter Pinski           : DLPNO-MP2, DLPNO-MP2 Gradient
   Christoph Reimann      : Effective Core Potentials
   Marius Retegan         : Local ZFS, SOC
   Christoph Riplinger    : Optimizer, TS searches, QM/MM, DLPNO-CCSD(T), (RO)-DLPNO pert. Triples
   Michael Roemelt        : Original ROCIS implementation
   Masaaki Saitow         : Open-shell DLPNO-CCSD energy and density
   Barbara Sandhoefer     : DKH picture change effects
   Kantharuban Sivalingam : CASSCF convergence/infrastructure, NEVPT2 and variants, FIC-MRCI
   Bernardo de Souza      : ESD, SOC TD-DFT
   Georgi Stoychev        : AutoAux, RI-MP2 NMR, DLPNO-MP2 response, X2C
   Van Anh Tran           : RI-MP2 g-tensors
   Willem Van den Heuvel  : Paramagnetic NMR
   Zikuan Wang            : NOTCH, Electric field optimization 
   Frank Wennmohs         : Technical directorship and infrastructure
   Hang Xu                : AUTO-CI-Response properties 


 We gratefully acknowledge several colleagues who have allowed us to
 interface, adapt or use parts of their codes:
   Stefan Grimme, W. Hujo, H. Kruse, P. Pracht,  : VdW corrections, initial TS optimization,
                  C. Bannwarth, S. Ehlert,         DFT functionals, gCP, sTDA/sTD-DF
                  L. Wittmann, M. Mueller
   Ed Valeev, F. Pavosevic, A. Kumar             : LibInt (2-el integral package), F12 methods
   Garnet Chan, S. Sharma, J. Yang, R. Olivares  : DMRG
   Ulf Ekstrom                                   : XCFun DFT Library
   Mihaly Kallay                                 : mrcc  (arbitrary order and MRCC methods)
   Frank Weinhold                                : gennbo (NPA and NBO analysis)
   Simon Mueller                                 : openCOSMO-RS
   Christopher J. Cramer and Donald G. Truhlar   : smd solvation model
   Lars Goerigk                                  : TD-DFT with DH, B97 family of functionals
   V. Asgeirsson, H. Jonsson                     : NEB implementation
   FAccTs GmbH                                   : IRC, NEB, NEB-TS, DLPNO-Multilevel, CI-OPT
                                                   MM, QMMM, 2- and 3-layer-ONIOM, Crystal-QMMM,
                                                   LR-CPCM, SF, NACMEs, symmetry and pop. for TD-DFT,
                                                   nearIR, NL-DFT gradient (VV10), updates on ESD,
                                                   ML-optimized integration grids, MBIS, APM,
                                                   GOAT, DOCKER, SOLVATOR, interface openCOSMO-RS
   S Lehtola, MJT Oliveira, MAL Marques          : LibXC Library
   Liviu Ungur et al                             : ANISO software


 Your calculation uses the libint2 library for the computation of 2-el integrals
 For citations please refer to: http://libint.valeyev.net

 Your ORCA version has been built with support for libXC version: 6.2.2
 For citations please refer to: https://libxc.gitlab.io

 This ORCA versions uses:
   CBLAS   interface :  Fast vector & matrix operations
   LAPACKE interface :  Fast linear algebra routines
   SCALAPACK package :  Parallel linear algebra routines
   Shared memory     :  Shared parallel matrices
   BLAS/LAPACK       :  OpenBLAS 0.3.27  USE64BITINT DYNAMIC_ARCH NO_AFFINITY SkylakeX SINGLE_THREADED
        Core in use  :  SkylakeX
   Copyright (c) 2011-2014, The OpenBLAS Project


Warning: RI is on but no J-basis has been assigned. Assigning Def2/J (nothing to worry about!)
================================================================================

----- Orbital basis set information -----
Your calculation utilizes the basis: 6-31G*
   H-He, Li-Ne : W. J. Hehre, R. Ditchfield and J.A. Pople, J. Chem. Phys. 56, 2257 (1972).
                 Note: He and Ne are unpublished basis sets taken from the Gaussian program.
                 Note: Li and B from J. D. Dill and J. A. Pople, J. Chem. Phys. 62, 2921 (1975).
   Na - Ar     : M. M. Francl, W. J. Pietro, W. J. Hehre, J. S. Binkley, M. S. Gordon, 
                 D. J. DeFrees and J. A. Pople, J. Chem. Phys. 77, 3654 (1982).
   K - Zn      : V. A. Rassolov, J. A. Pople, M. A. Ratner, and T. L. Windus, J. Chem. Phys. 109, 1223 (1998).

----- AuxJ basis set information -----
Your calculation utilizes the auxiliary basis: def2/J
   F. Weigend, Phys. Chem. Chem. Phys. 8, 1057 (2006).

================================================================================
                                        WARNINGS
                       Please study these warnings very carefully!
================================================================================


================================================================================
                                       INPUT FILE
================================================================================
NAME = /home/nmrbox/aojoawo/Documents/ERDOS/inputs/CHEMBL2440148.inp
|  1> ! B3LYP 6-31G* SP
|  2> 
|  3> * xyz 0 1
|  4> O -4.6880 -2.6982 1.1118
|  5> C -4.4573 -1.4936 0.8213
|  6> C -3.2571 -0.8023 1.4055
|  7> C -2.7085 0.2930 0.4493
|  8> C -2.0182 -0.3575 -0.7890
|  9> C -0.5171 -0.6096 -0.5863
| 10> N 0.1817 0.6167 -0.1709
| 11> C 1.6143 0.7304 -0.3058
| 12> O 2.1424 1.8758 -0.3478
| 13> N 2.4434 -0.4423 -0.4130
| 14> C 3.8780 -0.4193 -0.3100
| 15> C 4.6358 -1.3282 -1.0613
| 16> C 6.0299 -1.3475 -0.9560
| 17> C 6.6912 -0.4719 -0.0872
| 18> O 8.0931 -0.5375 -0.0192
| 19> C 8.9169 0.2741 0.8153
| 20> F 8.5988 0.0662 2.1459
| 21> F 8.7525 1.6093 0.4935
| 22> F 10.2390 -0.0730 0.6142
| 23> C 5.9318 0.4285 0.6846
| 24> C 4.5372 0.4486 0.5781
| 25> C -0.5951 1.7451 0.3611
| 26> C -1.7316 1.2129 1.2359
| 27> O -3.7951 1.1059 -0.0207
| 28> C -5.0337 0.5758 -0.4059
| 29> C -5.9205 1.3530 -1.1606
| 30> F -5.5854 2.6187 -1.5136
| 31> C -7.1488 0.8198 -1.5645
| 32> C -7.4965 -0.4875 -1.2104
| 33> C -6.6213 -1.2633 -0.4441
| 34> C -5.3885 -0.7311 -0.0311
| 35> H -3.5742 -0.3391 2.3651
| 36> H -2.4627 -1.5472 1.6317
| 37> H -2.5131 -1.3109 -1.0724
| 38> H -2.1287 0.3216 -1.6635
| 39> H -0.3661 -1.3996 0.1804
| 40> H -0.1035 -0.9669 -1.5546
| 41> H 1.9987 -1.3600 -0.6359
| 42> H 4.1448 -2.0181 -1.7364
| 43> H 6.6004 -2.0508 -1.5497
| 44> H 6.4049 1.1098 1.3774
| 45> H 3.9759 1.1225 1.2115
| 46> H 0.0464 2.4040 0.9872
| 47> H -1.0037 2.3485 -0.4785
| 48> H -1.2651 0.6563 2.0795
| 49> H -2.2861 2.0669 1.6818
| 50> H -7.8317 1.4179 -2.1536
| 51> H -8.4479 -0.8973 -1.5241
| 52> H -6.9119 -2.2687 -0.1657
| 53> *
| 54> 
| 55>                          ****END OF INPUT****
================================================================================

                       ****************************
                       * Single Point Calculation *
                       ****************************

---------------------------------
CARTESIAN COORDINATES (ANGSTROEM)
---------------------------------
  O     -4.688000   -2.698200    1.111800
  C     -4.457300   -1.493600    0.821300
  C     -3.257100   -0.802300    1.405500
  C     -2.708500    0.293000    0.449300
  C     -2.018200   -0.357500   -0.789000
  C     -0.517100   -0.609600   -0.586300
  N      0.181700    0.616700   -0.170900
  C      1.614300    0.730400   -0.305800
  O      2.142400    1.875800   -0.347800
  N      2.443400   -0.442300   -0.413000
  C      3.878000   -0.419300   -0.310000
  C      4.635800   -1.328200   -1.061300
  C      6.029900   -1.347500   -0.956000
  C      6.691200   -0.471900   -0.087200
  O      8.093100   -0.537500   -0.019200
  C      8.916900    0.274100    0.815300
  F      8.598800    0.066200    2.145900
  F      8.752500    1.609300    0.493500
  F     10.239000   -0.073000    0.614200
  C      5.931800    0.428500    0.684600
  C      4.537200    0.448600    0.578100
  C     -0.595100    1.745100    0.361100
  C     -1.731600    1.212900    1.235900
  O     -3.795100    1.105900   -0.020700
  C     -5.033700    0.575800   -0.405900
  C     -5.920500    1.353000   -1.160600
  F     -5.585400    2.618700   -1.513600
  C     -7.148800    0.819800   -1.564500
  C     -7.496500   -0.487500   -1.210400
  C     -6.621300   -1.263300   -0.444100
  C     -5.388500   -0.731100   -0.031100
  H     -3.574200   -0.339100    2.365100
  H     -2.462700   -1.547200    1.631700
  H     -2.513100   -1.310900   -1.072400
  H     -2.128700    0.321600   -1.663500
  H     -0.366100   -1.399600    0.180400
  H     -0.103500   -0.966900   -1.554600
  H      1.998700   -1.360000   -0.635900
  H      4.144800   -2.018100   -1.736400
  H      6.600400   -2.050800   -1.549700
  H      6.404900    1.109800    1.377400
  H      3.975900    1.122500    1.211500
  H      0.046400    2.404000    0.987200
  H     -1.003700    2.348500   -0.478500
  H     -1.265100    0.656300    2.079500
  H     -2.286100    2.066900    1.681800
  H     -7.831700    1.417900   -2.153600
  H     -8.447900   -0.897300   -1.524100
  H     -6.911900   -2.268700   -0.165700

----------------------------
CARTESIAN COORDINATES (A.U.)
----------------------------
  NO LB      ZA    FRAG     MASS         X           Y           Z
   0 O     8.0000    0    15.999   -8.859036   -5.098859    2.100998
   1 C     6.0000    0    12.011   -8.423076   -2.822495    1.552032
   2 C     6.0000    0    12.011   -6.155027   -1.516127    2.656010
   3 C     6.0000    0    12.011   -5.118323    0.553690    0.849054
   4 C     6.0000    0    12.011   -3.813845   -0.675577   -1.490994
   5 C     6.0000    0    12.011   -0.977177   -1.151977   -1.107946
   6 N     7.0000    0    14.007    0.343363    1.165394   -0.322954
   7 C     6.0000    0    12.011    3.050585    1.380256   -0.577878
   8 O     8.0000    0    15.999    4.048549    3.544748   -0.657247
   9 N     7.0000    0    14.007    4.617357   -0.835826   -0.780457
  10 C     6.0000    0    12.011    7.328358   -0.792362   -0.585815
  11 C     6.0000    0    12.011    8.760392   -2.509934   -2.005566
  12 C     6.0000    0    12.011   11.394860   -2.546406   -1.806578
  13 C     6.0000    0    12.011   12.644536   -0.891762   -0.164784
  14 O     8.0000    0    15.999   15.293743   -1.015728   -0.036283
  15 C     6.0000    0    12.011   16.850499    0.517974    1.540694
  16 F     9.0000    0    18.998   16.249377    0.125100    4.055163
  17 F     9.0000    0    18.998   16.539828    3.041136    0.932580
  18 F     9.0000    0    18.998   19.348906   -0.137950    1.160670
  19 C     6.0000    0    12.011   11.209477    0.809748    1.293707
  20 C     6.0000    0    12.011    8.574065    0.847731    1.092451
  21 C     6.0000    0    12.011   -1.124576    3.297761    0.682380
  22 C     6.0000    0    12.011   -3.272250    2.292049    2.335513
  23 O     8.0000    0    15.999   -7.171700    2.089848   -0.039117
  24 C     6.0000    0    12.011   -9.512314    1.088104   -0.767040
  25 C     6.0000    0    12.011  -11.188124    2.556799   -2.193216
  26 F     9.0000    0    18.998  -10.554876    4.948626   -2.860289
  27 C     6.0000    0    12.011  -13.509274    1.549197   -2.956477
  28 C     6.0000    0    12.011  -14.166332   -0.921241   -2.287325
  29 C     6.0000    0    12.011  -12.512444   -2.387291   -0.839227
  30 C     6.0000    0    12.011  -10.182789   -1.381579   -0.058770
  31 H     1.0000    0     1.008   -6.754259   -0.640806    4.469391
  32 H     1.0000    0     1.008   -4.653829   -2.923784    3.083466
  33 H     1.0000    0     1.008   -4.749071   -2.477242   -2.026542
  34 H     1.0000    0     1.008   -4.022660    0.607736   -3.143559
  35 H     1.0000    0     1.008   -0.691829   -2.644861    0.340907
  36 H     1.0000    0     1.008   -0.195587   -1.827176   -2.937768
  37 H     1.0000    0     1.008    3.776996   -2.570028   -1.201677
  38 H     1.0000    0     1.008    7.832537   -3.813656   -3.281320
  39 H     1.0000    0     1.008   12.472948   -3.875450   -2.928509
  40 H     1.0000    0     1.008   12.103507    2.097218    2.602909
  41 H     1.0000    0     1.008    7.513362    2.121218    2.289403
  42 H     1.0000    0     1.008    0.087683    4.542902    1.865538
  43 H     1.0000    0     1.008   -1.896718    4.438022   -0.904234
  44 H     1.0000    0     1.008   -2.390693    1.240227    3.929685
  45 H     1.0000    0     1.008   -4.320103    3.905875    3.178141
  46 H     1.0000    0     1.008  -14.799768    2.679443   -4.069714
  47 H     1.0000    0     1.008  -15.964217   -1.695651   -2.880132
  48 H     1.0000    0     1.008  -13.061598   -4.287222   -0.313128

--------------------------------
INTERNAL COORDINATES (ANGSTROEM)
--------------------------------
 O      0   0   0     0.000000000000     0.00000000     0.00000000
 C      1   0   0     1.260426078753     0.00000000     0.00000000
 C      2   1   0     1.503218337435   119.74083282     0.00000000
 C      3   2   1     1.554014958100   111.52222400   149.79043905
 C      4   3   2     1.559824102263   110.53455584   288.44655804
 C      5   4   3     1.535559477845   113.34650704   269.38995430
 N      6   5   4     1.471288649450   111.39105806   306.29838495
 C      7   6   5     1.443422481465   120.70810407   198.60742986
 O      8   7   6     1.261980495095   119.33639756   158.14591835
 N      8   7   6     1.440181912121   120.94334269   339.09049817
 C     10   8   7     1.438476680381   123.76517018   191.53168035
 C     11  10   8     1.401717425161   119.36815424   213.15341019
 C     12  11  10     1.398204344865   120.50545663   181.48947308
 C     13  12  11     1.399573681519   120.61244496     0.79738507
 O     14  13  12     1.405080414069   118.18142265   179.83526951
 C     15  14  13     1.426089495789   125.31738820   180.35632561
 F     16  15  14     1.383801423615   110.14380762    60.70009097
 F     16  15  14     1.383235930707   110.15457259   299.23402597
 F     16  15  14     1.381617903040   108.94315038   179.95691909
 C     14  13  12     1.408220068029   119.04068570     0.18949068
 C     20  14  13     1.398804997131   120.33805272   359.74514901
 C      7   6   5     1.469601578660   119.41477701    17.36378375
 C     22   7   6     1.529752963717   109.42571947    38.29752540
 O      4   3   2     1.436107924217   109.46478195    47.44077446
 C     24   4   3     1.401254798386   122.99940280   318.36751406
 C     25  24   4     1.400009346397   119.87268074   196.11864860
 F     26  25  24     1.356059548840   120.12889863   359.69431163
 C     26  25  24     1.398627305611   120.02132506   179.00326230
 C     28  26  25     1.398325924096   120.10976191     0.30494935
 C     29  28  26     1.398233303136   120.12359205     0.41112674
 C     30  29  28     1.404849344236   120.01327552   359.84226555
 H      3   2   1     1.111727848891   107.41714438   270.09962211
 H      3   2   1     1.112256180023   109.95588820    27.25813257
 H      5   4   3     1.110951452585   111.30061899    32.89687712
 H      5   4   3     1.112716185737   108.99270471   149.70040642
 H      6   5   4     1.111184003665   109.91604474    67.80252244
 H      6   5   4     1.111905184807   107.54334847   186.06926796
 H     10   8   7     1.043846631455   119.11128910    15.44266994
 H     12  11  10     1.082960303982   120.13828899     1.98900940
 H     13  12  11     1.082857714568   119.53627296   180.49404368
 H     20  14  13     1.080724358937   121.22153784   179.07974716
 H     21  20  14     1.081847706473   118.79318821   177.56903875
 H     22   7   6     1.112507379751   110.71347526   157.48976200
 H     22   7   6     1.111743531576   109.73191971   277.09146145
 H     23  22   7     1.113142744665   107.21708378    61.52042842
 H     23  22   7     1.111581333057   109.43365752   177.01311624
 H     28  26  25     1.082180590290   120.04603737   180.41641672
 H     29  28  26     1.082361164307   119.94342134   179.97726814
 H     30  29  28     1.082951559397   119.21160836   179.08764981

---------------------------
INTERNAL COORDINATES (A.U.)
---------------------------
 O      0   0   0     0.000000000000     0.00000000     0.00000000
 C      1   0   0     2.381860100895     0.00000000     0.00000000
 C      2   1   0     2.840670977240   119.74083282     0.00000000
 C      3   2   1     2.936662678827   111.52222400   149.79043905
 C      4   3   2     2.947640370366   110.53455584   288.44655804
 C      5   4   3     2.901786875474   113.34650704   269.38995430
 N      6   5   4     2.780332611407   111.39105806   306.29838495
 C      7   6   5     2.727673185515   120.70810407   198.60742986
 O      8   7   6     2.384797522080   119.33639756   158.14591835
 N      8   7   6     2.721549396935   120.94334269   339.09049817
 C     10   8   7     2.718326975952   123.76517018   191.53168035
 C     11  10   8     2.648862050700   119.36815424   213.15341019
 C     12  11  10     2.642223291054   120.50545663   181.48947308
 C     13  12  11     2.644810962314   120.61244496     0.79738507
 O     14  13  12     2.655217178727   118.18142265   179.83526951
 C     15  14  13     2.694918589503   125.31738820   180.35632561
 F     16  15  14     2.615005714363   110.14380762    60.70009097
 F     16  15  14     2.613937087637   110.15457259   299.23402597
 F     16  15  14     2.610879458468   108.94315038   179.95691909
 C     14  13  12     2.661150264867   119.04068570     0.18949068
 C     20  14  13     2.643358359339   120.33805272   359.74514901
 C      7   6   5     2.777144509646   119.41477701    17.36378375
 C     22   7   6     2.890814153979   109.42571947    38.29752540
 O      4   3   2     2.713850675525   109.46478195    47.44077446
 C     24   4   3     2.647987812793   122.99940280   318.36751406
 C     25  24   4     2.645634249621   119.87268074   196.11864860
 F     26  25  24     2.562581168596   120.12889863   359.69431163
 C     26  25  24     2.643022571029   120.02132506   179.00326230
 C     28  26  25     2.642453042505   120.10976191     0.30494935
 C     29  28  26     2.642278014256   120.12359205     0.41112674
 C     30  29  28     2.654780520025   120.01327552   359.84226555
 H      3   2   1     2.100861169858   107.41714438   270.09962211
 H      3   2   1     2.101859571005   109.95588820    27.25813257
 H      5   4   3     2.099393993467   111.30061899    32.89687712
 H      5   4   3     2.102728855823   108.99270471   149.70040642
 H      6   5   4     2.099833451320   109.91604474    67.80252244
 H      6   5   4     2.101196286172   107.54334847   186.06926796
 H     10   8   7     1.972584259266   119.11128910    15.44266994
 H     12  11  10     2.046498388433   120.13828899     1.98900940
 H     13  12  11     2.046304522538   119.53627296   180.49404368
 H     20  14  13     2.042273064649   121.22153784   179.07974716
 H     21  20  14     2.044395883844   118.79318821   177.56903875
 H     22   7   6     2.102334269695   110.71347526   157.48976200
 H     22   7   6     2.100890805836   109.73191971   277.09146145
 H     23  22   7     2.103534935378   107.21708378    61.52042842
 H     23  22   7     2.100584295056   109.43365752   177.01311624
 H     28  26  25     2.045024943093   120.04603737   180.41641672
 H     29  28  26     2.045366178532   119.94342134   179.97726814
 H     30  29  28     2.046481863563   119.21160836   179.08764981

---------------------
BASIS SET INFORMATION
---------------------
There are 5 groups of distinct atoms

 Group   1 Type O   : 10s4p1d contracted to 3s2p1d pattern {631/31/1}
 Group   2 Type C   : 10s4p1d contracted to 3s2p1d pattern {631/31/1}
 Group   3 Type N   : 10s4p1d contracted to 3s2p1d pattern {631/31/1}
 Group   4 Type F   : 10s4p1d contracted to 3s2p1d pattern {631/31/1}
 Group   5 Type H   : 4s contracted to 2s pattern {31}

Atom   0O    basis set group =>   1
Atom   1C    basis set group =>   2
Atom   2C    basis set group =>   2
Atom   3C    basis set group =>   2
Atom   4C    basis set group =>   2
Atom   5C    basis set group =>   2
Atom   6N    basis set group =>   3
Atom   7C    basis set group =>   2
Atom   8O    basis set group =>   1
Atom   9N    basis set group =>   3
Atom  10C    basis set group =>   2
Atom  11C    basis set group =>   2
Atom  12C    basis set group =>   2
Atom  13C    basis set group =>   2
Atom  14O    basis set group =>   1
Atom  15C    basis set group =>   2
Atom  16F    basis set group =>   4
Atom  17F    basis set group =>   4
Atom  18F    basis set group =>   4
Atom  19C    basis set group =>   2
Atom  20C    basis set group =>   2
Atom  21C    basis set group =>   2
Atom  22C    basis set group =>   2
Atom  23O    basis set group =>   1
Atom  24C    basis set group =>   2
Atom  25C    basis set group =>   2
Atom  26F    basis set group =>   4
Atom  27C    basis set group =>   2
Atom  28C    basis set group =>   2
Atom  29C    basis set group =>   2
Atom  30C    basis set group =>   2
Atom  31H    basis set group =>   5
Atom  32H    basis set group =>   5
Atom  33H    basis set group =>   5
Atom  34H    basis set group =>   5
Atom  35H    basis set group =>   5
Atom  36H    basis set group =>   5
Atom  37H    basis set group =>   5
Atom  38H    basis set group =>   5
Atom  39H    basis set group =>   5
Atom  40H    basis set group =>   5
Atom  41H    basis set group =>   5
Atom  42H    basis set group =>   5
Atom  43H    basis set group =>   5
Atom  44H    basis set group =>   5
Atom  45H    basis set group =>   5
Atom  46H    basis set group =>   5
Atom  47H    basis set group =>   5
Atom  48H    basis set group =>   5
---------------------------------
AUXILIARY/J BASIS SET INFORMATION
---------------------------------
There are 5 groups of distinct atoms

 Group   1 Type O   : 12s5p4d2f1g contracted to 6s4p3d1f1g pattern {711111/2111/211/2/1}
 Group   2 Type C   : 12s5p4d2f1g contracted to 6s4p3d1f1g pattern {711111/2111/211/2/1}
 Group   3 Type N   : 12s5p4d2f1g contracted to 6s4p3d1f1g pattern {711111/2111/211/2/1}
 Group   4 Type F   : 12s5p4d2f1g contracted to 6s4p3d1f1g pattern {711111/2111/211/2/1}
 Group   5 Type H   : 5s2p1d contracted to 3s1p1d pattern {311/2/1}

Atom   0O    basis set group =>   1
Atom   1C    basis set group =>   2
Atom   2C    basis set group =>   2
Atom   3C    basis set group =>   2
Atom   4C    basis set group =>   2
Atom   5C    basis set group =>   2
Atom   6N    basis set group =>   3
Atom   7C    basis set group =>   2
Atom   8O    basis set group =>   1
Atom   9N    basis set group =>   3
Atom  10C    basis set group =>   2
Atom  11C    basis set group =>   2
Atom  12C    basis set group =>   2
Atom  13C    basis set group =>   2
Atom  14O    basis set group =>   1
Atom  15C    basis set group =>   2
Atom  16F    basis set group =>   4
Atom  17F    basis set group =>   4
Atom  18F    basis set group =>   4
Atom  19C    basis set group =>   2
Atom  20C    basis set group =>   2
Atom  21C    basis set group =>   2
Atom  22C    basis set group =>   2
Atom  23O    basis set group =>   1
Atom  24C    basis set group =>   2
Atom  25C    basis set group =>   2
Atom  26F    basis set group =>   4
Atom  27C    basis set group =>   2
Atom  28C    basis set group =>   2
Atom  29C    basis set group =>   2
Atom  30C    basis set group =>   2
Atom  31H    basis set group =>   5
Atom  32H    basis set group =>   5
Atom  33H    basis set group =>   5
Atom  34H    basis set group =>   5
Atom  35H    basis set group =>   5
Atom  36H    basis set group =>   5
Atom  37H    basis set group =>   5
Atom  38H    basis set group =>   5
Atom  39H    basis set group =>   5
Atom  40H    basis set group =>   5
Atom  41H    basis set group =>   5
Atom  42H    basis set group =>   5
Atom  43H    basis set group =>   5
Atom  44H    basis set group =>   5
Atom  45H    basis set group =>   5
Atom  46H    basis set group =>   5
Atom  47H    basis set group =>   5
Atom  48H    basis set group =>   5
------------------------------------------------------------------------------
                             ORCA STARTUP CALCULATIONS
                           -- RI-GTO INTEGRALS CHOSEN --
------------------------------------------------------------------------------
------------------------------------------------------------------------------
                   ___                                                        
                  /   \      - P O W E R E D   B Y -                         
                 /     \                                                     
                 |  |  |   _    _      __       _____    __    __             
                 |  |  |  | |  | |    /  \     |  _  \  |  |  /  |          
                  \  \/   | |  | |   /    \    | | | |  |  | /  /          
                 / \  \   | |__| |  /  /\  \   | |_| |  |  |/  /          
                |  |  |   |  __  | /  /__\  \  |    /   |      \           
                |  |  |   | |  | | |   __   |  |    \   |  |\   \          
                \     /   | |  | | |  |  |  |  | |\  \  |  | \   \       
                 \___/    |_|  |_| |__|  |__|  |_| \__\ |__|  \__/        
                                                                              
                      - O R C A' S   B I G   F R I E N D -                    
                                      &                                       
                       - I N T E G R A L  F E E D E R -                       
                                                                              
 v1 FN, 2020, v2 2021, v3 2022-2024                                           
------------------------------------------------------------------------------


----------------------
SHARK INTEGRAL PACKAGE
----------------------

Number of atoms                             ...     49
Number of basis functions                   ...    470
Number of shells                            ...    222
Maximum angular momentum                    ...      2
Integral batch strategy                     ... SHARK/LIBINT Hybrid
RI-J (if used) integral strategy            ... SPLIT-RIJ (Revised 2003 algorithm where possible)
Printlevel                                  ...      1
Contraction scheme used                     ... SEGMENTED contraction
Prescreening option                         ... SCHWARTZ
   Thresh                                   ... 1.000e-10
   Tcut                                     ... 1.000e-11
   Tpresel                                  ... 1.000e-11 
Coulomb Range Separation                    ... NOT USED
Exchange Range Separation                   ... NOT USED
Multipole approximations                    ... NOT USED
Finite Nucleus Model                        ... NOT USED
CABS basis                                  ... NOT available
Auxiliary Coulomb fitting basis             ... AVAILABLE
   # of basis functions in Aux-J            ...   1717
   # of shells in Aux-J                     ...    555
   Maximum angular momentum in Aux-J        ...      4
Auxiliary J/K fitting basis                 ... NOT available
Auxiliary Correlation fitting basis         ... NOT available
Auxiliary 'external' fitting basis          ... NOT available

Checking pre-screening integrals            ... done (  0.0 sec) Dimension = 222
Check shell pair data                       ... done (  0.0 sec)
Shell pair information
Shell pair cut-off parameter TPreSel        ...   1.0e-11
Total number of shell pairs                 ...     24753
Shell pairs after pre-screening             ...     12596
Total number of primitive shell pairs       ...    145158
Primitive shell pairs kept                  ...     39998
          la=0 lb=0:   4143 shell pairs
          la=1 lb=0:   4342 shell pairs
          la=1 lb=1:   1148 shell pairs
          la=2 lb=0:   1787 shell pairs
          la=2 lb=1:    970 shell pairs
          la=2 lb=2:    206 shell pairs

Calculating one electron integrals          ... done (  0.2 sec)
Calculating RI/J V-Matrix + Cholesky decomp.... done (  0.4 sec)
Calculating Nuclear repulsion               ... done (  0.0 sec) ENN=   2875.239565286015 Eh

Diagonalization of the overlap matrix:
Smallest eigenvalue                        ... 4.500e-04
Time for diagonalization                   ...    0.036 sec
Threshold for overlap eigenvalues          ... 1.000e-07
Number of eigenvalues below threshold      ... 0
Time for construction of square roots      ...    0.029 sec
Total time needed                          ...    0.075 sec

-------------------
DFT GRID GENERATION
-------------------

General Integration Accuracy     IntAcc      ... 4.388
Radial Grid Type                 RadialGrid  ... OptM3 with GC (2021)
Angular Grid (max. ang.)         AngularGrid ... 4 (Lebedev-302)
Angular grid pruning method      GridPruning ... 4 (adaptive)
Weight generation scheme         WeightScheme... mBecke (2022)
Basis function cutoff            BFCut       ... 1.0000e-10
Integration weight cutoff        WCut        ... 1.0000e-14
Partially contracted basis set               ... off
Rotationally invariant grid construction     ... off
Angular grids for H and He will be reduced by one unit

Total number of grid points                  ...   242852
Total number of batches                      ...     3822
Average number of points per batch           ...       63
Average number of grid points per atom       ...     4956

--------------------
COSX GRID GENERATION
--------------------

GRIDX 1
-------
General Integration Accuracy     IntAcc      ... 3.816
Radial Grid Type                 RadialGrid  ... OptM3 with GC (2021)
Angular Grid (max. ang.)         AngularGrid ... 1 (Lebedev-50)
Angular grid pruning method      GridPruning ... 4 (adaptive)
Weight generation scheme         WeightScheme... mBecke (2022)
Basis function cutoff            BFCut       ... 1.0000e-10
Integration weight cutoff        WCut        ... 1.0000e-14
Partially contracted basis set               ... on
Rotationally invariant grid construction     ... off
Angular grids for H and He will be reduced by one unit

Total number of grid points                  ...    30667
Total number of batches                      ...      269
Average number of points per batch           ...      114
Average number of grid points per atom       ...      626
UseSFitting                                  ... on

GRIDX 2
-------
General Integration Accuracy     IntAcc      ... 4.020
Radial Grid Type                 RadialGrid  ... OptM3 with GC (2021)
Angular Grid (max. ang.)         AngularGrid ... 2 (Lebedev-110)
Angular grid pruning method      GridPruning ... 4 (adaptive)
Weight generation scheme         WeightScheme... mBecke (2022)
Basis function cutoff            BFCut       ... 1.0000e-10
Integration weight cutoff        WCut        ... 1.0000e-14
Partially contracted basis set               ... on
Rotationally invariant grid construction     ... off
Angular grids for H and He will be reduced by one unit

Total number of grid points                  ...    67821
Total number of batches                      ...      554
Average number of points per batch           ...      122
Average number of grid points per atom       ...     1384
UseSFitting                                  ... on

GRIDX 3
-------
General Integration Accuracy     IntAcc      ... 4.338
Radial Grid Type                 RadialGrid  ... OptM3 with GC (2021)
Angular Grid (max. ang.)         AngularGrid ... 3 (Lebedev-194)
Angular grid pruning method      GridPruning ... 4 (adaptive)
Weight generation scheme         WeightScheme... mBecke (2022)
Basis function cutoff            BFCut       ... 1.0000e-10
Integration weight cutoff        WCut        ... 1.0000e-14
Partially contracted basis set               ... on
Rotationally invariant grid construction     ... off
Angular grids for H and He will be reduced by one unit

Total number of grid points                  ...   148747
Total number of batches                      ...     1187
Average number of points per batch           ...      125
Average number of grid points per atom       ...     3036
UseSFitting                                  ... on
Initializing property integral containers    ... done (  0.0 sec)

SHARK setup successfully completed in  10.4 seconds

Maximum memory used throughout the entire STARTUP-calculation: 101.3 MB
-------------------------------------------------------------------------------
                                 ORCA GUESS
                   Start orbitals & Density for SCF / CASSCF
-------------------------------------------------------------------------------

------------
SCF SETTINGS
------------
Hamiltonian:
 Density Functional     Method          .... DFT(GTOs)
 Exchange Functional    Exchange        .... B88
   X-Alpha parameter    XAlpha          ....  0.666667
   Becke's b parameter  XBeta           ....  0.004200
 Correlation Functional Correlation     .... LYP
 LDA part of GGA corr.  LDAOpt          .... VWN-5
 Gradients option       PostSCFGGA      .... off
 Hybrid DFT is turned on
   Fraction HF Exchange ScalHFX         ....  0.200000
   Scaling of DF-GGA-X  ScalDFX         ....  0.720000
   Scaling of DF-GGA-C  ScalDFC         ....  0.810000
   Scaling of DF-LDA-C  ScalLDAC        ....  1.000000
   Perturbative correction              ....  0.000000
   NL short-range parameter             ....  4.800000
 RI-approximation to the Coulomb term is turned on
   Number of AuxJ basis functions       .... 1717
   RIJ-COSX (HFX calculated with COS-X)).... on


General Settings:
 Integral files         IntName         .... /home/nmrbox/aojoawo/Documents/ERDOS/inputs/CHEMBL2440148
 Hartree-Fock type      HFTyp           .... RHF
 Total Charge           Charge          ....    0
 Multiplicity           Mult            ....    1
 Number of Electrons    NEL             ....  226
 Basis Dimension        Dim             ....  470
 Nuclear Repulsion      ENuc            ....   2875.2395652860 Eh

Convergence Acceleration:
 AO-DIIS                CNVDIIS         .... on
   Start iteration      DIISMaxIt       ....    12
   Startup error        DIISStart       ....  0.200000
   # of expansion vecs  DIISMaxEq       ....     5
   Bias factor          DIISBfac        ....   1.050
   Max. coefficient     DIISMaxC        ....  10.000
 MO-DIIS                CNVKDIIS        .... off
 Trust-Rad. Augm. Hess. CNVTRAH         .... auto
   Auto Start mean grad. ratio tolernc. ....  1.125000
   Auto Start start iteration           ....    50
   Auto Start num. interpolation iter.  ....    10
   Max. Number of Micro iterations      ....    24
   Max. Number of Macro iterations      .... Maxiter - #DIIS iter
   Number of Davidson start vectors     ....     2
   Converg. threshold    (grad. norm)   ....   5.000e-05
   Grad. Scal. Fac. for Micro threshold ....   0.100
   Minimum threshold for Micro iter.    ....   1.000e-02
   NR start threshold (gradient norm)   ....   1.000e-04
   Initial trust radius                 ....   0.400
   Minimum AH scaling param. (alpha)    ....   1.000
   Maximum AH scaling param. (alpha)    .... 1000.000
   Quad. conv. algorithm                .... NR
   White noise on init. David. guess    .... on
   Maximum white noise                  ....   0.010
   Pseudo random numbers                .... off
   Inactive MOs                         .... canonical
   Orbital update algorithm             .... Taylor
   Preconditioner                       .... Diag
   Full preconditioner red. dimension   ....   250
 SOSCF                  CNVSOSCF        .... on
   Start iteration      SOSCFMaxIt      ....   150
   Startup grad/error   SOSCFStart      ....  0.003300
   Hessian update       SOSCFHessUp     .... L-BFGS
 Level Shifting         CNVShift        .... on
   Level shift para.    LevelShift      ....    0.2500
   Turn off err/grad.   ShiftErr        ....    0.0010
 Zerner damping         CNVZerner       .... off
 Static damping         CNVDamp         .... on
   Fraction old density DampFac         ....    0.7000
   Max. Damping (<1)    DampMax         ....    0.9800
   Min. Damping (>=0)   DampMin         ....    0.0000
   Turn off err/grad.   DampErr         ....    0.1000

SCF Procedure:
 Maximum # iterations   MaxIter         ....   125
 SCF integral mode      SCFMode         .... Direct
   Integral package                     .... SHARK and LIBINT hybrid scheme
 Reset frequency        DirectResetFreq ....    20
 Integral Threshold     Thresh          ....  1.000e-10 Eh
 Primitive CutOff       TCut            ....  1.000e-11 Eh

Convergence Tolerance:
 Convergence Check Mode ConvCheckMode   .... Total+1el-Energy
 Convergence forced     ConvForced      .... 0
 Energy Change          TolE            ....  1.000e-06 Eh
 1-El. energy change                    ....  1.000e-03 Eh
 Orbital Gradient       TolG            ....  5.000e-05
 Orbital Rotation angle TolX            ....  5.000e-05
 DIIS Error             TolErr          ....  1.000e-06

------------------------------
INITIAL GUESS: MODEL POTENTIAL
------------------------------
Loading Hartree-Fock densities                     ... done
Calculating cut-offs                               ... done
Initializing the effective Hamiltonian             ... done
Setting up the integral package (SHARK)            ... done
Starting the Coulomb interaction                   ... done (   2.5 sec)
Making the grid                                    ... done (   1.2 sec)
Mapping shells                                     ... done
Starting the XC term evaluation                    ... done (   0.9 sec)
  promolecular density results
     # of electrons  =    225.988327556
     EX              =   -199.395684691
     EC              =     -7.921426268
     EX+EC           =   -207.317110959
Transforming the Hamiltonian                       ... done (   0.0 sec)
Diagonalizing the Hamiltonian                      ... done (   0.0 sec)
Back transforming the eigenvectors                 ... done (   0.0 sec)
Now organizing SCF variables                       ... done
                      ------------------
                      INITIAL GUESS DONE (   4.8 sec)
                      ------------------
             **** ENERGY FILE WAS UPDATED (/home/nmrbox/aojoawo/Documents/ERDOS/inputs/CHEMBL2440148.en.tmp) ****
Finished Guess after   5.1 sec
Maximum memory used throughout the entire GUESS-calculation: 53.8 MB

-------------------------------------------------------------------------------------------
                                      ORCA LEAN-SCF
                              memory conserving SCF solver
-------------------------------------------------------------------------------------------

----------------------------------------D-I-I-S--------------------------------------------
Iteration    Energy (Eh)           Delta-E    RMSDP     MaxDP     DIISErr   Damp  Time(sec)
-------------------------------------------------------------------------------------------
               ***  Starting incremental Fock matrix formation  ***
    1    -1619.1927571831142814     0.00e+00  2.17e-03  1.15e-01  2.93e-01  0.700  47.6
    2    -1619.5537823745767128    -3.61e-01  1.36e-03  6.46e-02  1.07e-01  0.700  21.8
                               ***Turning on AO-DIIS***
    3    -1619.6825358946730375    -1.29e-01  5.38e-04  1.74e-02  3.72e-02  0.700  20.9
    4    -1619.7645210845516885    -8.20e-02  8.79e-04  2.52e-02  1.53e-02  0.000  19.1
    5    -1619.9482792312169295    -1.84e-01  2.16e-04  7.50e-03  7.52e-03  0.000  20.1
                              *** Initializing SOSCF ***
---------------------------------------S-O-S-C-F--------------------------------------
Iteration    Energy (Eh)           Delta-E    RMSDP     MaxDP     MaxGrad    Time(sec)
--------------------------------------------------------------------------------------
    6    -1619.9495294404628112    -1.25e-03  6.58e-05  2.31e-03  1.80e-03    17.7
               *** Restarting incremental Fock matrix formation ***
    7    -1619.9496041635097754    -7.47e-05  5.65e-05  3.26e-03  4.37e-04    49.3
    8    -1619.9495755099455891     2.87e-05  3.26e-05  2.51e-03  1.06e-03    27.8
    9    -1619.9496212713397654    -4.58e-05  8.81e-06  5.22e-04  9.22e-05    24.3
   10    -1619.9496202834548058     9.88e-07  5.55e-06  3.67e-04  1.64e-04    20.4
                 **** Energy Check signals convergence ****

               *****************************************************
               *                     SUCCESS                       *
               *           SCF CONVERGED AFTER  10 CYCLES          *
               *****************************************************

Recomputing exchange energy using gridx3       ... done (   84.011 sec)
Old exchange energy                            :    -40.305282173 Eh
New exchange energy                            :    -40.305298366 Eh
Exchange energy change after final integration :     -0.000016192 Eh
Total energy after final integration           :  -1619.949636476 Eh
             **** ENERGY FILE WAS UPDATED (/home/nmrbox/aojoawo/Documents/ERDOS/inputs/CHEMBL2440148.en.tmp) ****

----------------
TOTAL SCF ENERGY
----------------

Total Energy       :      -1619.94963647561917 Eh          -44081.07065 eV

Components:
Nuclear Repulsion  :       2875.23956528601457 Eh           78239.24618 eV
Electronic Energy  :      -4495.18918556946937 Eh         -122320.31638 eV
One Electron Energy:      -7937.73446598384726 Eh         -215996.73588 eV
Two Electron Energy:       3442.54528041437788 Eh           93676.41950 eV

Virial components:
Potential Energy   :      -3229.38298646581279 Eh          -87875.97859 eV
Kinetic Energy     :       1609.43334999019385 Eh           43794.90794 eV
Virial Ratio       :          2.00653415469829

DFT components:
N(Alpha)           :      112.999916253297 electrons
N(Beta)            :      112.999916253297 electrons
N(Total)           :      225.999832506594 electrons
E(X)               :     -160.273715194856 Eh       
E(C)               :       -9.298294223585 Eh       
E(XC)              :     -169.572009418441 Eh       

---------------
SCF CONVERGENCE
---------------

  Last Energy change         ...   -9.8788e-07  Tolerance :   1.0000e-06
  Last MAX-Density change    ...    3.6706e-04  Tolerance :   1.0000e-05
  Last RMS-Density change    ...    5.5542e-06  Tolerance :   1.0000e-06
  Last DIIS Error            ...    1.8030e-03  Tolerance :   1.0000e-06
  Last Orbital Gradient      ...    1.6375e-04  Tolerance :   5.0000e-05
  Last Orbital Rotation      ...    2.9410e-04  Tolerance :   5.0000e-05


----------------
ORBITAL ENERGIES
----------------

  NO   OCC          E(Eh)            E(eV) 
   0   2.0000     -24.736243      -673.1074 
   1   2.0000     -24.733766      -673.0400 
   2   2.0000     -24.733170      -673.0238 
   3   2.0000     -24.710291      -672.4012 
   4   2.0000     -19.205903      -522.6192 
   5   2.0000     -19.188272      -522.1394 
   6   2.0000     -19.136676      -520.7354 
   7   2.0000     -19.102975      -519.8184 
   8   2.0000     -14.371698      -391.0738 
   9   2.0000     -14.358915      -390.7259 
  10   2.0000     -10.498362      -285.6750 
  11   2.0000     -10.319268      -280.8016 
  12   2.0000     -10.285667      -279.8872 
  13   2.0000     -10.281473      -279.7731 
  14   2.0000     -10.275653      -279.6147 
  15   2.0000     -10.275572      -279.6125 
  16   2.0000     -10.260148      -279.1928 
  17   2.0000     -10.240626      -278.6616 
  18   2.0000     -10.234714      -278.5007 
  19   2.0000     -10.223204      -278.1875 
  20   2.0000     -10.211815      -277.8776 
  21   2.0000     -10.209965      -277.8273 
  22   2.0000     -10.207637      -277.7639 
  23   2.0000     -10.205603      -277.7086 
  24   2.0000     -10.204114      -277.6680 
  25   2.0000     -10.201850      -277.6065 
  26   2.0000     -10.201311      -277.5918 
  27   2.0000     -10.195100      -277.4228 
  28   2.0000     -10.194273      -277.4003 
  29   2.0000     -10.191065      -277.3130 
  30   2.0000     -10.188013      -277.2299 
  31   2.0000      -1.298718       -35.3399 
  32   2.0000      -1.223014       -33.2799 
  33   2.0000      -1.219488       -33.1839 
  34   2.0000      -1.219150       -33.1748 
  35   2.0000      -1.075717       -29.2717 
  36   2.0000      -1.073443       -29.2099 
  37   2.0000      -1.020156       -27.7599 
  38   2.0000      -1.020065       -27.7574 
  39   2.0000      -0.929799       -25.3011 
  40   2.0000      -0.918411       -24.9912 
  41   2.0000      -0.876879       -23.8611 
  42   2.0000      -0.849622       -23.1194 
  43   2.0000      -0.828222       -22.5371 
  44   2.0000      -0.788721       -21.4622 
  45   2.0000      -0.778890       -21.1947 
  46   2.0000      -0.762138       -20.7388 
  47   2.0000      -0.759032       -20.6543 
  48   2.0000      -0.754455       -20.5298 
  49   2.0000      -0.744196       -20.2506 
  50   2.0000      -0.698083       -18.9958 
  51   2.0000      -0.667803       -18.1718 
  52   2.0000      -0.665311       -18.1040 
  53   2.0000      -0.655412       -17.8347 
  54   2.0000      -0.634180       -17.2569 
  55   2.0000      -0.630640       -17.1606 
  56   2.0000      -0.616037       -16.7632 
  57   2.0000      -0.595336       -16.1999 
  58   2.0000      -0.590751       -16.0751 
  59   2.0000      -0.586129       -15.9494 
  60   2.0000      -0.573553       -15.6072 
  61   2.0000      -0.567763       -15.4496 
  62   2.0000      -0.559052       -15.2126 
  63   2.0000      -0.548675       -14.9302 
  64   2.0000      -0.537021       -14.6131 
  65   2.0000      -0.526038       -14.3142 
  66   2.0000      -0.516612       -14.0577 
  67   2.0000      -0.510924       -13.9030 
  68   2.0000      -0.493995       -13.4423 
  69   2.0000      -0.486059       -13.2264 
  70   2.0000      -0.478433       -13.0188 
  71   2.0000      -0.473235       -12.8774 
  72   2.0000      -0.470602       -12.8057 
  73   2.0000      -0.465824       -12.6757 
  74   2.0000      -0.464616       -12.6428 
  75   2.0000      -0.461829       -12.5670 
  76   2.0000      -0.459480       -12.5031 
  77   2.0000      -0.450890       -12.2693 
  78   2.0000      -0.447825       -12.1860 
  79   2.0000      -0.445562       -12.1244 
  80   2.0000      -0.440467       -11.9857 
  81   2.0000      -0.439928       -11.9711 
  82   2.0000      -0.431302       -11.7363 
  83   2.0000      -0.424369       -11.5477 
  84   2.0000      -0.421876       -11.4798 
  85   2.0000      -0.413356       -11.2480 
  86   2.0000      -0.411288       -11.1917 
  87   2.0000      -0.408106       -11.1051 
  88   2.0000      -0.407801       -11.0968 
  89   2.0000      -0.404492       -11.0068 
  90   2.0000      -0.400845       -10.9075 
  91   2.0000      -0.397698       -10.8219 
  92   2.0000      -0.395839       -10.7713 
  93   2.0000      -0.392696       -10.6858 
  94   2.0000      -0.383447       -10.4341 
  95   2.0000      -0.381384       -10.3780 
  96   2.0000      -0.377365       -10.2686 
  97   2.0000      -0.375094       -10.2068 
  98   2.0000      -0.368895       -10.0381 
  99   2.0000      -0.361177        -9.8281 
 100   2.0000      -0.348539        -9.4842 
 101   2.0000      -0.344537        -9.3753 
 102   2.0000      -0.343436        -9.3454 
 103   2.0000      -0.329052        -8.9540 
 104   2.0000      -0.320791        -8.7292 
 105   2.0000      -0.283867        -7.7244 
 106   2.0000      -0.264499        -7.1974 
 107   2.0000      -0.261890        -7.1264 
 108   2.0000      -0.253367        -6.8945 
 109   2.0000      -0.250605        -6.8193 
 110   2.0000      -0.239759        -6.5242 
 111   2.0000      -0.231060        -6.2875 
 112   2.0000      -0.213481        -5.8091 
 113   0.0000      -0.072436        -1.9711 
 114   0.0000      -0.009688        -0.2636 
 115   0.0000      -0.008587        -0.2337 
 116   0.0000      -0.006821        -0.1856 
 117   0.0000       0.025833         0.7029 
 118   0.0000       0.040886         1.1126 
 119   0.0000       0.051387         1.3983 
 120   0.0000       0.059311         1.6139 
 121   0.0000       0.075025         2.0415 
 122   0.0000       0.081344         2.2135 
 123   0.0000       0.090573         2.4646 
*Only the first 10 virtual orbitals were printed.

                    ********************************
                    * MULLIKEN POPULATION ANALYSIS *
                    ********************************

-----------------------
MULLIKEN ATOMIC CHARGES
-----------------------
   0 O :   -0.442705
   1 C :    0.355797
   2 C :   -0.393940
   3 C :    0.345594
   4 C :   -0.329290
   5 C :   -0.142696
   6 N :   -0.441270
   7 C :    0.685726
   8 O :   -0.492354
   9 N :   -0.730120
  10 C :    0.343018
  11 C :   -0.179110
  12 C :   -0.174644
  13 C :    0.351041
  14 O :   -0.548791
  15 C :    1.085476
  16 F :   -0.292744
  17 F :   -0.290780
  18 F :   -0.280598
  19 C :   -0.201265
  20 C :   -0.129682
  21 C :   -0.124768
  22 C :   -0.322089
  23 O :   -0.543535
  24 C :    0.239519
  25 C :    0.358385
  26 F :   -0.306823
  27 C :   -0.198568
  28 C :   -0.124859
  29 C :   -0.167667
  30 C :    0.051970
  31 H :    0.182620
  32 H :    0.174676
  33 H :    0.161692
  34 H :    0.173919
  35 H :    0.141368
  36 H :    0.153162
  37 H :    0.328668
  38 H :    0.130545
  39 H :    0.147311
  40 H :    0.154685
  41 H :    0.159637
  42 H :    0.178658
  43 H :    0.158911
  44 H :    0.154409
  45 H :    0.169880
  46 H :    0.159047
  47 H :    0.145347
  48 H :    0.167238
Sum of atomic charges:    0.0000000

--------------------------------
MULLIKEN REDUCED ORBITAL CHARGES
--------------------------------
  0 O s       :     3.889043  s :     3.889043
      pz      :     1.484119  p :     4.527861
      px      :     1.686349
      py      :     1.357393
      dz2     :     0.003036  d :     0.025802
      dxz     :     0.000911
      dyz     :     0.007861
      dx2y2   :     0.007488
      dxy     :     0.006505

  1 C s       :     3.114309  s :     3.114309
      pz      :     0.802466  p :     2.446139
      px      :     0.856854
      py      :     0.786820
      dz2     :     0.009706  d :     0.083755
      dxz     :     0.006098
      dyz     :     0.020521
      dx2y2   :     0.018833
      dxy     :     0.028596

  2 C s       :     3.290794  s :     3.290794
      pz      :     1.013864  p :     3.065918
      px      :     1.023615
      py      :     1.028439
      dz2     :     0.007075  d :     0.037228
      dxz     :     0.006670
      dyz     :     0.008225
      dx2y2   :     0.004002
      dxy     :     0.011256

  3 C s       :     3.116790  s :     3.116790
      pz      :     0.865956  p :     2.467466
      px      :     0.771356
      py      :     0.830154
      dz2     :     0.009982  d :     0.070149
      dxz     :     0.015586
      dyz     :     0.015700
      dx2y2   :     0.010254
      dxy     :     0.018628

  4 C s       :     3.278728  s :     3.278728
      pz      :     1.007723  p :     3.012830
      px      :     0.941609
      py      :     1.063499
      dz2     :     0.006531  d :     0.037732
      dxz     :     0.006333
      dyz     :     0.010341
      dx2y2   :     0.007763
      dxy     :     0.006764

  5 C s       :     3.209159  s :     3.209159
      pz      :     1.036087  p :     2.878922
      px      :     0.953038
      py      :     0.889797
      dz2     :     0.008521  d :     0.054615
      dxz     :     0.007587
      dyz     :     0.016549
      dx2y2   :     0.011080
      dxy     :     0.010877

  6 N s       :     3.552632  s :     3.552632
      pz      :     1.621473  p :     3.855935
      px      :     1.091598
      py      :     1.142863
      dz2     :     0.003575  d :     0.032704
      dxz     :     0.005236
      dyz     :     0.005051
      dx2y2   :     0.010443
      dxy     :     0.008399

  7 C s       :     2.912550  s :     2.912550
      pz      :     0.839905  p :     2.287386
      px      :     0.727269
      py      :     0.720212
      dz2     :     0.006299  d :     0.114338
      dxz     :     0.014729
      dyz     :     0.020857
      dx2y2   :     0.037610
      dxy     :     0.034843

  8 O s       :     3.888256  s :     3.888256
      pz      :     1.484033  p :     4.578764
      px      :     1.701624
      py      :     1.393107
      dz2     :     0.002459  d :     0.025334
      dxz     :     0.001700
      dyz     :     0.007463
      dx2y2   :     0.006760
      dxy     :     0.006952

  9 N s       :     3.634970  s :     3.634970
      pz      :     1.725255  p :     4.065951
      px      :     1.166426
      py      :     1.174270
      dz2     :     0.003328  d :     0.029200
      dxz     :     0.004551
      dyz     :     0.002519
      dx2y2   :     0.007711
      dxy     :     0.011091

 10 C s       :     3.059683  s :     3.059683
      pz      :     0.902070  p :     2.542491
      px      :     0.693625
      py      :     0.946797
      dz2     :     0.008708  d :     0.054808
      dxz     :     0.016207
      dyz     :     0.005517
      dx2y2   :     0.014684
      dxy     :     0.009691

 11 C s       :     3.185997  s :     3.185997
      pz      :     0.987679  p :     2.957688
      px      :     0.975255
      py      :     0.994754
      dz2     :     0.003814  d :     0.035426
      dxz     :     0.009135
      dyz     :     0.005766
      dx2y2   :     0.007143
      dxy     :     0.009567

 12 C s       :     3.194371  s :     3.194371
      pz      :     0.994165  p :     2.945420
      px      :     0.964354
      py      :     0.986901
      dz2     :     0.004491  d :     0.034853
      dxz     :     0.008791
      dyz     :     0.005273
      dx2y2   :     0.006270
      dxy     :     0.010029

 13 C s       :     3.069418  s :     3.069418
      pz      :     0.960688  p :     2.514586
      px      :     0.604666
      py      :     0.949232
      dz2     :     0.010203  d :     0.064955
      dxz     :     0.014997
      dyz     :     0.005665
      dx2y2   :     0.018768
      dxy     :     0.015323

 14 O s       :     3.884500  s :     3.884500
      pz      :     1.659278  p :     4.638348
      px      :     1.311888
      py      :     1.667182
      dz2     :     0.004074  d :     0.025942
      dxz     :     0.005454
      dyz     :     0.004854
      dx2y2   :     0.005573
      dxy     :     0.005987

 15 C s       :     2.715995  s :     2.715995
      pz      :     0.685215  p :     2.033837
      px      :     0.667505
      py      :     0.681117
      dz2     :     0.039187  d :     0.164692
      dxz     :     0.029676
      dyz     :     0.028841
      dx2y2   :     0.037215
      dxy     :     0.029773

 16 F s       :     3.981984  s :     3.981984
      pz      :     1.509224  p :     5.294554
      px      :     1.887408
      py      :     1.897922
      dz2     :     0.007422  d :     0.016206
      dxz     :     0.004103
      dyz     :     0.003711
      dx2y2   :     0.000535
      dxy     :     0.000435

 17 F s       :     3.982150  s :     3.982150
      pz      :     1.883246  p :     5.292350
      px      :     1.904571
      py      :     1.504533
      dz2     :     0.002218  d :     0.016280
      dxz     :     0.000420
      dyz     :     0.004209
      dx2y2   :     0.005831
      dxy     :     0.003602

 18 F s       :     3.978945  s :     3.978945
      pz      :     1.901768  p :     5.285508
      px      :     1.500029
      py      :     1.883712
      dz2     :     0.002326  d :     0.016144
      dxz     :     0.003525
      dyz     :     0.000489
      dx2y2   :     0.005663
      dxy     :     0.004142

 19 C s       :     3.185617  s :     3.185617
      pz      :     1.005758  p :     2.980775
      px      :     0.991117
      py      :     0.983900
      dz2     :     0.003924  d :     0.034873
      dxz     :     0.008962
      dyz     :     0.005628
      dx2y2   :     0.006738
      dxy     :     0.009620

 20 C s       :     3.185263  s :     3.185263
      pz      :     0.963230  p :     2.909070
      px      :     0.950195
      py      :     0.995645
      dz2     :     0.004584  d :     0.035348
      dxz     :     0.009132
      dyz     :     0.005706
      dx2y2   :     0.006734
      dxy     :     0.009191

 21 C s       :     3.221599  s :     3.221599
      pz      :     1.011307  p :     2.849177
      px      :     0.948763
      py      :     0.889107
      dz2     :     0.005984  d :     0.053992
      dxz     :     0.012512
      dyz     :     0.015313
      dx2y2   :     0.005650
      dxy     :     0.014533

 22 C s       :     3.277266  s :     3.277266
      pz      :     0.994130  p :     3.006929
      px      :     0.991029
      py      :     1.021771
      dz2     :     0.004507  d :     0.037894
      dxz     :     0.009707
      dyz     :     0.009779
      dx2y2   :     0.003476
      dxy     :     0.010426

 23 O s       :     3.903465  s :     3.903465
      pz      :     1.735742  p :     4.612775
      px      :     1.263643
      py      :     1.613390
      dz2     :     0.003726  d :     0.027296
      dxz     :     0.004973
      dyz     :     0.004221
      dx2y2   :     0.004923
      dxy     :     0.009452

 24 C s       :     3.112547  s :     3.112547
      pz      :     0.940201  p :     2.582154
      px      :     0.695755
      py      :     0.946197
      dz2     :     0.009110  d :     0.065781
      dxz     :     0.013205
      dyz     :     0.009158
      dx2y2   :     0.016205
      dxy     :     0.018102

 25 C s       :     3.097116  s :     3.097116
      pz      :     0.965151  p :     2.473493
      px      :     0.896984
      py      :     0.611358
      dz2     :     0.008680  d :     0.071006
      dxz     :     0.008032
      dyz     :     0.014644
      dx2y2   :     0.019723
      dxy     :     0.019927

 26 F s       :     3.974455  s :     3.974455
      pz      :     1.877646  p :     5.315080
      px      :     1.893927
      py      :     1.543507
      dz2     :     0.002156  d :     0.017288
      dxz     :     0.000714
      dyz     :     0.004666
      dx2y2   :     0.005418
      dxy     :     0.004334

 27 C s       :     3.213135  s :     3.213135
      pz      :     0.995185  p :     2.950219
      px      :     0.965572
      py      :     0.989462
      dz2     :     0.003100  d :     0.035214
      dxz     :     0.006134
      dyz     :     0.007377
      dx2y2   :     0.008461
      dxy     :     0.010142

 28 C s       :     3.189000  s :     3.189000
      pz      :     0.989812  p :     2.899881
      px      :     0.988564
      py      :     0.921504
      dz2     :     0.004848  d :     0.035978
      dxz     :     0.004905
      dyz     :     0.006382
      dx2y2   :     0.009988
      dxy     :     0.009857

 29 C s       :     3.216559  s :     3.216559
      pz      :     0.945487  p :     2.914990
      px      :     0.976072
      py      :     0.993432
      dz2     :     0.005469  d :     0.036118
      dxz     :     0.006011
      dyz     :     0.004962
      dx2y2   :     0.010622
      dxy     :     0.009055

 30 C s       :     3.142834  s :     3.142834
      pz      :     0.996388  p :     2.767862
      px      :     0.904134
      py      :     0.867340
      dz2     :     0.004107  d :     0.037334
      dxz     :     0.006945
      dyz     :     0.006562
      dx2y2   :     0.010350
      dxy     :     0.009370

 31 H s       :     0.817380  s :     0.817380

 32 H s       :     0.825324  s :     0.825324

 33 H s       :     0.838308  s :     0.838308

 34 H s       :     0.826081  s :     0.826081

 35 H s       :     0.858632  s :     0.858632

 36 H s       :     0.846838  s :     0.846838

 37 H s       :     0.671332  s :     0.671332

 38 H s       :     0.869455  s :     0.869455

 39 H s       :     0.852689  s :     0.852689

 40 H s       :     0.845315  s :     0.845315

 41 H s       :     0.840363  s :     0.840363

 42 H s       :     0.821342  s :     0.821342

 43 H s       :     0.841089  s :     0.841089

 44 H s       :     0.845591  s :     0.845591

 45 H s       :     0.830120  s :     0.830120

 46 H s       :     0.840953  s :     0.840953

 47 H s       :     0.854653  s :     0.854653

 48 H s       :     0.832762  s :     0.832762



                     *******************************
                     * LOEWDIN POPULATION ANALYSIS *
                     *******************************

----------------------
LOEWDIN ATOMIC CHARGES
----------------------
   0 O :   -0.236815
   1 C :    0.127327
   2 C :   -0.251500
   3 C :    0.083484
   4 C :   -0.239059
   5 C :   -0.156940
   6 N :   -0.134957
   7 C :    0.165865
   8 O :   -0.309257
   9 N :   -0.230744
  10 C :    0.034252
  11 C :   -0.141897
  12 C :   -0.140152
  13 C :    0.077180
  14 O :   -0.162736
  15 C :    0.359056
  16 F :   -0.106327
  17 F :   -0.104435
  18 F :   -0.088897
  19 C :   -0.155462
  20 C :   -0.115380
  21 C :   -0.143251
  22 C :   -0.233562
  23 O :   -0.165625
  24 C :    0.076546
  25 C :    0.096880
  26 F :   -0.095409
  27 C :   -0.131033
  28 C :   -0.136788
  29 C :   -0.092774
  30 C :   -0.089900
  31 H :    0.153772
  32 H :    0.149337
  33 H :    0.138075
  34 H :    0.141516
  35 H :    0.110402
  36 H :    0.127337
  37 H :    0.253422
  38 H :    0.134337
  39 H :    0.145166
  40 H :    0.143616
  41 H :    0.150990
  42 H :    0.148001
  43 H :    0.124006
  44 H :    0.132255
  45 H :    0.145264
  46 H :    0.151146
  47 H :    0.140353
  48 H :    0.153314

-------------------------------
LOEWDIN REDUCED ORBITAL CHARGES
-------------------------------
  0 O s       :     3.588227  s :     3.588227
      pz      :     1.480145  p :     4.597860
      px      :     1.683390
      py      :     1.434325
      dz2     :     0.006416  d :     0.050727
      dxz     :     0.001284
      dyz     :     0.013369
      dx2y2   :     0.017041
      dxy     :     0.012617

  1 C s       :     2.884589  s :     2.884589
      pz      :     0.860749  p :     2.790070
      px      :     0.955395
      py      :     0.973926
      dz2     :     0.022201  d :     0.198014
      dxz     :     0.013079
      dyz     :     0.047808
      dx2y2   :     0.045025
      dxy     :     0.069900

  2 C s       :     2.951997  s :     2.951997
      pz      :     1.075651  p :     3.220373
      px      :     1.072859
      py      :     1.071863
      dz2     :     0.014107  d :     0.079129
      dxz     :     0.014250
      dyz     :     0.018100
      dx2y2   :     0.008599
      dxy     :     0.024073

  3 C s       :     2.873888  s :     2.873888
      pz      :     1.018071  p :     2.882468
      px      :     0.894380
      py      :     0.970017
      dz2     :     0.020388  d :     0.160160
      dxz     :     0.036471
      dyz     :     0.038022
      dx2y2   :     0.021080
      dxy     :     0.044199

  4 C s       :     2.951234  s :     2.951234
      pz      :     1.067784  p :     3.209200
      px      :     1.033580
      py      :     1.107837
      dz2     :     0.013730  d :     0.078624
      dxz     :     0.014079
      dyz     :     0.020145
      dx2y2   :     0.017003
      dxy     :     0.013667

  5 C s       :     2.927590  s :     2.927590
      pz      :     1.095362  p :     3.115404
      px      :     1.033304
      py      :     0.986739
      dz2     :     0.017085  d :     0.113946
      dxz     :     0.014778
      dyz     :     0.033094
      dx2y2   :     0.025426
      dxy     :     0.023564

  6 N s       :     3.110800  s :     3.110800
      pz      :     1.588233  p :     3.941084
      px      :     1.136667
      py      :     1.216184
      dz2     :     0.007315  d :     0.083073
      dxz     :     0.011837
      dyz     :     0.010715
      dx2y2   :     0.029008
      dxy     :     0.024198

  7 C s       :     2.840647  s :     2.840647
      pz      :     0.852705  p :     2.732588
      px      :     0.920571
      py      :     0.959311
      dz2     :     0.014625  d :     0.260901
      dxz     :     0.029522
      dyz     :     0.042499
      dx2y2   :     0.090983
      dxy     :     0.083271

  8 O s       :     3.590604  s :     3.590604
      pz      :     1.480159  p :     4.668736
      px      :     1.712201
      py      :     1.476376
      dz2     :     0.006517  d :     0.049917
      dxz     :     0.002419
      dyz     :     0.010859
      dx2y2   :     0.014297
      dxy     :     0.015824

  9 N s       :     3.145089  s :     3.145089
      pz      :     1.662847  p :     4.017011
      px      :     1.164261
      py      :     1.189903
      dz2     :     0.005191  d :     0.068643
      dxz     :     0.009418
      dyz     :     0.004915
      dx2y2   :     0.020782
      dxy     :     0.028337

 10 C s       :     2.853632  s :     2.853632
      pz      :     1.022717  p :     2.979665
      px      :     0.912815
      py      :     1.044134
      dz2     :     0.019665  d :     0.132451
      dxz     :     0.037678
      dyz     :     0.013851
      dx2y2   :     0.036804
      dxy     :     0.024453

 11 C s       :     2.914017  s :     2.914017
      pz      :     1.032529  p :     3.144779
      px      :     1.061601
      py      :     1.050649
      dz2     :     0.008659  d :     0.083100
      dxz     :     0.021346
      dyz     :     0.010788
      dx2y2   :     0.019125
      dxy     :     0.023181

 12 C s       :     2.914550  s :     2.914550
      pz      :     1.037499  p :     3.143610
      px      :     1.063620
      py      :     1.042491
      dz2     :     0.009852  d :     0.081992
      dxz     :     0.020934
      dyz     :     0.010747
      dx2y2   :     0.017006
      dxy     :     0.023453

 13 C s       :     2.856932  s :     2.856932
      pz      :     1.042939  p :     2.911237
      px      :     0.819128
      py      :     1.049169
      dz2     :     0.022947  d :     0.154652
      dxz     :     0.035795
      dyz     :     0.013457
      dx2y2   :     0.044881
      dxy     :     0.037572

 14 O s       :     3.470719  s :     3.470719
      pz      :     1.651859  p :     4.634713
      px      :     1.322861
      py      :     1.659993
      dz2     :     0.007037  d :     0.057305
      dxz     :     0.014286
      dyz     :     0.008695
      dx2y2   :     0.012413
      dxy     :     0.014873

 15 C s       :     2.819469  s :     2.819469
      pz      :     0.816910  p :     2.442884
      px      :     0.810530
      py      :     0.815444
      dz2     :     0.093450  d :     0.378590
      dxz     :     0.065493
      dyz     :     0.064924
      dx2y2   :     0.089360
      dxy     :     0.065363

 16 F s       :     3.765267  s :     3.765267
      pz      :     1.535671  p :     5.309815
      px      :     1.880777
      py      :     1.893367
      dz2     :     0.016416  d :     0.031245
      dxz     :     0.007224
      dyz     :     0.006103
      dx2y2   :     0.000828
      dxy     :     0.000674

 17 F s       :     3.765072  s :     3.765072
      pz      :     1.879910  p :     5.308001
      px      :     1.896089
      py      :     1.532002
      dz2     :     0.004552  d :     0.031362
      dxz     :     0.000626
      dyz     :     0.007329
      dx2y2   :     0.012956
      dxy     :     0.005898

 18 F s       :     3.760409  s :     3.760409
      pz      :     1.895754  p :     5.297898
      px      :     1.523001
      py      :     1.879142
      dz2     :     0.004752  d :     0.030590
      dxz     :     0.005946
      dyz     :     0.000777
      dx2y2   :     0.011578
      dxy     :     0.007538

 19 C s       :     2.918573  s :     2.918573
      pz      :     1.042715  p :     3.154883
      px      :     1.071225
      py      :     1.040944
      dz2     :     0.008863  d :     0.082006
      dxz     :     0.020980
      dyz     :     0.010757
      dx2y2   :     0.018116
      dxy     :     0.023289

 20 C s       :     2.916536  s :     2.916536
      pz      :     1.018922  p :     3.116307
      px      :     1.063214
      py      :     1.034171
      dz2     :     0.010348  d :     0.082538
      dxz     :     0.021597
      dyz     :     0.011245
      dx2y2   :     0.017865
      dxy     :     0.021483

 21 C s       :     2.926503  s :     2.926503
      pz      :     1.080334  p :     3.103108
      px      :     1.027648
      py      :     0.995126
      dz2     :     0.011784  d :     0.113640
      dxz     :     0.026722
      dyz     :     0.031122
      dx2y2   :     0.012185
      dxy     :     0.031827

 22 C s       :     2.952626  s :     2.952626
      pz      :     1.064950  p :     3.201743
      px      :     1.056734
      py      :     1.080060
      dz2     :     0.008983  d :     0.079192
      dxz     :     0.021141
      dyz     :     0.019742
      dx2y2   :     0.006942
      dxy     :     0.022384

 23 O s       :     3.464528  s :     3.464528
      pz      :     1.719165  p :     4.639410
      px      :     1.286657
      py      :     1.633588
      dz2     :     0.007121  d :     0.061688
      dxz     :     0.012410
      dyz     :     0.007214
      dx2y2   :     0.013661
      dxy     :     0.021281

 24 C s       :     2.861828  s :     2.861828
      pz      :     0.984073  p :     2.904731
      px      :     0.884750
      py      :     1.035907
      dz2     :     0.019541  d :     0.156896
      dxz     :     0.030105
      dyz     :     0.020969
      dx2y2   :     0.040047
      dxy     :     0.046232

 25 C s       :     2.862594  s :     2.862594
      pz      :     1.008886  p :     2.864295
      px      :     1.048147
      py      :     0.807262
      dz2     :     0.019923  d :     0.176231
      dxz     :     0.018479
      dyz     :     0.035995
      dx2y2   :     0.049268
      dxy     :     0.052567

 26 F s       :     3.735066  s :     3.735066
      pz      :     1.873533  p :     5.325297
      px      :     1.891704
      py      :     1.560061
      dz2     :     0.004394  d :     0.035045
      dxz     :     0.001418
      dyz     :     0.009586
      dx2y2   :     0.011054
      dxy     :     0.008594

 27 C s       :     2.924098  s :     2.924098
      pz      :     1.013240  p :     3.124368
      px      :     1.043083
      py      :     1.068045
      dz2     :     0.006675  d :     0.082567
      dxz     :     0.012408
      dyz     :     0.015645
      dx2y2   :     0.022312
      dxy     :     0.025527

 28 C s       :     2.914603  s :     2.914603
      pz      :     1.021541  p :     3.137047
      px      :     1.063746
      py      :     1.051760
      dz2     :     0.009909  d :     0.085138
      dxz     :     0.010181
      dyz     :     0.016331
      dx2y2   :     0.024811
      dxy     :     0.023906

 29 C s       :     2.918026  s :     2.918026
      pz      :     0.980662  p :     3.090090
      px      :     1.035797
      py      :     1.073631
      dz2     :     0.010985  d :     0.084657
      dxz     :     0.015627
      dyz     :     0.010588
      dx2y2   :     0.024990
      dxy     :     0.022468

 30 C s       :     2.875908  s :     2.875908
      pz      :     1.033571  p :     3.115051
      px      :     1.049539
      py      :     1.031941
      dz2     :     0.009624  d :     0.098941
      dxz     :     0.017291
      dyz     :     0.016699
      dx2y2   :     0.028517
      dxy     :     0.026810

 31 H s       :     0.846228  s :     0.846228

 32 H s       :     0.850663  s :     0.850663

 33 H s       :     0.861925  s :     0.861925

 34 H s       :     0.858484  s :     0.858484

 35 H s       :     0.889598  s :     0.889598

 36 H s       :     0.872663  s :     0.872663

 37 H s       :     0.746578  s :     0.746578

 38 H s       :     0.865663  s :     0.865663

 39 H s       :     0.854834  s :     0.854834

 40 H s       :     0.856384  s :     0.856384

 41 H s       :     0.849010  s :     0.849010

 42 H s       :     0.851999  s :     0.851999

 43 H s       :     0.875994  s :     0.875994

 44 H s       :     0.867745  s :     0.867745

 45 H s       :     0.854736  s :     0.854736

 46 H s       :     0.848854  s :     0.848854

 47 H s       :     0.859647  s :     0.859647

 48 H s       :     0.846686  s :     0.846686



                      *****************************
                      * MAYER POPULATION ANALYSIS *
                      *****************************

  NA   - Mulliken gross atomic population
  ZA   - Total nuclear charge
  QA   - Mulliken gross atomic charge
  VA   - Mayer's total valence
  BVA  - Mayer's bonded valence
  FA   - Mayer's free valence

  ATOM       NA         ZA         QA         VA         BVA        FA
  0 O      8.4427     8.0000    -0.4427     2.0577     2.0577    -0.0000
  1 C      5.6442     6.0000     0.3558     3.9119     3.9119     0.0000
  2 C      6.3939     6.0000    -0.3939     3.7672     3.7672     0.0000
  3 C      5.6544     6.0000     0.3456     3.7868     3.7868     0.0000
  4 C      6.3293     6.0000    -0.3293     3.8327     3.8327     0.0000
  5 C      6.1427     6.0000    -0.1427     3.8381     3.8381    -0.0000
  6 N      7.4413     7.0000    -0.4413     3.0061     3.0061     0.0000
  7 C      5.3143     6.0000     0.6857     3.9295     3.9295     0.0000
  8 O      8.4924     8.0000    -0.4924     2.0367     2.0367     0.0000
  9 N      7.7301     7.0000    -0.7301     2.8507     2.8507     0.0000
 10 C      5.6570     6.0000     0.3430     3.8643     3.8643     0.0000
 11 C      6.1791     6.0000    -0.1791     3.9290     3.9290     0.0000
 12 C      6.1746     6.0000    -0.1746     3.9357     3.9357     0.0000
 13 C      5.6490     6.0000     0.3510     3.8004     3.8004    -0.0000
 14 O      8.5488     8.0000    -0.5488     1.9562     1.9562    -0.0000
 15 C      4.9145     6.0000     1.0855     3.9958     3.9958    -0.0000
 16 F      9.2927     9.0000    -0.2927     1.0634     1.0634     0.0000
 17 F      9.2908     9.0000    -0.2908     1.0658     1.0658    -0.0000
 18 F      9.2806     9.0000    -0.2806     1.0860     1.0860    -0.0000
 19 C      6.2013     6.0000    -0.2013     3.9097     3.9097     0.0000
 20 C      6.1297     6.0000    -0.1297     3.9294     3.9294     0.0000
 21 C      6.1248     6.0000    -0.1248     3.8299     3.8299     0.0000
 22 C      6.3221     6.0000    -0.3221     3.8242     3.8242     0.0000
 23 O      8.5435     8.0000    -0.5435     1.9257     1.9257    -0.0000
 24 C      5.7605     6.0000     0.2395     3.7287     3.7287     0.0000
 25 C      5.6416     6.0000     0.3584     3.7820     3.7820     0.0000
 26 F      9.3068     9.0000    -0.3068     1.0577     1.0577     0.0000
 27 C      6.1986     6.0000    -0.1986     3.8859     3.8859    -0.0000
 28 C      6.1249     6.0000    -0.1249     3.8998     3.8998    -0.0000
 29 C      6.1677     6.0000    -0.1677     3.9124     3.9124    -0.0000
 30 C      5.9480     6.0000     0.0520     3.8316     3.8316     0.0000
 31 H      0.8174     1.0000     0.1826     0.9274     0.9274    -0.0000
 32 H      0.8253     1.0000     0.1747     0.9401     0.9401     0.0000
 33 H      0.8383     1.0000     0.1617     0.9345     0.9345    -0.0000
 34 H      0.8261     1.0000     0.1739     0.9305     0.9305    -0.0000
 35 H      0.8586     1.0000     0.1414     0.9232     0.9232    -0.0000
 36 H      0.8468     1.0000     0.1532     0.9287     0.9287     0.0000
 37 H      0.6713     1.0000     0.3287     0.8669     0.8669    -0.0000
 38 H      0.8695     1.0000     0.1305     0.9385     0.9385     0.0000
 39 H      0.8527     1.0000     0.1473     0.9369     0.9369     0.0000
 40 H      0.8453     1.0000     0.1547     0.9486     0.9486    -0.0000
 41 H      0.8404     1.0000     0.1596     0.9464     0.9464    -0.0000
 42 H      0.8213     1.0000     0.1787     0.9387     0.9387     0.0000
 43 H      0.8411     1.0000     0.1589     0.9240     0.9240     0.0000
 44 H      0.8456     1.0000     0.1544     0.9325     0.9325     0.0000
 45 H      0.8301     1.0000     0.1699     0.9368     0.9368     0.0000
 46 H      0.8410     1.0000     0.1590     0.9343     0.9343    -0.0000
 47 H      0.8547     1.0000     0.1453     0.9365     0.9365    -0.0000
 48 H      0.8328     1.0000     0.1672     0.9418     0.9418    -0.0000

  Mayer bond orders larger than 0.100000
B(  0-O ,  1-C ) :   1.8659 B(  1-C ,  2-C ) :   0.9575 B(  1-C , 30-C ) :   1.0119 
B(  2-C ,  3-C ) :   0.9524 B(  2-C , 31-H ) :   0.9094 B(  2-C , 32-H ) :   0.9164 
B(  3-C ,  4-C ) :   0.9742 B(  3-C , 22-C ) :   0.9719 B(  3-C , 23-O ) :   0.8339 
B(  4-C ,  5-C ) :   1.0009 B(  4-C , 33-H ) :   0.9248 B(  4-C , 34-H ) :   0.9234 
B(  5-C ,  6-N ) :   0.9454 B(  5-C , 35-H ) :   0.9176 B(  5-C , 36-H ) :   0.9244 
B(  6-N ,  7-C ) :   1.0511 B(  6-N , 21-C ) :   0.9391 B(  7-C ,  8-O ) :   1.7856 
B(  7-C ,  9-N ) :   1.0013 B(  9-N , 10-C ) :   0.8645 B(  9-N , 37-H ) :   0.8183 
B( 10-C , 11-C ) :   1.4101 B( 10-C , 20-C ) :   1.4207 B( 11-C , 12-C ) :   1.4416 
B( 11-C , 38-H ) :   0.9236 B( 12-C , 13-C ) :   1.4240 B( 12-C , 39-H ) :   0.9181 
B( 13-C , 14-O ) :   0.8166 B( 13-C , 19-C ) :   1.3829 B( 14-O , 15-C ) :   0.9944 
B( 15-C , 16-F ) :   0.9667 B( 15-C , 17-F ) :   0.9695 B( 15-C , 18-F ) :   1.0062 
B( 19-C , 20-C ) :   1.4386 B( 19-C , 40-H ) :   0.9094 B( 20-C , 41-H ) :   0.9097 
B( 21-C , 22-C ) :   0.9907 B( 21-C , 42-H ) :   0.9222 B( 21-C , 43-H ) :   0.9260 
B( 22-C , 44-H ) :   0.9273 B( 22-C , 45-H ) :   0.9221 B( 23-O , 24-C ) :   0.9279 
B( 24-C , 25-C ) :   1.2908 B( 24-C , 30-C ) :   1.2941 B( 25-C , 26-F ) :   0.9379 
B( 25-C , 27-C ) :   1.4099 B( 27-C , 28-C ) :   1.3984 B( 27-C , 46-H ) :   0.9180 
B( 28-C , 29-C ) :   1.4471 B( 28-C , 47-H ) :   0.9293 B( 29-C , 30-C ) :   1.3754 
B( 29-C , 48-H ) :   0.9117 

-------
TIMINGS
-------

Total SCF time: 0 days 0 hours 5 min 53 sec 

Total time                  ....     353.476 sec
Sum of individual times     ....     353.022 sec  ( 99.9%)

SCF preparation             ....       0.317 sec  (  0.1%)
Fock matrix formation       ....     350.377 sec  ( 99.1%)
  Startup                   ....       0.161 sec  (  0.0% of F)
  Split-RI-J                ....      43.569 sec  ( 12.4% of F)
  Chain of spheres X        ....     272.404 sec  ( 77.7% of F)
  XC integration            ....      33.288 sec  (  9.5% of F)
    Basis function eval.    ....      12.512 sec  ( 37.6% of XC)
    Density eval.           ....       7.695 sec  ( 23.1% of XC)
    XC-Functional eval.     ....       1.578 sec  (  4.7% of XC)
    XC-Potential eval.      ....       9.594 sec  ( 28.8% of XC)
Diagonalization             ....       0.000 sec  (  0.0%)
Density matrix formation    ....       0.440 sec  (  0.1%)
Total Energy calculation    ....       0.092 sec  (  0.0%)
Population analysis         ....       0.079 sec  (  0.0%)
Orbital Transformation      ....       0.202 sec  (  0.1%)
Orbital Orthonormalization  ....       0.000 sec  (  0.0%)
DIIS solution               ....       1.013 sec  (  0.3%)
SOSCF solution              ....       0.503 sec  (  0.1%)
Finished LeanSCF after 353.6 sec

Maximum memory used throughout the entire LEANSCF-calculation: 72.2 MB

-------------------------   --------------------
FINAL SINGLE POINT ENERGY     -1619.949636475619
-------------------------   --------------------


------------------------------------------------------------------------------
                              ORCA PROPERTY CALCULATIONS
------------------------------------------------------------------------------

GBWName                                 ... /home/nmrbox/aojoawo/Documents/ERDOS/inputs/CHEMBL2440148.gbw
Number of atoms                         ...     49
Number of basis functions               ...    470
Max core memory                         ...   1024 MB

Electric properties:
Dipole moment                           ... YES
Quadrupole moment                       ...  NO
Static polarizability (Dipole/Dipole)   ...  NO
Static polarizability (Dipole/Quad.)    ...  NO
Static polarizability (Quad./Quad.)     ...  NO
Static polarizability (Velocity)        ...  NO

Atomic electric properties:
Dipole moment                           ...  NO
Quadrupole moment                       ...  NO
Static polarizability                   ...  NO

Choice of electric origin               ... Center of mass
Position of electric origin             ...     1.461251     0.252858     0.020146

General magnetic properties:
Magnetizability                         ...  NO

EPR properties:
g-Tensor (aka g-matrix)                 ...  NO
Zero-Field splitting spin-orbit         ...  NO
Zero-field splitting spin-spin          ...  NO
Hyperfine couplings                     ...  NO (   0 nuclei)
Quadrupole couplings                    ...  NO (   0 nuclei)
Contact density                         ...  NO (   0 nuclei)

NMR properties:
Chemical shifts                         ...  NO (   0 nuclei)
Spin-rotation constants                 ...  NO (   0 nuclei)
Spin-spin couplings                     ...  NO (   0 nuclei,    0 pairs)

Choice of magnetic origin               ... GIAO
Position of magnetic origin             ...     0.000000     0.000000     0.000000

Properties with geometric perturbations:
SCF Hessian                             ...  NO
IR spectrum                             ...  NO
VCD spectrum                            ...  NO
X-ray spectroscopy properties:
SCF XES/XAS/RIXS spectra                ...  NO


-------------
DIPOLE MOMENT
-------------

Method             : SCF
Type of density    : Electron Density
Multiplicity       :   1
Irrep              :   0
Energy             : -1619.9496364756191724 Eh
Relativity type    : 
Basis              : AO
                                X                 Y                 Z
Electronic contribution:     43.688612094       7.438915550       2.511898306
Nuclear contribution   :    -45.346061198      -8.230469186      -2.702693837
                        -----------------------------------------
Total Dipole Moment    :     -1.657449104      -0.791553637      -0.190795530
                        -----------------------------------------
Magnitude (a.u.)       :      1.846644965
Magnitude (Debye)      :      4.693798478



--------------------
Rotational spectrum 
--------------------
 
Rotational constants in cm-1:             0.017478             0.001188             0.001160 
Rotational constants in MHz :           523.967006            35.629454            34.773000 

Dipole components along the rotational axes: 
x,y,z [a.u.] :    -1.665715    -0.754059     0.258624 
x,y,z [Debye]:    -4.233911    -1.916666     0.657369 

 

Dipole moment calculation done in   0.0 sec 

Maximum memory used throughout the entire PROP-calculation: 35.0 MB

--------------------------------
SUGGESTED CITATIONS FOR THIS RUN
--------------------------------

Below you find a list of papers that are relevant to this ORCA run
We neither can nor want to force you to cite these papers, but we appreciate if you do
You receive ORCA, which is the product of decades of hard work by many enthusiastic individuals, for free
The only thing we kindly ask in return is that you cite our papers,
We deeply appreciate it, if you show your appreciation for ORCA by not just citing the generic ORCA reference.

Please note that relegating all ORCA citations to the supporting information does *not* help us.
SI sections are not indexed - citations you put there will not count into any citation statistics
But we need these citations in order to attract the funding resources that allow us to do what we are doing

Therefore, if you are a happy ORCA user, please consider citing a few of the papers listed below in the main body of your paper

In addition to the list printed below, the program has created the file /home/nmrbox/aojoawo/Documents/ERDOS/inputs/CHEMBL2440148.bibtex that contains the list in bibtex format
You can import this file easily into all common literature databanks and citation aid programs


List of essential papers. We consider these as the minimum necessary citations

  1. Neese,F.
     Software update: the ORCA program system, version 5.0
     WIRES Comput. Molec. Sci., 2022 12(1)e1606
     doi.org/10.1002/wcms.1606

List of papers to cite with high priority. The work reported in these papers was absolutely
necessary for this run to complete.
Our perspective: the developers of density functionals and basis sets usually get cited in chemistry papers
Good! But without the algorithms to do something with them, the functionals or basis sets would not do anything.
Hence, in our opinion, the algorithm design and method developments papers are equally worthy of getting cited

  1. Neese,F.
     An improvement of the resolution of the identity approximation for the formation of the Coulomb matrix
     J. Comp. Chem., 2003 24(14)1740-1747
     doi.org/10.1002/jcc.10318
  2. Neese,F.; Wennmohs,F.; Hansen,A.; Becker,U.
     Efficient, approximate and parallel Hartree-Fock and hybrid DFT calculations. A 'chain-of-spheres' algorithm for the Hartree-Fock exchange
     Chem. Phys., 2009 356(1-3)98-109
     doi.org/10.1016/j.chemphys.2008.10.036
  3. Helmich-Paris,B.; de Souza,B.; Neese,F.; Izsák,R.
     An improved chain of spheres for exchange algorithm
     J. Chem. Phys., 2021 155 104109
     doi.org/doi: 10.1063/5.0058766.
  4. Neese,F.
     The SHARK Integral Generation and Digestion System
     J. Comp. Chem., 2022  1-16
     doi.org/10.1002/jcc.26942

List of suggested additional citations. These are papers that are important in the 'surrounding' of 
of this run, or papers that preceded the highly important papers. If you like your results we are grateful for a citation.

  1. Izsak,R.; Neese,F.
     An overlap fitted chain of spheres exchange method
     J. Chem. Phys., 2011 135 144105
     doi.org/10.1063/1.3646921
  2. Izsak,R.; Hansen,A.; Neese,F.
     The resolution of identity and chain of spheres approximations for the LPNO-CCSD singles Fock term
     Molec. Phys., 2012 110 2413-2417
     doi.org/10.1080/00268976.2012.687466
  3. Neese,F.
     The ORCA program system
     WIRES Comput. Molec. Sci., 2012 2(1)73-78
     doi.org/10.1002/wcms.81
  4. Izsak,R.; Neese,F.; Klopper,W.
     Robust fitting techniques in the chain of spheres approximation to the Fock exchange: The role of the complementary space
     J. Chem. Phys., 2013 139 
     doi.org/10.1063/1.4819264
  5. Neese,F.
     Software update: the ORCA program system, version 4.0
     WIRES Comput. Molec. Sci., 2018 8(1)1-6
     doi.org/10.1002/wcms.1327
  6. Neese,F.; Wennmohs,F.; Becker,U.; Riplinger,C.
     The ORCA quantum chemistry program package
     J. Chem. Phys., 2020 152 Art. No. L224108
     doi.org/10.1063/5.0004608

List of optional additional citations

  1. Neese,F.
     Approximate second-order SCF convergence for spin unrestricted wavefunctions
     Chem. Phys. Lett., 2000 325(1-3)93-98
     doi.org/10.1016/s0009-2614(00)00662-x

Timings for individual modules:

Sum of individual times          ...      369.528 sec (=   6.159 min)
Startup calculation              ...       10.498 sec (=   0.175 min)   2.8 %
SCF iterations                   ...      358.813 sec (=   5.980 min)  97.1 %
Property calculations            ...        0.217 sec (=   0.004 min)   0.1 %
                             ****ORCA TERMINATED NORMALLY****
TOTAL RUN TIME: 0 days 0 hours 6 minutes 10 seconds 383 msec
