
                                 *****************
                                 * O   R   C   A *
                                 *****************

                                            #,                                       
                                            ###                                      
                                            ####                                     
                                            #####                                    
                                            ######                                   
                                           ########,                                 
                                     ,,################,,,,,                         
                               ,,#################################,,                 
                          ,,##########################################,,             
                       ,#########################################, ''#####,          
                    ,#############################################,,   '####,        
                  ,##################################################,,,,####,       
                ,###########''''           ''''###############################       
              ,#####''   ,,,,##########,,,,          '''####'''          '####       
            ,##' ,,,,###########################,,,                        '##       
           ' ,,###''''                  '''############,,,                           
         ,,##''                                '''############,,,,        ,,,,,,###''
      ,#''                                            '''#######################'''  
     '                                                          ''''####''''         
             ,#######,   #######,   ,#######,      ##                                
            ,#'     '#,  ##    ##  ,#'     '#,    #''#        ,####,   ,####,        
            ##       ##  ##   ,#'  ##            #'  '#       #'       #'  '#        
            ##       ##  #######   ##           ,######,      #####,   #    #        
            '#,     ,#'  ##    ##  '#,     ,#' ,#      #,     #,   #   #,  ,#        
             '#######'   ##     ##  '#######'  #'      '#     '####' # '####'        



                #########################################################
                #                        -***-                          #
                #          Department of theory and spectroscopy        #
                #                                                       #
                #                      Frank Neese                      #
                #                                                       #
                #     Directorship, Architecture, Infrastructure        #
                #                    SHARK, DRIVERS                     #
                #        Core code/Algorithms in most modules           #
                #                                                       #
                #        Max Planck Institute fuer Kohlenforschung      #
                #                Kaiser Wilhelm Platz 1                 #
                #                 D-45470 Muelheim/Ruhr                 #
                #                      Germany                          #
                #                                                       #
                #                  All rights reserved                  #
                #                        -***-                          #
                #########################################################


                         Program Version 6.0.0  -   RELEASE  -


 With contributions from (in alphabetic order):
   Daniel Aravena         : Magnetic Suceptibility
   Michael Atanasov       : Ab Initio Ligand Field Theory (pilot matlab implementation)
   Alexander A. Auer      : GIAO ZORA, VPT2 properties, NMR spectrum
   Ute Becker             : All parallelization in ORCA, NUMFREQ, NUMCALC
   Giovanni Bistoni       : ED, misc. LED, open-shell LED, HFLD
   Martin Brehm           : Molecular dynamics
   Dmytro Bykov           : pre 5.0 version of the SCF Hessian
   Marcos Casanova-Páez   : Triplet and SCS-CIS(D). UHF-(DLPNO)-IP/EA/STEOM-CCSD. UHF-CVS-IP/STEOM-CCSD
   Vijay G. Chilkuri      : MRCI spin determinant printing, contributions to CSF-ICE
   Pauline Colinet        : FMM embedding
   Dipayan Datta          : RHF DLPNO-CCSD density
   Achintya Kumar Dutta   : EOM-CC, STEOM-CC
   Nicolas Foglia         : Exact transition moments, OPA infrastructure, MCD improvements
   Dmitry Ganyushin       : Spin-Orbit,Spin-Spin,Magnetic field MRCI
   Miquel Garcia          : C-PCM and meta-GGA Hessian, CCSD/C-PCM, Gaussian charge scheme
   Tiago L. C. Gouveia    : GS-ROHF, GS-ROCIS
   Yang Guo               : DLPNO-NEVPT2, F12-NEVPT2, CIM, IAO-localization
   Andreas Hansen         : Spin unrestricted coupled pair/coupled cluster methods
   Ingolf Harden          : AUTO-CI MPn and infrastructure 
   Benjamin Helmich-Paris : MC-RPA, TRAH-(SCF,CASSCF), AVAS, COSX integrals, SCF dyn. polar.
   Lee Huntington         : MR-EOM, pCC
   Robert Izsak           : Overlap fitted RIJCOSX, COSX-SCS-MP3, EOM
   Riya Kayal             : Wick's Theorem for AUTO-CI, AUTO-CI UHF-CCSDT
   Emily Kempfer          : AUTO-CI, RHF CISDT and CCSDT
   Christian Kollmar      : KDIIS, OOCD, Brueckner-CCSD(T), CCSD density, CASPT2, CASPT2-K, improved NEVPT2
   Axel Koslowski         : Symmetry handling
   Simone Kossmann        : Meta GGA functionals, TD-DFT gradient, OOMP2, (MP2 Hessian; deprecated post 5.0)
   Lucas Lang             : DCDCAS
   Marvin Lechner         : AUTO-CI (C++ implementation), FIC-MRCC
   Spencer Leger          : CASSCF response
   Dagmar Lenk            : GEPOL surface, SMD, ORCA-2-JSON
   Dimitrios Liakos       : Extrapolation schemes; Compound Job, initial MDCI parallelization
   Dimitrios Manganas     : Further ROCIS development; embedding schemes. LFT, Crystal Embedding
   Dimitrios Pantazis     : SARC Basis sets
   Anastasios Papadopoulos: AUTO-CI, single reference methods and gradients
   Taras Petrenko         : pre 6.0 DFT Hessian and TD-DFT gradient, (ASA, deprecated), ECA, 1-Electron XAS/XES, NRVS
   Peter Pinski           : DLPNO-MP2, DLPNO-MP2 Gradient
   Christoph Reimann      : Effective Core Potentials
   Marius Retegan         : Local ZFS, SOC
   Christoph Riplinger    : Optimizer, TS searches, QM/MM, DLPNO-CCSD(T), (RO)-DLPNO pert. Triples
   Michael Roemelt        : Original ROCIS implementation
   Masaaki Saitow         : Open-shell DLPNO-CCSD energy and density
   Barbara Sandhoefer     : DKH picture change effects
   Kantharuban Sivalingam : CASSCF convergence/infrastructure, NEVPT2 and variants, FIC-MRCI
   Bernardo de Souza      : ESD, SOC TD-DFT
   Georgi Stoychev        : AutoAux, RI-MP2 NMR, DLPNO-MP2 response, X2C
   Van Anh Tran           : RI-MP2 g-tensors
   Willem Van den Heuvel  : Paramagnetic NMR
   Zikuan Wang            : NOTCH, Electric field optimization 
   Frank Wennmohs         : Technical directorship and infrastructure
   Hang Xu                : AUTO-CI-Response properties 


 We gratefully acknowledge several colleagues who have allowed us to
 interface, adapt or use parts of their codes:
   Stefan Grimme, W. Hujo, H. Kruse, P. Pracht,  : VdW corrections, initial TS optimization,
                  C. Bannwarth, S. Ehlert,         DFT functionals, gCP, sTDA/sTD-DF
                  L. Wittmann, M. Mueller
   Ed Valeev, F. Pavosevic, A. Kumar             : LibInt (2-el integral package), F12 methods
   Garnet Chan, S. Sharma, J. Yang, R. Olivares  : DMRG
   Ulf Ekstrom                                   : XCFun DFT Library
   Mihaly Kallay                                 : mrcc  (arbitrary order and MRCC methods)
   Frank Weinhold                                : gennbo (NPA and NBO analysis)
   Simon Mueller                                 : openCOSMO-RS
   Christopher J. Cramer and Donald G. Truhlar   : smd solvation model
   Lars Goerigk                                  : TD-DFT with DH, B97 family of functionals
   V. Asgeirsson, H. Jonsson                     : NEB implementation
   FAccTs GmbH                                   : IRC, NEB, NEB-TS, DLPNO-Multilevel, CI-OPT
                                                   MM, QMMM, 2- and 3-layer-ONIOM, Crystal-QMMM,
                                                   LR-CPCM, SF, NACMEs, symmetry and pop. for TD-DFT,
                                                   nearIR, NL-DFT gradient (VV10), updates on ESD,
                                                   ML-optimized integration grids, MBIS, APM,
                                                   GOAT, DOCKER, SOLVATOR, interface openCOSMO-RS
   S Lehtola, MJT Oliveira, MAL Marques          : LibXC Library
   Liviu Ungur et al                             : ANISO software


 Your calculation uses the libint2 library for the computation of 2-el integrals
 For citations please refer to: http://libint.valeyev.net

 Your ORCA version has been built with support for libXC version: 6.2.2
 For citations please refer to: https://libxc.gitlab.io

 This ORCA versions uses:
   CBLAS   interface :  Fast vector & matrix operations
   LAPACKE interface :  Fast linear algebra routines
   SCALAPACK package :  Parallel linear algebra routines
   Shared memory     :  Shared parallel matrices
   BLAS/LAPACK       :  OpenBLAS 0.3.27  USE64BITINT DYNAMIC_ARCH NO_AFFINITY SkylakeX SINGLE_THREADED
        Core in use  :  SkylakeX
   Copyright (c) 2011-2014, The OpenBLAS Project


Warning: RI is on but no J-basis has been assigned. Assigning Def2/J (nothing to worry about!)
================================================================================

----- Orbital basis set information -----
Your calculation utilizes the basis: 6-31G*
   H-He, Li-Ne : W. J. Hehre, R. Ditchfield and J.A. Pople, J. Chem. Phys. 56, 2257 (1972).
                 Note: He and Ne are unpublished basis sets taken from the Gaussian program.
                 Note: Li and B from J. D. Dill and J. A. Pople, J. Chem. Phys. 62, 2921 (1975).
   Na - Ar     : M. M. Francl, W. J. Pietro, W. J. Hehre, J. S. Binkley, M. S. Gordon, 
                 D. J. DeFrees and J. A. Pople, J. Chem. Phys. 77, 3654 (1982).
   K - Zn      : V. A. Rassolov, J. A. Pople, M. A. Ratner, and T. L. Windus, J. Chem. Phys. 109, 1223 (1998).

----- AuxJ basis set information -----
Your calculation utilizes the auxiliary basis: def2/J
   F. Weigend, Phys. Chem. Chem. Phys. 8, 1057 (2006).

================================================================================
                                        WARNINGS
                       Please study these warnings very carefully!
================================================================================


================================================================================
                                       INPUT FILE
================================================================================
NAME = /home/nmrbox/aojoawo/Documents/ERDOS/inputs/CHEMBL3682552.inp
|  1> ! B3LYP 6-31G* SP
|  2> 
|  3> * xyz 0 1
|  4> C -0.0006 2.9843 -0.0086
|  5> C -1.4548 2.7232 0.3021
|  6> C -1.9559 1.4021 0.5101
|  7> N -1.1321 0.2200 0.3648
|  8> C -0.5720 -0.0971 -0.9622
|  9> C 0.8618 -0.5904 -0.9356
| 10> C 1.3560 -1.2502 -2.0689
| 11> C 2.7026 -1.6061 -2.1550
| 12> C 3.5865 -1.2915 -1.1234
| 13> O 4.9353 -1.6443 -1.2589
| 14> C 6.0140 -0.9921 -0.6353
| 15> C 7.1099 -1.7547 -0.2042
| 16> C 8.1913 -1.1403 0.4329
| 17> C 8.1927 0.2469 0.6228
| 18> C 7.1172 1.0209 0.1659
| 19> C 6.0346 0.4079 -0.4671
| 20> C 3.0955 -0.6573 0.0262
| 21> C 1.7514 -0.2976 0.1121
| 22> S -1.3925 -1.1090 1.4736
| 23> O -0.0694 -1.6486 1.9412
| 24> O -2.1598 -0.6372 2.6787
| 25> C -2.3091 -2.3980 0.6925
| 26> C -1.8732 -3.7325 0.7591
| 27> C -2.6177 -4.7488 0.1457
| 28> C -3.8155 -4.4483 -0.5317
| 29> C -4.6187 -5.5172 -1.1693
| 30> O -4.2332 -6.7214 -1.1305
| 31> O -5.8151 -5.2026 -1.8113
| 32> C -4.2454 -3.1102 -0.5908
| 33> C -3.4981 -2.0969 0.0157
| 34> N -3.2611 1.2335 0.8355
| 35> C -4.1359 2.2593 0.9649
| 36> C -3.7121 3.5716 0.7603
| 37> C -4.6127 4.6383 0.9139
| 38> C -4.1883 5.9493 0.7208
| 39> C -2.8708 6.2054 0.3392
| 40> C -1.9666 5.1530 0.1738
| 41> C -2.3647 3.8157 0.4053
| 42> H 0.6377 2.1039 0.1470
| 43> H 0.4021 3.7673 0.6657
| 44> H 0.0971 3.3153 -1.0645
| 45> H -0.6072 0.7944 -1.6243
| 46> H -1.2155 -0.8589 -1.4473
| 47> H 0.6999 -1.4688 -2.9024
| 48> H 3.0678 -2.1041 -3.0390
| 49> H 7.1089 -2.8284 -0.3504
| 50> H 9.0288 -1.7404 0.7745
| 51> H 9.0225 0.7216 1.1177
| 52> H 7.1272 2.0964 0.2974
| 53> H 5.2114 1.0133 -0.8260
| 54> H 3.7469 -0.4438 0.8609
| 55> H 1.4133 0.1992 1.0066
| 56> H -0.9612 -3.9918 1.2864
| 57> H -2.2586 -5.7705 0.2113
| 58> H -6.3910 -5.9306 -2.2281
| 59> H -5.1619 -2.8437 -1.0991
| 60> H -3.8543 -1.0747 -0.0435
| 61> H -5.1601 2.0431 1.2387
| 62> H -5.6459 4.4612 1.1859
| 63> H -4.8795 6.7705 0.8715
| 64> H -2.5437 7.2246 0.1822
| 65> H -0.9584 5.4061 -0.1373
| 66> *
| 67> 
| 68>                          ****END OF INPUT****
================================================================================

                       ****************************
                       * Single Point Calculation *
                       ****************************

---------------------------------
CARTESIAN COORDINATES (ANGSTROEM)
---------------------------------
  C     -0.000600    2.984300   -0.008600
  C     -1.454800    2.723200    0.302100
  C     -1.955900    1.402100    0.510100
  N     -1.132100    0.220000    0.364800
  C     -0.572000   -0.097100   -0.962200
  C      0.861800   -0.590400   -0.935600
  C      1.356000   -1.250200   -2.068900
  C      2.702600   -1.606100   -2.155000
  C      3.586500   -1.291500   -1.123400
  O      4.935300   -1.644300   -1.258900
  C      6.014000   -0.992100   -0.635300
  C      7.109900   -1.754700   -0.204200
  C      8.191300   -1.140300    0.432900
  C      8.192700    0.246900    0.622800
  C      7.117200    1.020900    0.165900
  C      6.034600    0.407900   -0.467100
  C      3.095500   -0.657300    0.026200
  C      1.751400   -0.297600    0.112100
  S     -1.392500   -1.109000    1.473600
  O     -0.069400   -1.648600    1.941200
  O     -2.159800   -0.637200    2.678700
  C     -2.309100   -2.398000    0.692500
  C     -1.873200   -3.732500    0.759100
  C     -2.617700   -4.748800    0.145700
  C     -3.815500   -4.448300   -0.531700
  C     -4.618700   -5.517200   -1.169300
  O     -4.233200   -6.721400   -1.130500
  O     -5.815100   -5.202600   -1.811300
  C     -4.245400   -3.110200   -0.590800
  C     -3.498100   -2.096900    0.015700
  N     -3.261100    1.233500    0.835500
  C     -4.135900    2.259300    0.964900
  C     -3.712100    3.571600    0.760300
  C     -4.612700    4.638300    0.913900
  C     -4.188300    5.949300    0.720800
  C     -2.870800    6.205400    0.339200
  C     -1.966600    5.153000    0.173800
  C     -2.364700    3.815700    0.405300
  H      0.637700    2.103900    0.147000
  H      0.402100    3.767300    0.665700
  H      0.097100    3.315300   -1.064500
  H     -0.607200    0.794400   -1.624300
  H     -1.215500   -0.858900   -1.447300
  H      0.699900   -1.468800   -2.902400
  H      3.067800   -2.104100   -3.039000
  H      7.108900   -2.828400   -0.350400
  H      9.028800   -1.740400    0.774500
  H      9.022500    0.721600    1.117700
  H      7.127200    2.096400    0.297400
  H      5.211400    1.013300   -0.826000
  H      3.746900   -0.443800    0.860900
  H      1.413300    0.199200    1.006600
  H     -0.961200   -3.991800    1.286400
  H     -2.258600   -5.770500    0.211300
  H     -6.391000   -5.930600   -2.228100
  H     -5.161900   -2.843700   -1.099100
  H     -3.854300   -1.074700   -0.043500
  H     -5.160100    2.043100    1.238700
  H     -5.645900    4.461200    1.185900
  H     -4.879500    6.770500    0.871500
  H     -2.543700    7.224600    0.182200
  H     -0.958400    5.406100   -0.137300

----------------------------
CARTESIAN COORDINATES (A.U.)
----------------------------
  NO LB      ZA    FRAG     MASS         X           Y           Z
   0 C     6.0000    0    12.011   -0.001134    5.639510   -0.016252
   1 C     6.0000    0    12.011   -2.749174    5.146102    0.570886
   2 C     6.0000    0    12.011   -3.696115    2.649585    0.963949
   3 N     7.0000    0    14.007   -2.139359    0.415740    0.689372
   4 C     6.0000    0    12.011   -1.080923   -0.183492   -1.818294
   5 C     6.0000    0    12.011    1.628566   -1.115694   -1.768028
   6 C     6.0000    0    12.011    2.562469   -2.362536   -3.909654
   7 C     6.0000    0    12.011    5.107174   -3.035089   -4.072360
   8 C     6.0000    0    12.011    6.777503   -2.440581   -2.122918
   9 O     8.0000    0    15.999    9.326365   -3.107277   -2.378976
  10 C     6.0000    0    12.011   11.364813   -1.874797   -1.200543
  11 C     6.0000    0    12.011   13.435764   -3.315902   -0.385882
  12 C     6.0000    0    12.011   15.479314   -2.154855    0.818062
  13 C     6.0000    0    12.011   15.481959    0.466573    1.176921
  14 C     6.0000    0    12.011   13.449559    1.929221    0.313506
  15 C     6.0000    0    12.011   11.403741    0.770819   -0.882691
  16 C     6.0000    0    12.011    5.849647   -1.242117    0.049511
  17 C     6.0000    0    12.011    3.309666   -0.562382    0.211838
  18 S    16.0000    0    32.060   -2.631444   -2.095706    2.784700
  19 O     8.0000    0    15.999   -0.131147   -3.115403    3.668336
  20 O     8.0000    0    15.999   -4.081431   -1.204133    5.062009
  21 C     6.0000    0    12.011   -4.363567   -4.531563    1.308635
  22 C     6.0000    0    12.011   -3.539835   -7.053403    1.434491
  23 C     6.0000    0    12.011   -4.946736   -8.973931    0.275333
  24 C     6.0000    0    12.011   -7.210250   -8.406069   -1.004767
  25 C     6.0000    0    12.011   -8.728078  -10.425997   -2.209657
  26 O     8.0000    0    15.999   -7.999589  -12.701605   -2.136335
  27 O     8.0000    0    15.999  -10.988946   -9.831489   -3.422861
  28 C     6.0000    0    12.011   -8.022643   -5.877426   -1.116450
  29 C     6.0000    0    12.011   -6.610451   -3.962567    0.029669
  30 N     7.0000    0    14.007   -6.162586    2.330977    1.578866
  31 C     6.0000    0    12.011   -7.815718    4.269458    1.823397
  32 C     6.0000    0    12.011   -7.014852    6.749346    1.436759
  33 C     6.0000    0    12.011   -8.716740    8.765117    1.727021
  34 C     6.0000    0    12.011   -7.914740   11.242548    1.362115
  35 C     6.0000    0    12.011   -5.425026   11.726507    0.640995
  36 C     6.0000    0    12.011   -3.716335    9.737759    0.328434
  37 C     6.0000    0    12.011   -4.468635    7.210628    0.765906
  38 H     1.0000    0     1.008    1.205078    3.975795    0.277790
  39 H     1.0000    0     1.008    0.759859    7.119165    1.257991
  40 H     1.0000    0     1.008    0.183492    6.265009   -2.011613
  41 H     1.0000    0     1.008   -1.147442    1.501198   -3.069482
  42 H     1.0000    0     1.008   -2.296962   -1.623086   -2.735001
  43 H     1.0000    0     1.008    1.322619   -2.775630   -5.484741
  44 H     1.0000    0     1.008    5.797302   -3.976173   -5.742878
  45 H     1.0000    0     1.008   13.433874   -5.344901   -0.662160
  46 H     1.0000    0     1.008   17.061959   -3.288879    1.463593
  47 H     1.0000    0     1.008   17.050054    1.363626    2.112147
  48 H     1.0000    0     1.008   13.468456    3.961622    0.562005
  49 H     1.0000    0     1.008    9.848119    1.914859   -1.560914
  50 H     1.0000    0     1.008    7.080615   -0.838660    1.626865
  51 H     1.0000    0     1.008    2.670750    0.376433    1.902198
  52 H     1.0000    0     1.008   -1.816405   -7.543409    2.430944
  53 H     1.0000    0     1.008   -4.268135  -10.904665    0.399299
  54 H     1.0000    0     1.008  -12.077240  -11.207210   -4.210499
  55 H     1.0000    0     1.008   -9.754577   -5.373814   -2.076998
  56 H     1.0000    0     1.008   -7.283571   -2.030889   -0.082203
  57 H     1.0000    0     1.008   -9.751176    3.860899    2.340804
  58 H     1.0000    0     1.008  -10.669205    8.430446    2.241026
  59 H     1.0000    0     1.008   -9.220919   12.794391    1.646896
  60 H     1.0000    0     1.008   -4.806896   13.652515    0.344308
  61 H     1.0000    0     1.008   -1.811114   10.216048   -0.259459

--------------------------------
INTERNAL COORDINATES (ANGSTROEM)
--------------------------------
 C      0   0   0     0.000000000000     0.00000000     0.00000000
 C      1   0   0     1.509769962610     0.00000000     0.00000000
 C      2   1   0     1.428170304971   121.86373509     0.00000000
 N      3   2   1     1.448143273299   122.74350835   356.39531400
 C      4   3   2     1.474853694439   118.80422941   296.25240434
 C      5   4   3     1.516520652678   114.40647561   139.03057751
 C      6   5   4     1.401405926204   118.18849236   163.00393626
 C      7   6   5     1.395496176992   120.68102464   173.51445909
 C      8   7   6     1.394435703071   120.56285885   358.92447519
 O      9   8   7     1.400746061926   118.81493459   181.16353028
 C     10   9   8     1.406355392495   125.37158549   153.58366967
 C     11  10   9     1.402997783320   118.90141222   144.27785357
 C     12  11  10     1.397429686961   120.36929113   180.74187669
 C     13  12  11     1.400138496721   119.88163439   358.92797474
 C     14  13  12     1.401618300394   120.14142110   359.49175999
 C     15  14  13     1.395879923203   120.02863146     0.69878385
 C      9   8   7     1.401738492016   119.12831834     2.41245938
 C     17   9   8     1.394047240950   120.33169863   357.40482370
 S      4   3   2     1.750281863015   118.13922134   142.92577104
 O     19   4   3     1.503466504449   109.79265371   223.41611160
 O     19   4   3     1.504530006347   110.19318510   342.49011346
 C     19   4   3     1.764027712367   110.58716977   102.55755058
 C     22  19   4     1.405465979667   120.77592855   130.74068092
 C     23  22  19     1.401215722150   120.20823017   179.35609924
 C     24  23  22     1.408508377682   120.50644139   359.36162382
 C     25  24  23     1.481287011352   120.94237077   180.75529171
 O     26  25  24     1.264995387343   120.56250406   359.13365512
 O     26  25  24     1.393739617002   120.05601727   178.68635793
 C     25  24  23     1.406704812674   118.88392821     0.49978742
 C     29  25  24     1.397525108898   120.53437087   359.82784907
 N      3   2   1     1.355676274042   119.19638756   177.54155435
 C     31   3   2     1.354357796153   123.40838318     0.65886660
 C     32  31   3     1.394130155330   120.17066000     0.04592975
 C     33  32  31     1.404465097466   120.26140035   180.97176652
 C     34  33  32     1.391446718347   120.32043327   179.46726210
 C     35  34  33     1.395353725763   119.92509229     1.65103496
 C     36  35  34     1.397311905052   120.34019099   358.79642324
 C     37  36  35     1.414371644936   120.70428442   359.22037283
 H      1   2   3     1.098518279320   113.07384376   348.25671128
 H      1   2   3     1.109025148498   110.28697497   230.29473394
 H      1   2   3     1.110869524292   109.38120555   109.67426171
 H      5   4   3     1.111030017596   110.58754044    17.42824648
 H      5   4   3     1.108942514290   108.71844209   261.69189502
 H      7   6   5     1.083039897695   120.24894610   355.05443847
 H      8   7   6     1.078346437839   119.68021923   180.64304634
 H     12  11  10     1.083608384058   119.76227968   359.63101277
 H     13  12  11     1.085456963679   119.83350433   179.20087923
 H     14  13  12     1.076491588448   120.00124717   179.69661386
 H     15  14  13     1.083555490042   120.09736814   181.09649881
 H     16  15  14     1.083040447075   119.62315919   180.58075577
 H     17   9   8     1.080105689273   120.79512532   177.06290882
 H     18  17   9     1.077614077488   118.20388325   180.74351050
 H     23  22  19     1.084908189664   120.70953575   359.56132860
 H     24  23  22     1.084954865421   118.73017379   179.94698633
 H     28  26  25     1.017529876711   120.86581787   181.92122434
 H     29  25  24     1.081371069522   120.87647645   180.23827023
 H     30  29  25     1.084101434369   118.96485427   180.14430891
 H     32  31   3     1.081986376994   118.96350590   180.69976020
 H     34  33  32     1.082982294407   120.99947521   359.61931610
 H     35  34  33     1.083899151213   120.00235969   181.94967531
 H     36  35  34     1.081855836052   119.87284313   179.54938925
 H     37  36  35     1.085039197449   117.35665400   179.16540265

---------------------------
INTERNAL COORDINATES (A.U.)
---------------------------
 C      0   0   0     0.000000000000     0.00000000     0.00000000
 C      1   0   0     2.853051754554     0.00000000     0.00000000
 C      2   1   0     2.698850748993   121.86373509     0.00000000
 N      3   2   1     2.736594189215   122.74350835   356.39531400
 C      4   3   2     2.787069570091   118.80422941   296.25240434
 C      5   4   3     2.865808709998   114.40647561   139.03057751
 C      6   5   4     2.648273402980   118.18849236   163.00393626
 C      7   6   5     2.637105595449   120.68102464   173.51445909
 C      8   7   6     2.635101590167   120.56285885   358.92447519
 O      9   8   7     2.647026440208   118.81493459   181.16353028
 C     10   9   8     2.657626538779   125.37158549   153.58366967
 C     11  10   9     2.651281576973   118.90141222   144.27785357
 C     12  11  10     2.640759399768   120.36929113   180.74187669
 C     13  12  11     2.645878308363   119.88163439   358.92797474
 C     14  13  12     2.648674732037   120.14142110   359.49175999
 C     15  14  13     2.637830770692   120.02863146     0.69878385
 C      9   8   7     2.648901861286   119.12831834     2.41245938
 C     17   9   8     2.634367503144   120.33169863   357.40482370
 S      4   3   2     3.307553378268   118.13922134   142.92577104
 O     19   4   3     2.841139944932   109.79265371   223.41611160
 O     19   4   3     2.843149672264   110.19318510   342.49011346
 C     19   4   3     3.333529269022   110.58716977   102.55755058
 C     22  19   4     2.655945792113   120.77592855   130.74068092
 C     23  22  19     2.647913969408   120.20823017   179.35609924
 C     24  23  22     2.661695091152   120.50644139   359.36162382
 C     25  24  23     2.799226777190   120.94237077   180.75529171
 O     26  25  24     2.390494842753   120.56250406   359.13365512
 O     26  25  24     2.633786178129   120.05601727   178.68635793
 C     25  24  23     2.658286847223   118.88392821     0.49978742
 C     29  25  24     2.640939721095   120.53437087   359.82784907
 N      3   2   1     2.561856884194   119.19638756   177.54155435
 C     31   3   2     2.559365322070   123.40838318     0.65886660
 C     32  31   3     2.634524188614   120.17066000     0.04592975
 C     33  32  31     2.654054398862   120.26140035   180.97176652
 C     34  33  32     2.629453227620   120.32043327   179.46726210
 C     35  34  33     2.636836401638   119.92509229     1.65103496
 C     36  35  34     2.640536824216   120.34019099   358.79642324
 C     37  36  35     2.672775060513   120.70428442   359.22037283
 H      1   2   3     2.075898701021   113.07384376   348.25671128
 H      1   2   3     2.095753806292   110.28697497   230.29473394
 H      1   2   3     2.099239171431   109.38120555   109.67426171
 H      5   4   3     2.099542459823   110.58754044    17.42824648
 H      5   4   3     2.095597650270   108.71844209   261.69189502
 H      7   6   5     2.046648798754   120.24894610   355.05443847
 H      8   7   6     2.037779445005   119.68021923   180.64304634
 H     12  11  10     2.047723082290   119.76227968   359.63101277
 H     13  12  11     2.051216391512   119.83350433   179.20087923
 H     14  13  12     2.034274287637   120.00124717   179.69661386
 H     15  14  13     2.047623127086   120.09736814   181.09649881
 H     16  15  14     2.046649836931   119.62315919   180.58075577
 H     17   9   8     2.041103948416   120.79512532   177.06290882
 H     18  17   9     2.036395484510   118.20388325   180.74351050
 H     23  22  19     2.050179358913   120.70953575   359.56132860
 H     24  23  22     2.050267563310   118.73017379   179.94698633
 H     28  26  25     1.922852800067   120.86581787   181.92122434
 H     29  25  24     2.043495170543   120.87647645   180.23827023
 H     30  29  25     2.048654812348   118.96485427   180.14430891
 H     32  31   3     2.044657933152   118.96350590   180.69976020
 H     34  33  32     2.046539944316   120.99947521   359.61931610
 H     35  34  33     2.048272552582   120.00235969   181.94967531
 H     36  35  34     2.044411246523   119.87284313   179.54938925
 H     37  36  35     2.050426927748   117.35665400   179.16540265

---------------------
BASIS SET INFORMATION
---------------------
There are 5 groups of distinct atoms

 Group   1 Type C   : 10s4p1d contracted to 3s2p1d pattern {631/31/1}
 Group   2 Type N   : 10s4p1d contracted to 3s2p1d pattern {631/31/1}
 Group   3 Type O   : 10s4p1d contracted to 3s2p1d pattern {631/31/1}
 Group   4 Type S   : 16s10p1d contracted to 4s3p1d pattern {6631/631/1}
 Group   5 Type H   : 4s contracted to 2s pattern {31}

Atom   0C    basis set group =>   1
Atom   1C    basis set group =>   1
Atom   2C    basis set group =>   1
Atom   3N    basis set group =>   2
Atom   4C    basis set group =>   1
Atom   5C    basis set group =>   1
Atom   6C    basis set group =>   1
Atom   7C    basis set group =>   1
Atom   8C    basis set group =>   1
Atom   9O    basis set group =>   3
Atom  10C    basis set group =>   1
Atom  11C    basis set group =>   1
Atom  12C    basis set group =>   1
Atom  13C    basis set group =>   1
Atom  14C    basis set group =>   1
Atom  15C    basis set group =>   1
Atom  16C    basis set group =>   1
Atom  17C    basis set group =>   1
Atom  18S    basis set group =>   4
Atom  19O    basis set group =>   3
Atom  20O    basis set group =>   3
Atom  21C    basis set group =>   1
Atom  22C    basis set group =>   1
Atom  23C    basis set group =>   1
Atom  24C    basis set group =>   1
Atom  25C    basis set group =>   1
Atom  26O    basis set group =>   3
Atom  27O    basis set group =>   3
Atom  28C    basis set group =>   1
Atom  29C    basis set group =>   1
Atom  30N    basis set group =>   2
Atom  31C    basis set group =>   1
Atom  32C    basis set group =>   1
Atom  33C    basis set group =>   1
Atom  34C    basis set group =>   1
Atom  35C    basis set group =>   1
Atom  36C    basis set group =>   1
Atom  37C    basis set group =>   1
Atom  38H    basis set group =>   5
Atom  39H    basis set group =>   5
Atom  40H    basis set group =>   5
Atom  41H    basis set group =>   5
Atom  42H    basis set group =>   5
Atom  43H    basis set group =>   5
Atom  44H    basis set group =>   5
Atom  45H    basis set group =>   5
Atom  46H    basis set group =>   5
Atom  47H    basis set group =>   5
Atom  48H    basis set group =>   5
Atom  49H    basis set group =>   5
Atom  50H    basis set group =>   5
Atom  51H    basis set group =>   5
Atom  52H    basis set group =>   5
Atom  53H    basis set group =>   5
Atom  54H    basis set group =>   5
Atom  55H    basis set group =>   5
Atom  56H    basis set group =>   5
Atom  57H    basis set group =>   5
Atom  58H    basis set group =>   5
Atom  59H    basis set group =>   5
Atom  60H    basis set group =>   5
Atom  61H    basis set group =>   5
---------------------------------
AUXILIARY/J BASIS SET INFORMATION
---------------------------------
There are 5 groups of distinct atoms

 Group   1 Type C   : 12s5p4d2f1g contracted to 6s4p3d1f1g pattern {711111/2111/211/2/1}
 Group   2 Type N   : 12s5p4d2f1g contracted to 6s4p3d1f1g pattern {711111/2111/211/2/1}
 Group   3 Type O   : 12s5p4d2f1g contracted to 6s4p3d1f1g pattern {711111/2111/211/2/1}
 Group   4 Type S   : 14s5p5d2f1g contracted to 8s4p3d1f1g pattern {71111111/2111/311/2/1}
 Group   5 Type H   : 5s2p1d contracted to 3s1p1d pattern {311/2/1}

Atom   0C    basis set group =>   1
Atom   1C    basis set group =>   1
Atom   2C    basis set group =>   1
Atom   3N    basis set group =>   2
Atom   4C    basis set group =>   1
Atom   5C    basis set group =>   1
Atom   6C    basis set group =>   1
Atom   7C    basis set group =>   1
Atom   8C    basis set group =>   1
Atom   9O    basis set group =>   3
Atom  10C    basis set group =>   1
Atom  11C    basis set group =>   1
Atom  12C    basis set group =>   1
Atom  13C    basis set group =>   1
Atom  14C    basis set group =>   1
Atom  15C    basis set group =>   1
Atom  16C    basis set group =>   1
Atom  17C    basis set group =>   1
Atom  18S    basis set group =>   4
Atom  19O    basis set group =>   3
Atom  20O    basis set group =>   3
Atom  21C    basis set group =>   1
Atom  22C    basis set group =>   1
Atom  23C    basis set group =>   1
Atom  24C    basis set group =>   1
Atom  25C    basis set group =>   1
Atom  26O    basis set group =>   3
Atom  27O    basis set group =>   3
Atom  28C    basis set group =>   1
Atom  29C    basis set group =>   1
Atom  30N    basis set group =>   2
Atom  31C    basis set group =>   1
Atom  32C    basis set group =>   1
Atom  33C    basis set group =>   1
Atom  34C    basis set group =>   1
Atom  35C    basis set group =>   1
Atom  36C    basis set group =>   1
Atom  37C    basis set group =>   1
Atom  38H    basis set group =>   5
Atom  39H    basis set group =>   5
Atom  40H    basis set group =>   5
Atom  41H    basis set group =>   5
Atom  42H    basis set group =>   5
Atom  43H    basis set group =>   5
Atom  44H    basis set group =>   5
Atom  45H    basis set group =>   5
Atom  46H    basis set group =>   5
Atom  47H    basis set group =>   5
Atom  48H    basis set group =>   5
Atom  49H    basis set group =>   5
Atom  50H    basis set group =>   5
Atom  51H    basis set group =>   5
Atom  52H    basis set group =>   5
Atom  53H    basis set group =>   5
Atom  54H    basis set group =>   5
Atom  55H    basis set group =>   5
Atom  56H    basis set group =>   5
Atom  57H    basis set group =>   5
Atom  58H    basis set group =>   5
Atom  59H    basis set group =>   5
Atom  60H    basis set group =>   5
Atom  61H    basis set group =>   5
------------------------------------------------------------------------------
                             ORCA STARTUP CALCULATIONS
                           -- RI-GTO INTEGRALS CHOSEN --
------------------------------------------------------------------------------
------------------------------------------------------------------------------
                   ___                                                        
                  /   \      - P O W E R E D   B Y -                         
                 /     \                                                     
                 |  |  |   _    _      __       _____    __    __             
                 |  |  |  | |  | |    /  \     |  _  \  |  |  /  |          
                  \  \/   | |  | |   /    \    | | | |  |  | /  /          
                 / \  \   | |__| |  /  /\  \   | |_| |  |  |/  /          
                |  |  |   |  __  | /  /__\  \  |    /   |      \           
                |  |  |   | |  | | |   __   |  |    \   |  |\   \          
                \     /   | |  | | |  |  |  |  | |\  \  |  | \   \       
                 \___/    |_|  |_| |__|  |__|  |_| \__\ |__|  \__/        
                                                                              
                      - O R C A' S   B I G   F R I E N D -                    
                                      &                                       
                       - I N T E G R A L  F E E D E R -                       
                                                                              
 v1 FN, 2020, v2 2021, v3 2022-2024                                           
------------------------------------------------------------------------------


----------------------
SHARK INTEGRAL PACKAGE
----------------------

Number of atoms                             ...     62
Number of basis functions                   ...    584
Number of shells                            ...    278
Maximum angular momentum                    ...      2
Integral batch strategy                     ... SHARK/LIBINT Hybrid
RI-J (if used) integral strategy            ... SPLIT-RIJ (Revised 2003 algorithm where possible)
Printlevel                                  ...      1
Contraction scheme used                     ... SEGMENTED contraction
Prescreening option                         ... SCHWARTZ
   Thresh                                   ... 1.000e-10
   Tcut                                     ... 1.000e-11
   Tpresel                                  ... 1.000e-11 
Coulomb Range Separation                    ... NOT USED
Exchange Range Separation                   ... NOT USED
Multipole approximations                    ... NOT USED
Finite Nucleus Model                        ... NOT USED
CABS basis                                  ... NOT available
Auxiliary Coulomb fitting basis             ... AVAILABLE
   # of basis functions in Aux-J            ...   2128
   # of shells in Aux-J                     ...    692
   Maximum angular momentum in Aux-J        ...      4
Auxiliary J/K fitting basis                 ... NOT available
Auxiliary Correlation fitting basis         ... NOT available
Auxiliary 'external' fitting basis          ... NOT available

Checking pre-screening integrals            ... done (  0.0 sec) Dimension = 278
Check shell pair data                       ... done (  0.0 sec)
Shell pair information
Shell pair cut-off parameter TPreSel        ...   1.0e-11
Total number of shell pairs                 ...     38781
Shell pairs after pre-screening             ...     18527
Total number of primitive shell pairs       ...    231081
Primitive shell pairs kept                  ...     56971
          la=0 lb=0:   5965 shell pairs
          la=1 lb=0:   6602 shell pairs
          la=1 lb=1:   1809 shell pairs
          la=2 lb=0:   2465 shell pairs
          la=2 lb=1:   1422 shell pairs
          la=2 lb=2:    264 shell pairs

Calculating one electron integrals          ... done (  0.2 sec)
Calculating RI/J V-Matrix + Cholesky decomp.... done (  0.6 sec)
Calculating Nuclear repulsion               ... done (  0.0 sec) ENN=   4093.834600306799 Eh

Diagonalization of the overlap matrix:
Smallest eigenvalue                        ... 3.528e-04
Time for diagonalization                   ...    0.054 sec
Threshold for overlap eigenvalues          ... 1.000e-07
Number of eigenvalues below threshold      ... 0
Time for construction of square roots      ...    0.050 sec
Total time needed                          ...    0.114 sec

-------------------
DFT GRID GENERATION
-------------------

General Integration Accuracy     IntAcc      ... 4.388
Radial Grid Type                 RadialGrid  ... OptM3 with GC (2021)
Angular Grid (max. ang.)         AngularGrid ... 4 (Lebedev-302)
Angular grid pruning method      GridPruning ... 4 (adaptive)
Weight generation scheme         WeightScheme... mBecke (2022)
Basis function cutoff            BFCut       ... 1.0000e-10
Integration weight cutoff        WCut        ... 1.0000e-14
Partially contracted basis set               ... off
Rotationally invariant grid construction     ... off
Angular grids for H and He will be reduced by one unit

Total number of grid points                  ...   304405
Total number of batches                      ...     4790
Average number of points per batch           ...       63
Average number of grid points per atom       ...     4910

--------------------
COSX GRID GENERATION
--------------------

GRIDX 1
-------
General Integration Accuracy     IntAcc      ... 3.816
Radial Grid Type                 RadialGrid  ... OptM3 with GC (2021)
Angular Grid (max. ang.)         AngularGrid ... 1 (Lebedev-50)
Angular grid pruning method      GridPruning ... 4 (adaptive)
Weight generation scheme         WeightScheme... mBecke (2022)
Basis function cutoff            BFCut       ... 1.0000e-10
Integration weight cutoff        WCut        ... 1.0000e-14
Partially contracted basis set               ... on
Rotationally invariant grid construction     ... off
Angular grids for H and He will be reduced by one unit

Total number of grid points                  ...    39616
Total number of batches                      ...      339
Average number of points per batch           ...      116
Average number of grid points per atom       ...      639
UseSFitting                                  ... on

GRIDX 2
-------
General Integration Accuracy     IntAcc      ... 4.020
Radial Grid Type                 RadialGrid  ... OptM3 with GC (2021)
Angular Grid (max. ang.)         AngularGrid ... 2 (Lebedev-110)
Angular grid pruning method      GridPruning ... 4 (adaptive)
Weight generation scheme         WeightScheme... mBecke (2022)
Basis function cutoff            BFCut       ... 1.0000e-10
Integration weight cutoff        WCut        ... 1.0000e-14
Partially contracted basis set               ... on
Rotationally invariant grid construction     ... off
Angular grids for H and He will be reduced by one unit

Total number of grid points                  ...    84223
Total number of batches                      ...      691
Average number of points per batch           ...      121
Average number of grid points per atom       ...     1358
UseSFitting                                  ... on

GRIDX 3
-------
General Integration Accuracy     IntAcc      ... 4.338
Radial Grid Type                 RadialGrid  ... OptM3 with GC (2021)
Angular Grid (max. ang.)         AngularGrid ... 3 (Lebedev-194)
Angular grid pruning method      GridPruning ... 4 (adaptive)
Weight generation scheme         WeightScheme... mBecke (2022)
Basis function cutoff            BFCut       ... 1.0000e-10
Integration weight cutoff        WCut        ... 1.0000e-14
Partially contracted basis set               ... on
Rotationally invariant grid construction     ... off
Angular grids for H and He will be reduced by one unit

Total number of grid points                  ...   184587
Total number of batches                      ...     1473
Average number of points per batch           ...      125
Average number of grid points per atom       ...     2977
UseSFitting                                  ... on
Initializing property integral containers    ... done (  0.0 sec)

SHARK setup successfully completed in  12.3 seconds

Maximum memory used throughout the entire STARTUP-calculation: 131.6 MB
-------------------------------------------------------------------------------
                                 ORCA GUESS
                   Start orbitals & Density for SCF / CASSCF
-------------------------------------------------------------------------------

------------
SCF SETTINGS
------------
Hamiltonian:
 Density Functional     Method          .... DFT(GTOs)
 Exchange Functional    Exchange        .... B88
   X-Alpha parameter    XAlpha          ....  0.666667
   Becke's b parameter  XBeta           ....  0.004200
 Correlation Functional Correlation     .... LYP
 LDA part of GGA corr.  LDAOpt          .... VWN-5
 Gradients option       PostSCFGGA      .... off
 Hybrid DFT is turned on
   Fraction HF Exchange ScalHFX         ....  0.200000
   Scaling of DF-GGA-X  ScalDFX         ....  0.720000
   Scaling of DF-GGA-C  ScalDFC         ....  0.810000
   Scaling of DF-LDA-C  ScalLDAC        ....  1.000000
   Perturbative correction              ....  0.000000
   NL short-range parameter             ....  4.800000
 RI-approximation to the Coulomb term is turned on
   Number of AuxJ basis functions       .... 2128
   RIJ-COSX (HFX calculated with COS-X)).... on


General Settings:
 Integral files         IntName         .... /home/nmrbox/aojoawo/Documents/ERDOS/inputs/CHEMBL3682552
 Hartree-Fock type      HFTyp           .... RHF
 Total Charge           Charge          ....    0
 Multiplicity           Mult            ....    1
 Number of Electrons    NEL             ....  274
 Basis Dimension        Dim             ....  584
 Nuclear Repulsion      ENuc            ....   4093.8346003068 Eh

Convergence Acceleration:
 AO-DIIS                CNVDIIS         .... on
   Start iteration      DIISMaxIt       ....    12
   Startup error        DIISStart       ....  0.200000
   # of expansion vecs  DIISMaxEq       ....     5
   Bias factor          DIISBfac        ....   1.050
   Max. coefficient     DIISMaxC        ....  10.000
 MO-DIIS                CNVKDIIS        .... off
 Trust-Rad. Augm. Hess. CNVTRAH         .... auto
   Auto Start mean grad. ratio tolernc. ....  1.125000
   Auto Start start iteration           ....    50
   Auto Start num. interpolation iter.  ....    10
   Max. Number of Micro iterations      ....    24
   Max. Number of Macro iterations      .... Maxiter - #DIIS iter
   Number of Davidson start vectors     ....     2
   Converg. threshold    (grad. norm)   ....   5.000e-05
   Grad. Scal. Fac. for Micro threshold ....   0.100
   Minimum threshold for Micro iter.    ....   1.000e-02
   NR start threshold (gradient norm)   ....   1.000e-04
   Initial trust radius                 ....   0.400
   Minimum AH scaling param. (alpha)    ....   1.000
   Maximum AH scaling param. (alpha)    .... 1000.000
   Quad. conv. algorithm                .... NR
   White noise on init. David. guess    .... on
   Maximum white noise                  ....   0.010
   Pseudo random numbers                .... off
   Inactive MOs                         .... canonical
   Orbital update algorithm             .... Taylor
   Preconditioner                       .... Diag
   Full preconditioner red. dimension   ....   250
 SOSCF                  CNVSOSCF        .... on
   Start iteration      SOSCFMaxIt      ....   150
   Startup grad/error   SOSCFStart      ....  0.003300
   Hessian update       SOSCFHessUp     .... L-BFGS
 Level Shifting         CNVShift        .... on
   Level shift para.    LevelShift      ....    0.2500
   Turn off err/grad.   ShiftErr        ....    0.0010
 Zerner damping         CNVZerner       .... off
 Static damping         CNVDamp         .... on
   Fraction old density DampFac         ....    0.7000
   Max. Damping (<1)    DampMax         ....    0.9800
   Min. Damping (>=0)   DampMin         ....    0.0000
   Turn off err/grad.   DampErr         ....    0.1000

SCF Procedure:
 Maximum # iterations   MaxIter         ....   125
 SCF integral mode      SCFMode         .... Direct
   Integral package                     .... SHARK and LIBINT hybrid scheme
 Reset frequency        DirectResetFreq ....    20
 Integral Threshold     Thresh          ....  1.000e-10 Eh
 Primitive CutOff       TCut            ....  1.000e-11 Eh

Convergence Tolerance:
 Convergence Check Mode ConvCheckMode   .... Total+1el-Energy
 Convergence forced     ConvForced      .... 0
 Energy Change          TolE            ....  1.000e-06 Eh
 1-El. energy change                    ....  1.000e-03 Eh
 Orbital Gradient       TolG            ....  5.000e-05
 Orbital Rotation angle TolX            ....  5.000e-05
 DIIS Error             TolErr          ....  1.000e-06

------------------------------
INITIAL GUESS: MODEL POTENTIAL
------------------------------
Loading Hartree-Fock densities                     ... done
Calculating cut-offs                               ... done
Initializing the effective Hamiltonian             ... done
Setting up the integral package (SHARK)            ... done
Starting the Coulomb interaction                   ... done (   2.8 sec)
Making the grid                                    ... done (   1.5 sec)
Mapping shells                                     ... done
Starting the XC term evaluation                    ... done (   1.1 sec)
  promolecular density results
     # of electrons  =    273.985919546
     EX              =   -240.529874728
     EC              =     -9.511504643
     EX+EC           =   -250.041379371
Transforming the Hamiltonian                       ... done (   0.0 sec)
Diagonalizing the Hamiltonian                      ... done (   0.0 sec)
Back transforming the eigenvectors                 ... done (   0.0 sec)
Now organizing SCF variables                       ... done
                      ------------------
                      INITIAL GUESS DONE (   5.6 sec)
                      ------------------
             **** ENERGY FILE WAS UPDATED (/home/nmrbox/aojoawo/Documents/ERDOS/inputs/CHEMBL3682552.en.tmp) ****
Finished Guess after   5.9 sec
Maximum memory used throughout the entire GUESS-calculation: 71.5 MB

-------------------------------------------------------------------------------------------
                                      ORCA LEAN-SCF
                              memory conserving SCF solver
-------------------------------------------------------------------------------------------

----------------------------------------D-I-I-S--------------------------------------------
Iteration    Energy (Eh)           Delta-E    RMSDP     MaxDP     DIISErr   Damp  Time(sec)
-------------------------------------------------------------------------------------------
               ***  Starting incremental Fock matrix formation  ***
    1    -2039.2641182588927222     0.00e+00  2.27e-03  1.91e-01  3.00e-01  0.700  55.9
    2    -2039.7560893854474671    -4.92e-01  1.39e-03  7.83e-02  9.66e-02  0.700  25.1
                               ***Turning on AO-DIIS***
    3    -2039.9297520757604616    -1.74e-01  5.71e-04  1.81e-02  3.66e-02  0.700  24.0
    4    -2040.0439778191334881    -1.14e-01  9.66e-04  3.43e-02  1.58e-02  0.000  22.0
    5    -2040.2975942244661383    -2.54e-01  2.23e-04  8.14e-03  7.62e-03  0.000  23.1
                              *** Initializing SOSCF ***
---------------------------------------S-O-S-C-F--------------------------------------
Iteration    Energy (Eh)           Delta-E    RMSDP     MaxDP     MaxGrad    Time(sec)
--------------------------------------------------------------------------------------
    6    -2040.2994970530785395    -1.90e-03  7.11e-05  2.65e-03  2.56e-03    19.8
               *** Restarting incremental Fock matrix formation ***
    7    -2040.2995797121634496    -8.27e-05  6.06e-05  2.60e-03  4.45e-04    55.8
    8    -2040.2995267624387452     5.29e-05  3.68e-05  1.77e-03  1.12e-03    31.4
    9    -2040.2996060479804328    -7.93e-05  1.30e-05  9.89e-04  1.28e-04    27.7
   10    -2040.2996030575873192     2.99e-06  8.19e-06  6.05e-04  2.63e-04    22.9
   11    -2040.2996073491335665    -4.29e-06  2.50e-06  1.18e-04  2.48e-05    21.1
   12    -2040.2996073028339197     4.63e-08  1.56e-06  9.21e-05  4.66e-05    16.9
                 **** Energy Check signals convergence ****

               *****************************************************
               *                     SUCCESS                       *
               *           SCF CONVERGED AFTER  12 CYCLES          *
               *****************************************************

Recomputing exchange energy using gridx3       ... done (   96.039 sec)
Old exchange energy                            :    -48.685852600 Eh
New exchange energy                            :    -48.685915179 Eh
Exchange energy change after final integration :     -0.000062578 Eh
Total energy after final integration           :  -2040.299669881 Eh
             **** ENERGY FILE WAS UPDATED (/home/nmrbox/aojoawo/Documents/ERDOS/inputs/CHEMBL3682552.en.tmp) ****

----------------
TOTAL SCF ENERGY
----------------

Total Energy       :      -2040.29966988123533 Eh          -55519.37657 eV

Components:
Nuclear Repulsion  :       4093.83460030679862 Eh          111398.90289 eV
Electronic Energy  :      -6134.13420760963254 Eh         -166918.27775 eV
One Electron Energy:     -10930.03016504405423 Eh         -297421.24139 eV
Two Electron Energy:       4795.89595743442169 Eh          130502.96364 eV

Virial components:
Potential Energy   :      -4068.89970368487684 Eh         -110720.38985 eV
Kinetic Energy     :       2028.60003380364128 Eh           55201.01329 eV
Virial Ratio       :          2.00576734490912

DFT components:
N(Alpha)           :      137.000064084086 electrons
N(Beta)            :      137.000064084086 electrons
N(Total)           :      274.000128168172 electrons
E(X)               :     -193.475678564164 Eh       
E(C)               :      -11.184760920852 Eh       
E(XC)              :     -204.660439485015 Eh       

---------------
SCF CONVERGENCE
---------------

  Last Energy change         ...   -4.6300e-08  Tolerance :   1.0000e-06
  Last MAX-Density change    ...    9.2144e-05  Tolerance :   1.0000e-05
  Last RMS-Density change    ...    1.5627e-06  Tolerance :   1.0000e-06
  Last DIIS Error            ...    2.5638e-03  Tolerance :   1.0000e-06
  Last Orbital Gradient      ...    4.6552e-05  Tolerance :   5.0000e-05
  Last Orbital Rotation      ...    6.9996e-05  Tolerance :   5.0000e-05


----------------
ORBITAL ENERGIES
----------------

  NO   OCC          E(Eh)            E(eV) 
   0   2.0000     -89.093752     -2424.3643 
   1   2.0000     -19.194248      -522.3020 
   2   2.0000     -19.176115      -521.8086 
   3   2.0000     -19.134586      -520.6786 
   4   2.0000     -19.121632      -520.3261 
   5   2.0000     -19.116510      -520.1867 
   6   2.0000     -14.381513      -391.3409 
   7   2.0000     -14.333381      -390.0311 
   8   2.0000     -10.332501      -281.1617 
   9   2.0000     -10.268447      -279.4186 
  10   2.0000     -10.247719      -278.8546 
  11   2.0000     -10.245427      -278.7922 
  12   2.0000     -10.239267      -278.6246 
  13   2.0000     -10.237842      -278.5859 
  14   2.0000     -10.227631      -278.3080 
  15   2.0000     -10.226414      -278.2749 
  16   2.0000     -10.215117      -277.9675 
  17   2.0000     -10.212718      -277.9022 
  18   2.0000     -10.212277      -277.8902 
  19   2.0000     -10.212021      -277.8832 
  20   2.0000     -10.211836      -277.8782 
  21   2.0000     -10.208259      -277.7808 
  22   2.0000     -10.199460      -277.5414 
  23   2.0000     -10.198491      -277.5150 
  24   2.0000     -10.197789      -277.4959 
  25   2.0000     -10.196460      -277.4598 
  26   2.0000     -10.194952      -277.4188 
  27   2.0000     -10.189792      -277.2783 
  28   2.0000     -10.185931      -277.1733 
  29   2.0000     -10.185496      -277.1614 
  30   2.0000     -10.184222      -277.1268 
  31   2.0000     -10.184191      -277.1259 
  32   2.0000     -10.182061      -277.0680 
  33   2.0000     -10.181464      -277.0517 
  34   2.0000     -10.180417      -277.0232 
  35   2.0000     -10.179068      -276.9865 
  36   2.0000     -10.177426      -276.9418 
  37   2.0000     -10.177214      -276.9361 
  38   2.0000      -8.129520      -221.2155 
  39   2.0000      -6.094811      -165.8482 
  40   2.0000      -6.092257      -165.7788 
  41   2.0000      -6.092168      -165.7763 
  42   2.0000      -1.077971       -29.3331 
  43   2.0000      -1.076459       -29.2919 
  44   2.0000      -1.054868       -28.7044 
  45   2.0000      -0.990153       -26.9434 
  46   2.0000      -0.965160       -26.2633 
  47   2.0000      -0.954450       -25.9719 
  48   2.0000      -0.916347       -24.9351 
  49   2.0000      -0.883609       -24.0442 
  50   2.0000      -0.866052       -23.5665 
  51   2.0000      -0.855301       -23.2739 
  52   2.0000      -0.842400       -22.9229 
  53   2.0000      -0.809633       -22.0312 
  54   2.0000      -0.800037       -21.7701 
  55   2.0000      -0.781650       -21.2698 
  56   2.0000      -0.770321       -20.9615 
  57   2.0000      -0.768604       -20.9148 
  58   2.0000      -0.746706       -20.3189 
  59   2.0000      -0.744708       -20.2645 
  60   2.0000      -0.742821       -20.2132 
  61   2.0000      -0.734744       -19.9934 
  62   2.0000      -0.710889       -19.3443 
  63   2.0000      -0.701449       -19.0874 
  64   2.0000      -0.680498       -18.5173 
  65   2.0000      -0.653586       -17.7850 
  66   2.0000      -0.645685       -17.5700 
  67   2.0000      -0.630538       -17.1578 
  68   2.0000      -0.622294       -16.9335 
  69   2.0000      -0.618995       -16.8437 
  70   2.0000      -0.611483       -16.6393 
  71   2.0000      -0.602010       -16.3815 
  72   2.0000      -0.597789       -16.2667 
  73   2.0000      -0.589228       -16.0337 
  74   2.0000      -0.574113       -15.6224 
  75   2.0000      -0.557478       -15.1697 
  76   2.0000      -0.541207       -14.7270 
  77   2.0000      -0.538015       -14.6401 
  78   2.0000      -0.532045       -14.4777 
  79   2.0000      -0.515898       -14.0383 
  80   2.0000      -0.505359       -13.7515 
  81   2.0000      -0.497853       -13.5473 
  82   2.0000      -0.488173       -13.2839 
  83   2.0000      -0.484168       -13.1749 
  84   2.0000      -0.481202       -13.0942 
  85   2.0000      -0.471042       -12.8177 
  86   2.0000      -0.464982       -12.6528 
  87   2.0000      -0.461270       -12.5518 
  88   2.0000      -0.456466       -12.4211 
  89   2.0000      -0.453560       -12.3420 
  90   2.0000      -0.448319       -12.1994 
  91   2.0000      -0.447706       -12.1827 
  92   2.0000      -0.443739       -12.0747 
  93   2.0000      -0.441902       -12.0248 
  94   2.0000      -0.439215       -11.9516 
  95   2.0000      -0.438735       -11.9386 
  96   2.0000      -0.436986       -11.8910 
  97   2.0000      -0.431886       -11.7522 
  98   2.0000      -0.428251       -11.6533 
  99   2.0000      -0.422091       -11.4857 
 100   2.0000      -0.420921       -11.4538 
 101   2.0000      -0.417341       -11.3564 
 102   2.0000      -0.410473       -11.1695 
 103   2.0000      -0.407099       -11.0777 
 104   2.0000      -0.400796       -10.9062 
 105   2.0000      -0.391138       -10.6434 
 106   2.0000      -0.389082       -10.5875 
 107   2.0000      -0.385116       -10.4795 
 108   2.0000      -0.384288       -10.4570 
 109   2.0000      -0.380349       -10.3498 
 110   2.0000      -0.372216       -10.1285 
 111   2.0000      -0.369374       -10.0512 
 112   2.0000      -0.362787        -9.8719 
 113   2.0000      -0.360625        -9.8131 
 114   2.0000      -0.356507        -9.7010 
 115   2.0000      -0.353013        -9.6060 
 116   2.0000      -0.351998        -9.5784 
 117   2.0000      -0.347932        -9.4677 
 118   2.0000      -0.328046        -8.9266 
 119   2.0000      -0.325919        -8.8687 
 120   2.0000      -0.318114        -8.6563 
 121   2.0000      -0.314886        -8.5685 
 122   2.0000      -0.301852        -8.2138 
 123   2.0000      -0.297561        -8.0971 
 124   2.0000      -0.292931        -7.9711 
 125   2.0000      -0.282315        -7.6822 
 126   2.0000      -0.278741        -7.5849 
 127   2.0000      -0.273803        -7.4506 
 128   2.0000      -0.270904        -7.3717 
 129   2.0000      -0.264270        -7.1912 
 130   2.0000      -0.256124        -6.9695 
 131   2.0000      -0.251070        -6.8320 
 132   2.0000      -0.247668        -6.7394 
 133   2.0000      -0.244121        -6.6429 
 134   2.0000      -0.238688        -6.4950 
 135   2.0000      -0.218297        -5.9402 
 136   2.0000      -0.208751        -5.6804 
 137   0.0000      -0.078855        -2.1457 
 138   0.0000      -0.061970        -1.6863 
 139   0.0000      -0.025638        -0.6976 
 140   0.0000      -0.024894        -0.6774 
 141   0.0000      -0.007923        -0.2156 
 142   0.0000      -0.002542        -0.0692 
 143   0.0000       0.004023         0.1095 
 144   0.0000       0.010135         0.2758 
 145   0.0000       0.016744         0.4556 
 146   0.0000       0.020293         0.5522 
 147   0.0000       0.032939         0.8963 
*Only the first 10 virtual orbitals were printed.

                    ********************************
                    * MULLIKEN POPULATION ANALYSIS *
                    ********************************

-----------------------
MULLIKEN ATOMIC CHARGES
-----------------------
   0 C :   -0.555261
   1 C :    0.080344
   2 C :    0.353182
   3 N :   -0.631952
   4 C :   -0.233932
   5 C :    0.127392
   6 C :   -0.177943
   7 C :   -0.174983
   8 C :    0.352073
   9 O :   -0.562456
  10 C :    0.344376
  11 C :   -0.172859
  12 C :   -0.126088
  13 C :   -0.131889
  14 C :   -0.126936
  15 C :   -0.180552
  16 C :   -0.198925
  17 C :   -0.126586
  18 S :    1.229307
  19 O :   -0.536241
  20 O :   -0.520434
  21 C :   -0.144301
  22 C :   -0.145179
  23 C :   -0.141880
  24 C :    0.082953
  25 C :    0.528404
  26 O :   -0.447338
  27 O :   -0.623862
  28 C :   -0.148562
  29 C :   -0.147772
  30 N :   -0.394578
  31 C :   -0.043769
  32 C :    0.126938
  33 C :   -0.198987
  34 C :   -0.128722
  35 C :   -0.119319
  36 C :   -0.203109
  37 C :    0.128257
  38 H :    0.184466
  39 H :    0.167908
  40 H :    0.159637
  41 H :    0.187796
  42 H :    0.161887
  43 H :    0.123726
  44 H :    0.138646
  45 H :    0.141420
  46 H :    0.134922
  47 H :    0.126648
  48 H :    0.132347
  49 H :    0.144123
  50 H :    0.153726
  51 H :    0.162956
  52 H :    0.194199
  53 H :    0.180712
  54 H :    0.432965
  55 H :    0.168826
  56 H :    0.190139
  57 H :    0.154457
  58 H :    0.138924
  59 H :    0.135582
  60 H :    0.137261
  61 H :    0.137917
Sum of atomic charges:   -0.0000000

--------------------------------
MULLIKEN REDUCED ORBITAL CHARGES
--------------------------------
  0 C s       :     3.321420  s :     3.321420
      pz      :     1.062883  p :     3.199376
      px      :     1.017986
      py      :     1.118508
      dz2     :     0.008782  d :     0.034464
      dxz     :     0.004668
      dyz     :     0.006341
      dx2y2   :     0.006002
      dxy     :     0.008671

  1 C s       :     3.174668  s :     3.174668
      pz      :     0.991375  p :     2.705917
      px      :     0.841510
      py      :     0.873032
      dz2     :     0.003427  d :     0.039072
      dxz     :     0.005468
      dyz     :     0.005895
      dx2y2   :     0.011460
      dxy     :     0.012823

  2 C s       :     3.027739  s :     3.027739
      pz      :     0.992228  p :     2.547205
      px      :     0.747404
      py      :     0.807573
      dz2     :     0.005289  d :     0.071874
      dxz     :     0.009046
      dyz     :     0.008545
      dx2y2   :     0.023159
      dxy     :     0.025835

  3 N s       :     3.650731  s :     3.650731
      pz      :     1.225186  p :     3.948445
      px      :     1.560620
      py      :     1.162639
      dz2     :     0.007091  d :     0.032776
      dxz     :     0.004610
      dyz     :     0.010270
      dx2y2   :     0.004223
      dxy     :     0.006582

  4 C s       :     3.242054  s :     3.242054
      pz      :     0.838401  p :     2.937456
      px      :     0.998791
      py      :     1.100265
      dz2     :     0.010977  d :     0.054421
      dxz     :     0.012537
      dyz     :     0.012496
      dx2y2   :     0.008881
      dxy     :     0.009530

  5 C s       :     3.130756  s :     3.130756
      pz      :     0.894321  p :     2.702680
      px      :     0.836556
      py      :     0.971803
      dz2     :     0.009513  d :     0.039171
      dxz     :     0.009631
      dyz     :     0.006084
      dx2y2   :     0.006950
      dxy     :     0.006993

  6 C s       :     3.204743  s :     3.204743
      pz      :     0.964006  p :     2.936623
      px      :     0.970377
      py      :     1.002240
      dz2     :     0.007252  d :     0.036576
      dxz     :     0.012661
      dyz     :     0.004254
      dx2y2   :     0.006353
      dxy     :     0.006057

  7 C s       :     3.193081  s :     3.193081
      pz      :     0.969135  p :     2.947140
      px      :     0.958681
      py      :     1.019324
      dz2     :     0.006575  d :     0.034762
      dxz     :     0.010837
      dyz     :     0.005308
      dx2y2   :     0.005166
      dxy     :     0.006877

  8 C s       :     3.073500  s :     3.073500
      pz      :     0.897324  p :     2.507489
      px      :     0.656359
      py      :     0.953806
      dz2     :     0.013330  d :     0.066939
      dxz     :     0.019225
      dyz     :     0.006611
      dx2y2   :     0.014043
      dxy     :     0.013730

  9 O s       :     3.885485  s :     3.885485
      pz      :     1.724283  p :     4.649463
      px      :     1.224630
      py      :     1.700551
      dz2     :     0.004016  d :     0.027507
      dxz     :     0.006450
      dyz     :     0.003641
      dx2y2   :     0.005137
      dxy     :     0.008263

 10 C s       :     3.080315  s :     3.080315
      pz      :     0.916573  p :     2.509771
      px      :     0.756328
      py      :     0.836870
      dz2     :     0.008016  d :     0.065538
      dxz     :     0.011448
      dyz     :     0.009989
      dx2y2   :     0.016623
      dxy     :     0.019463

 11 C s       :     3.196914  s :     3.196914
      pz      :     1.006552  p :     2.941565
      px      :     0.967803
      py      :     0.967210
      dz2     :     0.005005  d :     0.034380
      dxz     :     0.005440
      dyz     :     0.004062
      dx2y2   :     0.011696
      dxy     :     0.008178

 12 C s       :     3.190928  s :     3.190928
      pz      :     0.981080  p :     2.898749
      px      :     0.974572
      py      :     0.943096
      dz2     :     0.004254  d :     0.036411
      dxz     :     0.004489
      dyz     :     0.006716
      dx2y2   :     0.008821
      dxy     :     0.012131

 13 C s       :     3.184173  s :     3.184173
      pz      :     1.001546  p :     2.912019
      px      :     0.970431
      py      :     0.940042
      dz2     :     0.002911  d :     0.035697
      dxz     :     0.005401
      dyz     :     0.006789
      dx2y2   :     0.009567
      dxy     :     0.011029

 14 C s       :     3.189328  s :     3.189328
      pz      :     0.975846  p :     2.901146
      px      :     0.941163
      py      :     0.984138
      dz2     :     0.005493  d :     0.036462
      dxz     :     0.005857
      dyz     :     0.003841
      dx2y2   :     0.013039
      dxy     :     0.008231

 15 C s       :     3.186987  s :     3.186987
      pz      :     1.016619  p :     2.959023
      px      :     0.999695
      py      :     0.942708
      dz2     :     0.004054  d :     0.034543
      dxz     :     0.004507
      dyz     :     0.006228
      dx2y2   :     0.009277
      dxy     :     0.010477

 16 C s       :     3.187724  s :     3.187724
      pz      :     0.953442  p :     2.976268
      px      :     0.999751
      py      :     1.023076
      dz2     :     0.006767  d :     0.034932
      dxz     :     0.012577
      dyz     :     0.004404
      dx2y2   :     0.005778
      dxy     :     0.005406

 17 C s       :     3.198535  s :     3.198535
      pz      :     0.992226  p :     2.891288
      px      :     0.934564
      py      :     0.964498
      dz2     :     0.007572  d :     0.036763
      dxz     :     0.010323
      dyz     :     0.006040
      dx2y2   :     0.005800
      dxy     :     0.007028

 18 S s       :     5.220210  s :     5.220210
      pz      :     3.013024  p :     9.019737
      px      :     2.980671
      py      :     3.026042
      dz2     :     0.082497  d :     0.530745
      dxz     :     0.116678
      dyz     :     0.127276
      dx2y2   :     0.092974
      dxy     :     0.111321

 19 O s       :     3.923867  s :     3.923867
      pz      :     1.596458  p :     4.585663
      px      :     1.346354
      py      :     1.642851
      dz2     :     0.003836  d :     0.026710
      dxz     :     0.007080
      dyz     :     0.002004
      dx2y2   :     0.006867
      dxy     :     0.006924

 20 O s       :     3.929067  s :     3.929067
      pz      :     1.307348  p :     4.564303
      px      :     1.612825
      py      :     1.644130
      dz2     :     0.008302  d :     0.027064
      dxz     :     0.007362
      dyz     :     0.005947
      dx2y2   :     0.002718
      dxy     :     0.002736

 21 C s       :     3.231177  s :     3.231177
      pz      :     1.006588  p :     2.874778
      px      :     0.956397
      py      :     0.911793
      dz2     :     0.004240  d :     0.038345
      dxz     :     0.005209
      dyz     :     0.007696
      dx2y2   :     0.009112
      dxy     :     0.012090

 22 C s       :     3.215266  s :     3.215266
      pz      :     0.966414  p :     2.894253
      px      :     1.017136
      py      :     0.910703
      dz2     :     0.003530  d :     0.035660
      dxz     :     0.005641
      dyz     :     0.007025
      dx2y2   :     0.010425
      dxy     :     0.009038

 23 C s       :     3.217514  s :     3.217514
      pz      :     0.944105  p :     2.888950
      px      :     0.956879
      py      :     0.987966
      dz2     :     0.005618  d :     0.035416
      dxz     :     0.005400
      dyz     :     0.004602
      dx2y2   :     0.010643
      dxy     :     0.009153

 24 C s       :     3.166803  s :     3.166803
      pz      :     0.965296  p :     2.711942
      px      :     0.900644
      py      :     0.846002
      dz2     :     0.004316  d :     0.038303
      dxz     :     0.005289
      dyz     :     0.007644
      dx2y2   :     0.009474
      dxy     :     0.011581

 25 C s       :     3.000060  s :     3.000060
      pz      :     0.794199  p :     2.362252
      px      :     0.730535
      py      :     0.837518
      dz2     :     0.010864  d :     0.109284
      dxz     :     0.013868
      dyz     :     0.021381
      dx2y2   :     0.032102
      dxy     :     0.031069

 26 O s       :     3.880639  s :     3.880639
      pz      :     1.508955  p :     4.541282
      px      :     1.658098
      py      :     1.374229
      dz2     :     0.002510  d :     0.025417
      dxz     :     0.000807
      dyz     :     0.007687
      dx2y2   :     0.007296
      dxy     :     0.007117

 27 O s       :     3.873638  s :     3.873638
      pz      :     1.668467  p :     4.729351
      px      :     1.415751
      py      :     1.645133
      dz2     :     0.002413  d :     0.020873
      dxz     :     0.003410
      dyz     :     0.004304
      dx2y2   :     0.003539
      dxy     :     0.007206

 28 C s       :     3.210833  s :     3.210833
      pz      :     0.965330  p :     2.901988
      px      :     0.980473
      py      :     0.956185
      dz2     :     0.003399  d :     0.035740
      dxz     :     0.005487
      dyz     :     0.006956
      dx2y2   :     0.010468
      dxy     :     0.009430

 29 C s       :     3.207392  s :     3.207392
      pz      :     0.939761  p :     2.904624
      px      :     0.918829
      py      :     1.046033
      dz2     :     0.005842  d :     0.035756
      dxz     :     0.005631
      dyz     :     0.004449
      dx2y2   :     0.011056
      dxy     :     0.008778

 30 N s       :     3.693784  s :     3.693784
      pz      :     1.142936  p :     3.665978
      px      :     1.035991
      py      :     1.487051
      dz2     :     0.004328  d :     0.034816
      dxz     :     0.006760
      dyz     :     0.005855
      dx2y2   :     0.009152
      dxy     :     0.008721

 31 C s       :     3.154421  s :     3.154421
      pz      :     0.953346  p :     2.835156
      px      :     0.933637
      py      :     0.948173
      dz2     :     0.003870  d :     0.054192
      dxz     :     0.004732
      dyz     :     0.008507
      dx2y2   :     0.021721
      dxy     :     0.015361

 32 C s       :     3.138294  s :     3.138294
      pz      :     0.965433  p :     2.692944
      px      :     0.863736
      py      :     0.863774
      dz2     :     0.003695  d :     0.041825
      dxz     :     0.005951
      dyz     :     0.006516
      dx2y2   :     0.013191
      dxy     :     0.012472

 33 C s       :     3.209423  s :     3.209423
      pz      :     0.984469  p :     2.953108
      px      :     0.991159
      py      :     0.977480
      dz2     :     0.003131  d :     0.036455
      dxz     :     0.003130
      dyz     :     0.006586
      dx2y2   :     0.012941
      dxy     :     0.010667

 34 C s       :     3.191525  s :     3.191525
      pz      :     0.983154  p :     2.900780
      px      :     0.945703
      py      :     0.971923
      dz2     :     0.003827  d :     0.036417
      dxz     :     0.004498
      dyz     :     0.004360
      dx2y2   :     0.009864
      dxy     :     0.013869

 35 C s       :     3.196354  s :     3.196354
      pz      :     0.967511  p :     2.886303
      px      :     0.934510
      py      :     0.984282
      dz2     :     0.003839  d :     0.036662
      dxz     :     0.005868
      dyz     :     0.003238
      dx2y2   :     0.012793
      dxy     :     0.010925

 36 C s       :     3.208370  s :     3.208370
      pz      :     1.000627  p :     2.959318
      px      :     0.981124
      py      :     0.977567
      dz2     :     0.003023  d :     0.035422
      dxz     :     0.003604
      dyz     :     0.006010
      dx2y2   :     0.012686
      dxy     :     0.010100

 37 C s       :     3.135960  s :     3.135960
      pz      :     0.958369  p :     2.694194
      px      :     0.882923
      py      :     0.852902
      dz2     :     0.003635  d :     0.041589
      dxz     :     0.005634
      dyz     :     0.007150
      dx2y2   :     0.012815
      dxy     :     0.012355

 38 H s       :     0.815534  s :     0.815534

 39 H s       :     0.832092  s :     0.832092

 40 H s       :     0.840363  s :     0.840363

 41 H s       :     0.812204  s :     0.812204

 42 H s       :     0.838113  s :     0.838113

 43 H s       :     0.876274  s :     0.876274

 44 H s       :     0.861354  s :     0.861354

 45 H s       :     0.858580  s :     0.858580

 46 H s       :     0.865078  s :     0.865078

 47 H s       :     0.873352  s :     0.873352

 48 H s       :     0.867653  s :     0.867653

 49 H s       :     0.855877  s :     0.855877

 50 H s       :     0.846274  s :     0.846274

 51 H s       :     0.837044  s :     0.837044

 52 H s       :     0.805801  s :     0.805801

 53 H s       :     0.819288  s :     0.819288

 54 H s       :     0.567035  s :     0.567035

 55 H s       :     0.831174  s :     0.831174

 56 H s       :     0.809861  s :     0.809861

 57 H s       :     0.845543  s :     0.845543

 58 H s       :     0.861076  s :     0.861076

 59 H s       :     0.864418  s :     0.864418

 60 H s       :     0.862739  s :     0.862739

 61 H s       :     0.862083  s :     0.862083



                     *******************************
                     * LOEWDIN POPULATION ANALYSIS *
                     *******************************

----------------------
LOEWDIN ATOMIC CHARGES
----------------------
   0 C :   -0.366124
   1 C :   -0.027997
   2 C :    0.047577
   3 N :   -0.281836
   4 C :   -0.151854
   5 C :   -0.052255
   6 C :   -0.128555
   7 C :   -0.147601
   8 C :    0.085828
   9 O :   -0.143664
  10 C :    0.087379
  11 C :   -0.145170
  12 C :   -0.122057
  13 C :   -0.142161
  14 C :   -0.124604
  15 C :   -0.157230
  16 C :   -0.156838
  17 C :   -0.110857
  18 S :    1.270219
  19 O :   -0.562094
  20 O :   -0.554066
  21 C :   -0.174168
  22 C :   -0.097881
  23 C :   -0.087127
  24 C :   -0.040440
  25 C :    0.181901
  26 O :   -0.264141
  27 O :   -0.336015
  28 C :   -0.102273
  29 C :   -0.111657
  30 N :   -0.129683
  31 C :   -0.055838
  32 C :   -0.033168
  33 C :   -0.110291
  34 C :   -0.129924
  35 C :   -0.116108
  36 C :   -0.127884
  37 C :   -0.003914
  38 H :    0.146199
  39 H :    0.140177
  40 H :    0.136007
  41 H :    0.150918
  42 H :    0.128785
  43 H :    0.130617
  44 H :    0.141150
  45 H :    0.141564
  46 H :    0.135044
  47 H :    0.131279
  48 H :    0.133403
  49 H :    0.140457
  50 H :    0.145417
  51 H :    0.147115
  52 H :    0.165553
  53 H :    0.160485
  54 H :    0.349539
  55 H :    0.152765
  56 H :    0.160704
  57 H :    0.138517
  58 H :    0.137212
  59 H :    0.135211
  60 H :    0.136448
  61 H :    0.138004

-------------------------------
LOEWDIN REDUCED ORBITAL CHARGES
-------------------------------
  0 C s       :     2.969708  s :     2.969708
      pz      :     1.119094  p :     3.329187
      px      :     1.064538
      py      :     1.145555
      dz2     :     0.016460  d :     0.067229
      dxz     :     0.009714
      dyz     :     0.011169
      dx2y2   :     0.012450
      dxy     :     0.017435

  1 C s       :     2.886816  s :     2.886816
      pz      :     0.983891  p :     3.045528
      px      :     1.028745
      py      :     1.032892
      dz2     :     0.007095  d :     0.095653
      dxz     :     0.010750
      dyz     :     0.012430
      dx2y2   :     0.031860
      dxy     :     0.033519

  2 C s       :     2.851919  s :     2.851919
      pz      :     0.986598  p :     2.929418
      px      :     0.971187
      py      :     0.971634
      dz2     :     0.011694  d :     0.171086
      dxz     :     0.018548
      dyz     :     0.018295
      dx2y2   :     0.056812
      dxy     :     0.065736

  3 N s       :     3.199652  s :     3.199652
      pz      :     1.273453  p :     4.001613
      px      :     1.525597
      py      :     1.202563
      dz2     :     0.017356  d :     0.080572
      dxz     :     0.010774
      dyz     :     0.027347
      dx2y2   :     0.010608
      dxy     :     0.014487

  4 C s       :     2.924793  s :     2.924793
      pz      :     0.941427  p :     3.112249
      px      :     1.053723
      py      :     1.117099
      dz2     :     0.025864  d :     0.114812
      dxz     :     0.026961
      dyz     :     0.025062
      dx2y2   :     0.018378
      dxy     :     0.018547

  5 C s       :     2.877960  s :     2.877960
      pz      :     1.058962  p :     3.075215
      px      :     1.009766
      py      :     1.006486
      dz2     :     0.025409  d :     0.099080
      dxz     :     0.025866
      dyz     :     0.015094
      dx2y2   :     0.016785
      dxy     :     0.015926

  6 C s       :     2.913090  s :     2.913090
      pz      :     1.053282  p :     3.129785
      px      :     1.062710
      py      :     1.013793
      dz2     :     0.016998  d :     0.085680
      dxz     :     0.029587
      dyz     :     0.009336
      dx2y2   :     0.015208
      dxy     :     0.014550

  7 C s       :     2.914045  s :     2.914045
      pz      :     1.054011  p :     3.151135
      px      :     1.060786
      py      :     1.036338
      dz2     :     0.015536  d :     0.082421
      dxz     :     0.027545
      dyz     :     0.009688
      dx2y2   :     0.013797
      dxy     :     0.015854

  8 C s       :     2.857179  s :     2.857179
      pz      :     1.066621  p :     2.897786
      px      :     0.846937
      py      :     0.984228
      dz2     :     0.031960  d :     0.159207
      dxz     :     0.048521
      dyz     :     0.015499
      dx2y2   :     0.032175
      dxy     :     0.031053

  9 O s       :     3.445940  s :     3.445940
      pz      :     1.706227  p :     4.636253
      px      :     1.241305
      py      :     1.688721
      dz2     :     0.007997  d :     0.061471
      dxz     :     0.015263
      dyz     :     0.005156
      dx2y2   :     0.014065
      dxy     :     0.018990

 10 C s       :     2.862274  s :     2.862274
      pz      :     0.948605  p :     2.895043
      px      :     0.910208
      py      :     1.036230
[...]
      pz      :     0.948516  p :     3.021046
      px      :     1.047294
      py      :     1.025236
      dz2     :     0.008131  d :     0.124077
      dxz     :     0.007888
      dyz     :     0.017778
      dx2y2   :     0.052577
      dxy     :     0.037704

 32 C s       :     2.856962  s :     2.856962
      pz      :     0.969202  p :     3.067109
      px      :     1.045498
      py      :     1.052410
      dz2     :     0.008160  d :     0.109097
      dxz     :     0.012963
      dyz     :     0.014449
      dx2y2   :     0.037048
      dxy     :     0.036476

 33 C s       :     2.915341  s :     2.915341
      pz      :     0.978698  p :     3.109899
      px      :     1.066746
      py      :     1.064456
      dz2     :     0.005885  d :     0.085051
      dxz     :     0.005335
      dyz     :     0.014253
      dx2y2   :     0.032397
      dxy     :     0.027180

 34 C s       :     2.916155  s :     2.916155
      pz      :     0.986533  p :     3.127722
      px      :     1.065491
      py      :     1.075697
      dz2     :     0.007193  d :     0.086047
      dxz     :     0.009881
      dyz     :     0.009370
      dx2y2   :     0.026238
      dxy     :     0.033366

 35 C s       :     2.918407  s :     2.918407
      pz      :     0.969727  p :     3.111556
      px      :     1.065426
      py      :     1.076403
      dz2     :     0.007176  d :     0.086145
      dxz     :     0.013393
      dyz     :     0.006263
      dx2y2   :     0.031189
      dxy     :     0.028125

 36 C s       :     2.917152  s :     2.917152
      pz      :     1.001979  p :     3.128596
      px      :     1.072173
      py      :     1.054444
      dz2     :     0.005702  d :     0.082136
      dxz     :     0.006140
      dyz     :     0.013085
      dx2y2   :     0.030679
      dxy     :     0.026531

 37 C s       :     2.856808  s :     2.856808
      pz      :     0.964319  p :     3.041077
      px      :     1.036480
      py      :     1.040278
      dz2     :     0.007565  d :     0.106029
      dxz     :     0.012252
      dyz     :     0.015479
      dx2y2   :     0.035264
      dxy     :     0.035468

 38 H s       :     0.853801  s :     0.853801

 39 H s       :     0.859823  s :     0.859823

 40 H s       :     0.863993  s :     0.863993

 41 H s       :     0.849082  s :     0.849082

 42 H s       :     0.871215  s :     0.871215

 43 H s       :     0.869383  s :     0.869383

 44 H s       :     0.858850  s :     0.858850

 45 H s       :     0.858436  s :     0.858436

 46 H s       :     0.864956  s :     0.864956

 47 H s       :     0.868721  s :     0.868721

 48 H s       :     0.866597  s :     0.866597

 49 H s       :     0.859543  s :     0.859543

 50 H s       :     0.854583  s :     0.854583

 51 H s       :     0.852885  s :     0.852885

 52 H s       :     0.834447  s :     0.834447

 53 H s       :     0.839515  s :     0.839515

 54 H s       :     0.650461  s :     0.650461

 55 H s       :     0.847235  s :     0.847235

 56 H s       :     0.839296  s :     0.839296

 57 H s       :     0.861483  s :     0.861483

 58 H s       :     0.862788  s :     0.862788

 59 H s       :     0.864789  s :     0.864789

 60 H s       :     0.863552  s :     0.863552

 61 H s       :     0.861996  s :     0.861996



                      *****************************
                      * MAYER POPULATION ANALYSIS *
                      *****************************

  NA   - Mulliken gross atomic population
  ZA   - Total nuclear charge
  QA   - Mulliken gross atomic charge
  VA   - Mayer's total valence
  BVA  - Mayer's bonded valence
  FA   - Mayer's free valence

  ATOM       NA         ZA         QA         VA         BVA        FA
  0 C      6.5553     6.0000    -0.5553     3.8194     3.8194     0.0000
  1 C      5.9197     6.0000     0.0803     3.8675     3.8675    -0.0000
  2 C      5.6468     6.0000     0.3532     3.8373     3.8373    -0.0000
  3 N      7.6320     7.0000    -0.6320     2.7722     2.7722    -0.0000
  4 C      6.2339     6.0000    -0.2339     3.7881     3.7881     0.0000
  5 C      5.8726     6.0000     0.1274     3.9261     3.9261    -0.0000
  6 C      6.1779     6.0000    -0.1779     3.9322     3.9322     0.0000
  7 C      6.1750     6.0000    -0.1750     3.9141     3.9141     0.0000
  8 C      5.6479     6.0000     0.3521     3.8591     3.8591    -0.0000
  9 O      8.5625     8.0000    -0.5625     1.9527     1.9527    -0.0000
 10 C      5.6556     6.0000     0.3444     3.8648     3.8648     0.0000
 11 C      6.1729     6.0000    -0.1729     3.9136     3.9136    -0.0000
 12 C      6.1261     6.0000    -0.1261     3.9473     3.9473    -0.0000
 13 C      6.1319     6.0000    -0.1319     3.9450     3.9450     0.0000
 14 C      6.1269     6.0000    -0.1269     3.9502     3.9502     0.0000
 15 C      6.1806     6.0000    -0.1806     3.8977     3.8977    -0.0000
 16 C      6.1989     6.0000    -0.1989     3.8912     3.8912    -0.0000
 17 C      6.1266     6.0000    -0.1266     3.9287     3.9287    -0.0000
 18 S     14.7707    16.0000     1.2293     5.0388     5.0388    -0.0000
 19 O      8.5362     8.0000    -0.5362     1.8959     1.8959    -0.0000
 20 O      8.5204     8.0000    -0.5204     1.9090     1.9090     0.0000
 21 C      6.1443     6.0000    -0.1443     3.8459     3.8459    -0.0000
 22 C      6.1452     6.0000    -0.1452     3.9117     3.9117    -0.0000
 23 C      6.1419     6.0000    -0.1419     3.8897     3.8897     0.0000
 24 C      5.9170     6.0000     0.0830     3.9223     3.9223    -0.0000
 25 C      5.4716     6.0000     0.5284     3.9487     3.9487     0.0000
 26 O      8.4473     8.0000    -0.4473     2.0639     2.0639    -0.0000
 27 O      8.6239     8.0000    -0.6239     1.8681     1.8681    -0.0000
 28 C      6.1486     6.0000    -0.1486     3.8717     3.8717    -0.0000
 29 C      6.1478     6.0000    -0.1478     3.8905     3.8905    -0.0000
 30 N      7.3946     7.0000    -0.3946     3.0021     3.0021    -0.0000
 31 C      6.0438     6.0000    -0.0438     3.8607     3.8607     0.0000
 32 C      5.8731     6.0000     0.1269     3.9573     3.9573    -0.0000
 33 C      6.1990     6.0000    -0.1990     3.9028     3.9028    -0.0000
 34 C      6.1287     6.0000    -0.1287     3.9292     3.9292    -0.0000
 35 C      6.1193     6.0000    -0.1193     3.9281     3.9281    -0.0000
 36 C      6.2031     6.0000    -0.2031     3.8781     3.8781    -0.0000
 37 C      5.8717     6.0000     0.1283     3.9997     3.9997    -0.0000
 38 H      0.8155     1.0000     0.1845     0.9401     0.9401     0.0000
 39 H      0.8321     1.0000     0.1679     0.9311     0.9311    -0.0000
 40 H      0.8404     1.0000     0.1596     0.9294     0.9294    -0.0000
 41 H      0.8122     1.0000     0.1878     0.9253     0.9253    -0.0000
 42 H      0.8381     1.0000     0.1619     0.9326     0.9326    -0.0000
 43 H      0.8763     1.0000     0.1237     0.9398     0.9398    -0.0000
 44 H      0.8614     1.0000     0.1386     0.9385     0.9385    -0.0000
 45 H      0.8586     1.0000     0.1414     0.9381     0.9381    -0.0000
 46 H      0.8651     1.0000     0.1349     0.9365     0.9365     0.0000
 47 H      0.8734     1.0000     0.1266     0.9370     0.9370    -0.0000
 48 H      0.8677     1.0000     0.1323     0.9369     0.9369     0.0000
 49 H      0.8559     1.0000     0.1441     0.9417     0.9417    -0.0000
 50 H      0.8463     1.0000     0.1537     0.9411     0.9411    -0.0000
 51 H      0.8370     1.0000     0.1630     0.9458     0.9458     0.0000
 52 H      0.8058     1.0000     0.1942     0.9354     0.9354    -0.0000
 53 H      0.8193     1.0000     0.1807     0.9385     0.9385     0.0000
 54 H      0.5670     1.0000     0.4330     0.7965     0.7965    -0.0000
 55 H      0.8312     1.0000     0.1688     0.9374     0.9374    -0.0000
 56 H      0.8099     1.0000     0.1901     0.9507     0.9507     0.0000
 57 H      0.8455     1.0000     0.1545     0.9323     0.9323    -0.0000
 58 H      0.8611     1.0000     0.1389     0.9369     0.9369    -0.0000
 59 H      0.8644     1.0000     0.1356     0.9369     0.9369    -0.0000
 60 H      0.8627     1.0000     0.1373     0.9364     0.9364     0.0000
 61 H      0.8621     1.0000     0.1379     0.9427     0.9427    -0.0000

  Mayer bond orders larger than 0.100000
B(  0-C ,  1-C ) :   0.9965 B(  0-C , 38-H ) :   0.9156 B(  0-C , 39-H ) :   0.9284 
B(  0-C , 40-H ) :   0.9272 B(  1-C ,  2-C ) :   1.4220 B(  1-C , 31-C ) :   0.1039 
B(  1-C , 37-C ) :   1.2722 B(  2-C ,  3-N ) :   0.8838 B(  2-C , 30-N ) :   1.2780 
B(  3-N ,  4-C ) :   0.9121 B(  3-N , 18-S ) :   0.7617 B(  4-C ,  5-C ) :   0.9587 
B(  4-C , 41-H ) :   0.9122 B(  4-C , 42-H ) :   0.9157 B(  5-C ,  6-C ) :   1.4195 
B(  5-C , 17-C ) :   1.4243 B(  6-C ,  7-C ) :   1.4339 B(  6-C , 43-H ) :   0.9260 
B(  7-C ,  8-C ) :   1.4185 B(  7-C , 44-H ) :   0.9201 B(  8-C ,  9-O ) :   0.8794 
B(  8-C , 16-C ) :   1.3756 B(  9-O , 10-C ) :   0.8724 B( 10-C , 11-C ) :   1.4215 
B( 10-C , 15-C ) :   1.3836 B( 11-C , 12-C ) :   1.4398 B( 11-C , 45-H ) :   0.9207 
B( 12-C , 13-C ) :   1.4535 B( 12-C , 46-H ) :   0.9294 B( 13-C , 14-C ) :   1.4468 
B( 13-C , 47-H ) :   0.9309 B( 14-C , 15-C ) :   1.4484 B( 14-C , 48-H ) :   0.9296 
B( 15-C , 49-H ) :   0.9162 B( 16-C , 17-C ) :   1.4352 B( 16-C , 50-H ) :   0.9124 
B( 17-C , 51-H ) :   0.9024 B( 18-S , 19-O ) :   1.6241 B( 18-S , 20-O ) :   1.6704 
B( 18-S , 21-C ) :   0.8120 B( 21-C , 22-C ) :   1.3931 B( 21-C , 29-C ) :   1.3885 
B( 22-C , 23-C ) :   1.4160 B( 22-C , 52-H ) :   0.9067 B( 23-C , 24-C ) :   1.4005 
B( 23-C , 53-H ) :   0.9099 B( 24-C , 25-C ) :   1.0086 B( 24-C , 28-C ) :   1.3809 
B( 25-C , 26-O ) :   1.8595 B( 25-C , 27-O ) :   1.0228 B( 27-O , 54-H ) :   0.7425 
B( 28-C , 29-C ) :   1.4224 B( 28-C , 55-H ) :   0.9163 B( 29-C , 56-H ) :   0.8855 
B( 30-N , 31-C ) :   1.4844 B( 31-C , 32-C ) :   1.2398 B( 31-C , 57-H ) :   0.9252 
B( 32-C , 33-C ) :   1.2794 B( 32-C , 37-C ) :   1.2904 B( 33-C , 34-C ) :   1.5198 
B( 33-C , 36-C ) :   0.1060 B( 33-C , 58-H ) :   0.9235 B( 34-C , 35-C ) :   1.3483 
B( 34-C , 59-H ) :   0.9291 B( 35-C , 36-C ) :   1.5148 B( 35-C , 60-H ) :   0.9290 
B( 36-C , 37-C ) :   1.2898 B( 36-C , 61-H ) :   0.9161 

-------
TIMINGS
-------

Total SCF time: 0 days 0 hours 7 min 22 sec 

Total time                  ....     442.468 sec
Sum of individual times     ....     441.870 sec  ( 99.9%)

SCF preparation             ....       0.435 sec  (  0.1%)
Fock matrix formation       ....     438.019 sec  ( 99.0%)
  Startup                   ....       0.143 sec  (  0.0% of F)
  Split-RI-J                ....      63.428 sec  ( 14.5% of F)
  Chain of spheres X        ....     336.913 sec  ( 76.9% of F)
  XC integration            ....      35.811 sec  (  8.2% of F)
    XC Preparation          ....       0.000 sec  (  0.0% of XC)
    Basis function eval.    ....      13.816 sec  ( 38.6% of XC)
    Density eval.           ....       8.343 sec  ( 23.3% of XC)
    XC-Functional eval.     ....       1.549 sec  (  4.3% of XC)
    XC-Potential eval.      ....       9.660 sec  ( 27.0% of XC)
Diagonalization             ....       0.000 sec  (  0.0%)
Density matrix formation    ....       0.781 sec  (  0.2%)
Total Energy calculation    ....       0.119 sec  (  0.0%)
Population analysis         ....       0.097 sec  (  0.0%)
Orbital Transformation      ....       0.233 sec  (  0.1%)
Orbital Orthonormalization  ....       0.000 sec  (  0.0%)
DIIS solution               ....       1.242 sec  (  0.3%)
SOSCF solution              ....       0.944 sec  (  0.2%)
Finished LeanSCF after 442.6 sec

Maximum memory used throughout the entire LEANSCF-calculation: 100.8 MB

-------------------------   --------------------
FINAL SINGLE POINT ENERGY     -2040.299669881235
-------------------------   --------------------


------------------------------------------------------------------------------
                              ORCA PROPERTY CALCULATIONS
------------------------------------------------------------------------------

GBWName                                 ... /home/nmrbox/aojoawo/Documents/ERDOS/inputs/CHEMBL3682552.gbw
Number of atoms                         ...     62
Number of basis functions               ...    584
Max core memory                         ...   1024 MB

Electric properties:
Dipole moment                           ... YES
Quadrupole moment                       ...  NO
Static polarizability (Dipole/Dipole)   ...  NO
Static polarizability (Dipole/Quad.)    ...  NO
Static polarizability (Quad./Quad.)     ...  NO
Static polarizability (Velocity)        ...  NO

Atomic electric properties:
Dipole moment                           ...  NO
Quadrupole moment                       ...  NO
Static polarizability                   ...  NO

Choice of electric origin               ... Center of mass
Position of electric origin             ...    -0.551810    -0.727883     0.116394

General magnetic properties:
Magnetizability                         ...  NO

EPR properties:
g-Tensor (aka g-matrix)                 ...  NO
Zero-Field splitting spin-orbit         ...  NO
Zero-field splitting spin-spin          ...  NO
Hyperfine couplings                     ...  NO (   0 nuclei)
Quadrupole couplings                    ...  NO (   0 nuclei)
Contact density                         ...  NO (   0 nuclei)

NMR properties:
Chemical shifts                         ...  NO (   0 nuclei)
Spin-rotation constants                 ...  NO (   0 nuclei)
Spin-spin couplings                     ...  NO (   0 nuclei,    0 pairs)

Choice of magnetic origin               ... GIAO
Position of magnetic origin             ...     0.000000     0.000000     0.000000

Properties with geometric perturbations:
SCF Hessian                             ...  NO
IR spectrum                             ...  NO
VCD spectrum                            ...  NO
X-ray spectroscopy properties:
SCF XES/XAS/RIXS spectra                ...  NO


-------------
DIPOLE MOMENT
-------------

Method             : SCF
Type of density    : Electron Density
Multiplicity       :   1
Irrep              :   0
Energy             : -2040.2996698812353316 Eh
Relativity type    : 
Basis              : AO
                                X                 Y                 Z
Electronic contribution:    -14.838595778     -16.755891087       4.201013604
Nuclear contribution   :     13.935011726      18.689716036      -6.032318540
                        -----------------------------------------
Total Dipole Moment    :     -0.903584053       1.933824949      -1.831304937
                        -----------------------------------------
Magnitude (a.u.)       :      2.812440372
Magnitude (Debye)      :      7.148655312



--------------------
Rotational spectrum 
--------------------
 
Rotational constants in cm-1:             0.002975             0.001926             0.001261 
Rotational constants in MHz :            89.181219            57.744485            37.817894 

Dipole components along the rotational axes: 
x,y,z [a.u.] :    -0.799310     1.664969    -2.121038 
x,y,z [Debye]:    -2.031685     4.232014    -5.391251 

 

Dipole moment calculation done in   0.0 sec 

Maximum memory used throughout the entire PROP-calculation: 49.6 MB

--------------------------------
SUGGESTED CITATIONS FOR THIS RUN
--------------------------------

Below you find a list of papers that are relevant to this ORCA run
We neither can nor want to force you to cite these papers, but we appreciate if you do
You receive ORCA, which is the product of decades of hard work by many enthusiastic individuals, for free
The only thing we kindly ask in return is that you cite our papers,
We deeply appreciate it, if you show your appreciation for ORCA by not just citing the generic ORCA reference.

Please note that relegating all ORCA citations to the supporting information does *not* help us.
SI sections are not indexed - citations you put there will not count into any citation statistics
But we need these citations in order to attract the funding resources that allow us to do what we are doing

Therefore, if you are a happy ORCA user, please consider citing a few of the papers listed below in the main body of your paper

In addition to the list printed below, the program has created the file /home/nmrbox/aojoawo/Documents/ERDOS/inputs/CHEMBL3682552.bibtex that contains the list in bibtex format
You can import this file easily into all common literature databanks and citation aid programs


List of essential papers. We consider these as the minimum necessary citations

  1. Neese,F.
     Software update: the ORCA program system, version 5.0
     WIRES Comput. Molec. Sci., 2022 12(1)e1606
     doi.org/10.1002/wcms.1606

List of papers to cite with high priority. The work reported in these papers was absolutely
necessary for this run to complete.
Our perspective: the developers of density functionals and basis sets usually get cited in chemistry papers
Good! But without the algorithms to do something with them, the functionals or basis sets would not do anything.
Hence, in our opinion, the algorithm design and method developments papers are equally worthy of getting cited

  1. Neese,F.
     An improvement of the resolution of the identity approximation for the formation of the Coulomb matrix
     J. Comp. Chem., 2003 24(14)1740-1747
     doi.org/10.1002/jcc.10318
  2. Neese,F.; Wennmohs,F.; Hansen,A.; Becker,U.
     Efficient, approximate and parallel Hartree-Fock and hybrid DFT calculations. A 'chain-of-spheres' algorithm for the Hartree-Fock exchange
     Chem. Phys., 2009 356(1-3)98-109
     doi.org/10.1016/j.chemphys.2008.10.036
  3. Helmich-Paris,B.; de Souza,B.; Neese,F.; Izsák,R.
     An improved chain of spheres for exchange algorithm
     J. Chem. Phys., 2021 155 104109
     doi.org/doi: 10.1063/5.0058766.
  4. Neese,F.
     The SHARK Integral Generation and Digestion System
     J. Comp. Chem., 2022  1-16
     doi.org/10.1002/jcc.26942

List of suggested additional citations. These are papers that are important in the 'surrounding' of 
of this run, or papers that preceded the highly important papers. If you like your results we are grateful for a citation.

  1. Izsak,R.; Neese,F.
     An overlap fitted chain of spheres exchange method
     J. Chem. Phys., 2011 135 144105
     doi.org/10.1063/1.3646921
  2. Izsak,R.; Hansen,A.; Neese,F.
     The resolution of identity and chain of spheres approximations for the LPNO-CCSD singles Fock term
     Molec. Phys., 2012 110 2413-2417
     doi.org/10.1080/00268976.2012.687466
  3. Neese,F.
     The ORCA program system
     WIRES Comput. Molec. Sci., 2012 2(1)73-78
     doi.org/10.1002/wcms.81
  4. Izsak,R.; Neese,F.; Klopper,W.
     Robust fitting techniques in the chain of spheres approximation to the Fock exchange: The role of the complementary space
     J. Chem. Phys., 2013 139 
     doi.org/10.1063/1.4819264
  5. Neese,F.
     Software update: the ORCA program system, version 4.0
     WIRES Comput. Molec. Sci., 2018 8(1)1-6
     doi.org/10.1002/wcms.1327
  6. Neese,F.; Wennmohs,F.; Becker,U.; Riplinger,C.
     The ORCA quantum chemistry program package
     J. Chem. Phys., 2020 152 Art. No. L224108
     doi.org/10.1063/5.0004608

List of optional additional citations

  1. Neese,F.
     Approximate second-order SCF convergence for spin unrestricted wavefunctions
     Chem. Phys. Lett., 2000 325(1-3)93-98
     doi.org/10.1016/s0009-2614(00)00662-x

Timings for individual modules:

Sum of individual times          ...      461.190 sec (=   7.686 min)
Startup calculation              ...       12.371 sec (=   0.206 min)   2.7 %
SCF iterations                   ...      448.608 sec (=   7.477 min)  97.3 %
Property calculations            ...        0.211 sec (=   0.004 min)   0.0 %
                             ****ORCA TERMINATED NORMALLY****
TOTAL RUN TIME: 0 days 0 hours 7 minutes 42 seconds 317 msec
