
                                 *****************
                                 * O   R   C   A *
                                 *****************

                                            #,                                       
                                            ###                                      
                                            ####                                     
                                            #####                                    
                                            ######                                   
                                           ########,                                 
                                     ,,################,,,,,                         
                               ,,#################################,,                 
                          ,,##########################################,,             
                       ,#########################################, ''#####,          
                    ,#############################################,,   '####,        
                  ,##################################################,,,,####,       
                ,###########''''           ''''###############################       
              ,#####''   ,,,,##########,,,,          '''####'''          '####       
            ,##' ,,,,###########################,,,                        '##       
           ' ,,###''''                  '''############,,,                           
         ,,##''                                '''############,,,,        ,,,,,,###''
      ,#''                                            '''#######################'''  
     '                                                          ''''####''''         
             ,#######,   #######,   ,#######,      ##                                
            ,#'     '#,  ##    ##  ,#'     '#,    #''#        ,####,   ,####,        
            ##       ##  ##   ,#'  ##            #'  '#       #'       #'  '#        
            ##       ##  #######   ##           ,######,      #####,   #    #        
            '#,     ,#'  ##    ##  '#,     ,#' ,#      #,     #,   #   #,  ,#        
             '#######'   ##     ##  '#######'  #'      '#     '####' # '####'        



                #########################################################
                #                        -***-                          #
                #          Department of theory and spectroscopy        #
                #                                                       #
                #                      Frank Neese                      #
                #                                                       #
                #     Directorship, Architecture, Infrastructure        #
                #                    SHARK, DRIVERS                     #
                #        Core code/Algorithms in most modules           #
                #                                                       #
                #        Max Planck Institute fuer Kohlenforschung      #
                #                Kaiser Wilhelm Platz 1                 #
                #                 D-45470 Muelheim/Ruhr                 #
                #                      Germany                          #
                #                                                       #
                #                  All rights reserved                  #
                #                        -***-                          #
                #########################################################


                         Program Version 6.0.0  -   RELEASE  -


 With contributions from (in alphabetic order):
   Daniel Aravena         : Magnetic Suceptibility
   Michael Atanasov       : Ab Initio Ligand Field Theory (pilot matlab implementation)
   Alexander A. Auer      : GIAO ZORA, VPT2 properties, NMR spectrum
   Ute Becker             : All parallelization in ORCA, NUMFREQ, NUMCALC
   Giovanni Bistoni       : ED, misc. LED, open-shell LED, HFLD
   Martin Brehm           : Molecular dynamics
   Dmytro Bykov           : pre 5.0 version of the SCF Hessian
   Marcos Casanova-Páez   : Triplet and SCS-CIS(D). UHF-(DLPNO)-IP/EA/STEOM-CCSD. UHF-CVS-IP/STEOM-CCSD
   Vijay G. Chilkuri      : MRCI spin determinant printing, contributions to CSF-ICE
   Pauline Colinet        : FMM embedding
   Dipayan Datta          : RHF DLPNO-CCSD density
   Achintya Kumar Dutta   : EOM-CC, STEOM-CC
   Nicolas Foglia         : Exact transition moments, OPA infrastructure, MCD improvements
   Dmitry Ganyushin       : Spin-Orbit,Spin-Spin,Magnetic field MRCI
   Miquel Garcia          : C-PCM and meta-GGA Hessian, CCSD/C-PCM, Gaussian charge scheme
   Tiago L. C. Gouveia    : GS-ROHF, GS-ROCIS
   Yang Guo               : DLPNO-NEVPT2, F12-NEVPT2, CIM, IAO-localization
   Andreas Hansen         : Spin unrestricted coupled pair/coupled cluster methods
   Ingolf Harden          : AUTO-CI MPn and infrastructure 
   Benjamin Helmich-Paris : MC-RPA, TRAH-(SCF,CASSCF), AVAS, COSX integrals, SCF dyn. polar.
   Lee Huntington         : MR-EOM, pCC
   Robert Izsak           : Overlap fitted RIJCOSX, COSX-SCS-MP3, EOM
   Riya Kayal             : Wick's Theorem for AUTO-CI, AUTO-CI UHF-CCSDT
   Emily Kempfer          : AUTO-CI, RHF CISDT and CCSDT
   Christian Kollmar      : KDIIS, OOCD, Brueckner-CCSD(T), CCSD density, CASPT2, CASPT2-K, improved NEVPT2
   Axel Koslowski         : Symmetry handling
   Simone Kossmann        : Meta GGA functionals, TD-DFT gradient, OOMP2, (MP2 Hessian; deprecated post 5.0)
   Lucas Lang             : DCDCAS
   Marvin Lechner         : AUTO-CI (C++ implementation), FIC-MRCC
   Spencer Leger          : CASSCF response
   Dagmar Lenk            : GEPOL surface, SMD, ORCA-2-JSON
   Dimitrios Liakos       : Extrapolation schemes; Compound Job, initial MDCI parallelization
   Dimitrios Manganas     : Further ROCIS development; embedding schemes. LFT, Crystal Embedding
   Dimitrios Pantazis     : SARC Basis sets
   Anastasios Papadopoulos: AUTO-CI, single reference methods and gradients
   Taras Petrenko         : pre 6.0 DFT Hessian and TD-DFT gradient, (ASA, deprecated), ECA, 1-Electron XAS/XES, NRVS
   Peter Pinski           : DLPNO-MP2, DLPNO-MP2 Gradient
   Christoph Reimann      : Effective Core Potentials
   Marius Retegan         : Local ZFS, SOC
   Christoph Riplinger    : Optimizer, TS searches, QM/MM, DLPNO-CCSD(T), (RO)-DLPNO pert. Triples
   Michael Roemelt        : Original ROCIS implementation
   Masaaki Saitow         : Open-shell DLPNO-CCSD energy and density
   Barbara Sandhoefer     : DKH picture change effects
   Kantharuban Sivalingam : CASSCF convergence/infrastructure, NEVPT2 and variants, FIC-MRCI
   Bernardo de Souza      : ESD, SOC TD-DFT
   Georgi Stoychev        : AutoAux, RI-MP2 NMR, DLPNO-MP2 response, X2C
   Van Anh Tran           : RI-MP2 g-tensors
   Willem Van den Heuvel  : Paramagnetic NMR
   Zikuan Wang            : NOTCH, Electric field optimization 
   Frank Wennmohs         : Technical directorship and infrastructure
   Hang Xu                : AUTO-CI-Response properties 


 We gratefully acknowledge several colleagues who have allowed us to
 interface, adapt or use parts of their codes:
   Stefan Grimme, W. Hujo, H. Kruse, P. Pracht,  : VdW corrections, initial TS optimization,
                  C. Bannwarth, S. Ehlert,         DFT functionals, gCP, sTDA/sTD-DF
                  L. Wittmann, M. Mueller
   Ed Valeev, F. Pavosevic, A. Kumar             : LibInt (2-el integral package), F12 methods
   Garnet Chan, S. Sharma, J. Yang, R. Olivares  : DMRG
   Ulf Ekstrom                                   : XCFun DFT Library
   Mihaly Kallay                                 : mrcc  (arbitrary order and MRCC methods)
   Frank Weinhold                                : gennbo (NPA and NBO analysis)
   Simon Mueller                                 : openCOSMO-RS
   Christopher J. Cramer and Donald G. Truhlar   : smd solvation model
   Lars Goerigk                                  : TD-DFT with DH, B97 family of functionals
   V. Asgeirsson, H. Jonsson                     : NEB implementation
   FAccTs GmbH                                   : IRC, NEB, NEB-TS, DLPNO-Multilevel, CI-OPT
                                                   MM, QMMM, 2- and 3-layer-ONIOM, Crystal-QMMM,
                                                   LR-CPCM, SF, NACMEs, symmetry and pop. for TD-DFT,
                                                   nearIR, NL-DFT gradient (VV10), updates on ESD,
                                                   ML-optimized integration grids, MBIS, APM,
                                                   GOAT, DOCKER, SOLVATOR, interface openCOSMO-RS
   S Lehtola, MJT Oliveira, MAL Marques          : LibXC Library
   Liviu Ungur et al                             : ANISO software


 Your calculation uses the libint2 library for the computation of 2-el integrals
 For citations please refer to: http://libint.valeyev.net

 Your ORCA version has been built with support for libXC version: 6.2.2
 For citations please refer to: https://libxc.gitlab.io

 This ORCA versions uses:
   CBLAS   interface :  Fast vector & matrix operations
   LAPACKE interface :  Fast linear algebra routines
   SCALAPACK package :  Parallel linear algebra routines
   Shared memory     :  Shared parallel matrices
   BLAS/LAPACK       :  OpenBLAS 0.3.27  USE64BITINT DYNAMIC_ARCH NO_AFFINITY SkylakeX SINGLE_THREADED
        Core in use  :  SkylakeX
   Copyright (c) 2011-2014, The OpenBLAS Project


Warning: RI is on but no J-basis has been assigned. Assigning Def2/J (nothing to worry about!)
================================================================================

----- Orbital basis set information -----
Your calculation utilizes the basis: 6-31G*
   H-He, Li-Ne : W. J. Hehre, R. Ditchfield and J.A. Pople, J. Chem. Phys. 56, 2257 (1972).
                 Note: He and Ne are unpublished basis sets taken from the Gaussian program.
                 Note: Li and B from J. D. Dill and J. A. Pople, J. Chem. Phys. 62, 2921 (1975).
   Na - Ar     : M. M. Francl, W. J. Pietro, W. J. Hehre, J. S. Binkley, M. S. Gordon, 
                 D. J. DeFrees and J. A. Pople, J. Chem. Phys. 77, 3654 (1982).
   K - Zn      : V. A. Rassolov, J. A. Pople, M. A. Ratner, and T. L. Windus, J. Chem. Phys. 109, 1223 (1998).

----- AuxJ basis set information -----
Your calculation utilizes the auxiliary basis: def2/J
   F. Weigend, Phys. Chem. Chem. Phys. 8, 1057 (2006).

================================================================================
                                        WARNINGS
                       Please study these warnings very carefully!
================================================================================


================================================================================
                                       INPUT FILE
================================================================================
NAME = /home/nmrbox/aojoawo/Documents/ERDOS/inputs/CHEMBL3577897.inp
|  1> ! B3LYP 6-31G* SP
|  2> 
|  3> * xyz 0 1
|  4> O -4.3765 -4.9708 1.3720
|  5> C -4.3184 -3.7325 1.1433
|  6> O -5.2435 -2.8827 1.7497
|  7> C -3.2835 -3.1849 0.2376
|  8> C -2.3981 -4.0396 -0.4394
|  9> C -1.4382 -3.5171 -1.3086
| 10> C -1.3421 -2.1395 -1.5049
| 11> C -2.1991 -1.2662 -0.8175
| 12> C -2.0833 0.2225 -1.0194
| 13> N -0.7709 0.7152 -0.5605
| 14> C 0.2551 0.9364 -1.5492
| 15> O -0.0302 1.5656 -2.6032
| 16> C 1.6430 0.4643 -1.3417
| 17> C 2.7187 1.1435 -1.9364
| 18> N 3.9957 0.7200 -1.7395
| 19> C 4.2799 -0.3690 -0.9784
| 20> C 5.6081 -0.7705 -0.7940
| 21> C 5.8965 -1.8968 -0.0179
| 22> C 4.8600 -2.6274 0.5753
| 23> C 3.5303 -2.2321 0.3973
| 24> C 3.2324 -1.0988 -0.3752
| 25> C 1.9103 -0.6783 -0.5693
| 26> C -0.5181 1.1868 0.8223
| 27> C -1.4830 0.5994 1.8743
| 28> O -1.0641 0.9421 3.1687
| 29> C -0.5092 2.7026 0.8617
| 30> C 0.6630 3.3914 1.2246
| 31> C 0.6816 4.7882 1.2632
| 32> C -0.4638 5.5125 0.9239
| 33> C -1.6334 4.8402 0.5627
| 34> C -1.6588 3.4425 0.5317
| 35> C -3.1785 -1.7963 0.0406
| 36> H -5.9732 -3.2503 2.3461
| 37> H -2.4539 -5.1131 -0.3072
| 38> H -0.7712 -4.1838 -1.8396
| 39> H -0.5970 -1.7528 -2.1885
| 40> H -2.9040 0.7618 -0.5070
| 41> H -2.2278 0.4401 -2.0992
| 42> H 2.5456 2.0223 -2.5438
| 43> H 6.4167 -0.2169 -1.2563
| 44> H 6.9234 -2.2066 0.1231
| 45> H 5.0891 -3.5011 1.1708
| 46> H 2.7394 -2.8094 0.8600
| 47> H 1.0948 -1.2369 -0.1224
| 48> H 0.4835 0.8181 1.1312
| 49> H -1.4618 -0.5063 1.8011
| 50> H -2.5295 0.9361 1.7120
| 51> H -1.4132 1.8516 3.3565
| 52> H 1.5639 2.8485 1.4783
| 53> H 1.5861 5.3108 1.5510
| 54> H -0.4478 6.5940 0.9546
| 55> H -2.5214 5.4026 0.3103
| 56> H -2.5756 2.9436 0.2490
| 57> H -3.8479 -1.1232 0.5640
| 58> *
| 59> 
| 60>                          ****END OF INPUT****
================================================================================

                       ****************************
                       * Single Point Calculation *
                       ****************************

---------------------------------
CARTESIAN COORDINATES (ANGSTROEM)
---------------------------------
  O     -4.376500   -4.970800    1.372000
  C     -4.318400   -3.732500    1.143300
  O     -5.243500   -2.882700    1.749700
  C     -3.283500   -3.184900    0.237600
  C     -2.398100   -4.039600   -0.439400
  C     -1.438200   -3.517100   -1.308600
  C     -1.342100   -2.139500   -1.504900
  C     -2.199100   -1.266200   -0.817500
  C     -2.083300    0.222500   -1.019400
  N     -0.770900    0.715200   -0.560500
  C      0.255100    0.936400   -1.549200
  O     -0.030200    1.565600   -2.603200
  C      1.643000    0.464300   -1.341700
  C      2.718700    1.143500   -1.936400
  N      3.995700    0.720000   -1.739500
  C      4.279900   -0.369000   -0.978400
  C      5.608100   -0.770500   -0.794000
  C      5.896500   -1.896800   -0.017900
  C      4.860000   -2.627400    0.575300
  C      3.530300   -2.232100    0.397300
  C      3.232400   -1.098800   -0.375200
  C      1.910300   -0.678300   -0.569300
  C     -0.518100    1.186800    0.822300
  C     -1.483000    0.599400    1.874300
  O     -1.064100    0.942100    3.168700
  C     -0.509200    2.702600    0.861700
  C      0.663000    3.391400    1.224600
  C      0.681600    4.788200    1.263200
  C     -0.463800    5.512500    0.923900
  C     -1.633400    4.840200    0.562700
  C     -1.658800    3.442500    0.531700
  C     -3.178500   -1.796300    0.040600
  H     -5.973200   -3.250300    2.346100
  H     -2.453900   -5.113100   -0.307200
  H     -0.771200   -4.183800   -1.839600
  H     -0.597000   -1.752800   -2.188500
  H     -2.904000    0.761800   -0.507000
  H     -2.227800    0.440100   -2.099200
  H      2.545600    2.022300   -2.543800
  H      6.416700   -0.216900   -1.256300
  H      6.923400   -2.206600    0.123100
  H      5.089100   -3.501100    1.170800
  H      2.739400   -2.809400    0.860000
  H      1.094800   -1.236900   -0.122400
  H      0.483500    0.818100    1.131200
  H     -1.461800   -0.506300    1.801100
  H     -2.529500    0.936100    1.712000
  H     -1.413200    1.851600    3.356500
  H      1.563900    2.848500    1.478300
  H      1.586100    5.310800    1.551000
  H     -0.447800    6.594000    0.954600
  H     -2.521400    5.402600    0.310300
  H     -2.575600    2.943600    0.249000
  H     -3.847900   -1.123200    0.564000

----------------------------
CARTESIAN COORDINATES (A.U.)
----------------------------
  NO LB      ZA    FRAG     MASS         X           Y           Z
   0 O     8.0000    0    15.999   -8.270386   -9.393451    2.592704
   1 C     6.0000    0    12.011   -8.160593   -7.053403    2.160524
   2 O     8.0000    0    15.999   -9.908779   -5.447514    3.306454
   3 C     6.0000    0    12.011   -6.204916   -6.018589    0.448999
   4 C     6.0000    0    12.011   -4.531752   -7.633738   -0.830346
   5 C     6.0000    0    12.011   -2.717804   -6.646356   -2.472896
   6 C     6.0000    0    12.011   -2.536201   -4.043069   -2.843849
   7 C     6.0000    0    12.011   -4.155697   -2.392771   -1.544851
   8 C     6.0000    0    12.011   -3.936866    0.420464   -1.926387
   9 N     7.0000    0    14.007   -1.456790    1.351532   -1.059191
  10 C     6.0000    0    12.011    0.482069    1.769540   -2.927564
  11 O     8.0000    0    15.999   -0.057070    2.958555   -4.919335
  12 C     6.0000    0    12.011    3.104820    0.877400   -2.535446
  13 C     6.0000    0    12.011    5.137598    2.160902   -3.659266
  14 N     7.0000    0    14.007    7.550779    1.360603   -3.287179
  15 C     6.0000    0    12.011    8.087839   -0.697309   -1.848908
  16 C     6.0000    0    12.011   10.597773   -1.456034   -1.500443
  17 C     6.0000    0    12.011   11.142770   -3.584433   -0.033826
  18 C     6.0000    0    12.011    9.184069   -4.965066    1.087159
  19 C     6.0000    0    12.011    6.671300   -4.218058    0.750788
  20 C     6.0000    0    12.011    6.108351   -2.076431   -0.709025
  21 C     6.0000    0    12.011    3.609944   -1.281801   -1.075821
  22 C     6.0000    0    12.011   -0.979067    2.242727    1.553922
  23 C     6.0000    0    12.011   -2.802464    1.132702    3.541914
  24 O     8.0000    0    15.999   -2.010858    1.780311    5.987975
  25 C     6.0000    0    12.011   -0.962249    5.107174    1.628377
  26 C     6.0000    0    12.011    1.252888    6.408817    2.314159
  27 C     6.0000    0    12.011    1.288037    9.048387    2.387102
  28 C     6.0000    0    12.011   -0.876455   10.417115    1.745918
  29 C     6.0000    0    12.011   -3.086679    9.146652    1.063349
  30 C     6.0000    0    12.011   -3.134678    6.505382    1.004767
  31 C     6.0000    0    12.011   -6.006495   -3.394515    0.076723
  32 H     1.0000    0     1.008  -11.287712   -6.142177    4.433486
  33 H     1.0000    0     1.008   -4.637199   -9.662359   -0.580524
  34 H     1.0000    0     1.008   -1.457357   -7.906236   -3.476340
  35 H     1.0000    0     1.008   -1.128167   -3.312312   -4.135666
  36 H     1.0000    0     1.008   -5.487765    1.439593   -0.958091
  37 H     1.0000    0     1.008   -4.209932    0.831668   -3.966913
  38 H     1.0000    0     1.008    4.810487    3.821593   -4.807085
  39 H     1.0000    0     1.008   12.125806   -0.409882   -2.374063
  40 H     1.0000    0     1.008   13.083330   -4.169870    0.232625
  41 H     1.0000    0     1.008    9.617005   -6.616120    2.212491
  42 H     1.0000    0     1.008    5.176716   -5.308997    1.625164
  43 H     1.0000    0     1.008    2.068872   -2.337402   -0.231302
  44 H     1.0000    0     1.008    0.913683    1.545985    2.137658
  45 H     1.0000    0     1.008   -2.762402   -0.956768    3.403586
  46 H     1.0000    0     1.008   -4.780062    1.768973    3.235211
  47 H     1.0000    0     1.008   -2.670561    3.499017    6.342866
  48 H     1.0000    0     1.008    2.955343    5.382885    2.793582
  49 H     1.0000    0     1.008    2.997295   10.035958    2.930965
  50 H     1.0000    0     1.008   -0.846219   12.460854    1.803933
  51 H     1.0000    0     1.008   -4.764755   10.209434    0.586382
  52 H     1.0000    0     1.008   -4.867179    5.562598    0.470542
  53 H     1.0000    0     1.008   -7.271477   -2.122540    1.065806

--------------------------------
INTERNAL COORDINATES (ANGSTROEM)
--------------------------------
 O      0   0   0     0.000000000000     0.00000000     0.00000000
 C      1   0   0     1.260581687159     0.00000000     0.00000000
 O      2   1   0     1.394880285186   119.27625947     0.00000000
 C      2   1   3     1.480262226769   120.43915619   180.21767387
 C      4   2   1     1.404554822711   120.69843071     3.57770892
 C      5   4   2     1.396396397876   120.37532403   178.97780717
 C      6   5   4     1.394829975302   120.29931721     0.51945809
 C      7   6   5     1.403431740413   120.23650495     0.78119451
 C      8   7   6     1.506784968069   120.14778382   179.31611078
 N      9   8   7     1.475037714772   110.89815755   296.64068451
 C     10   9   8     1.441919945767   118.10013718    99.08417338
 O     11  10   9     1.260239949375   119.27333207    46.96068405
 C     11  10   9     1.480608344567   121.46568743   225.72507605
 C     13  11  10     1.404318774353   120.29605425   208.65169915
 N     14  13  11     1.359724552989   120.49280925   179.45304443
 C     15  14  13     1.358662522483   121.81729054     0.52030616
 C     16  15  14     1.399757425413   120.14467707   180.29541324
 C     17  16  15     1.397876053161   120.00106432   180.44109113
 C     18  17  16     1.399998160713   120.19690528     0.09101587
 C     19  18  17     1.398587923586   120.16326793   359.83536067
 C     20  19  18     1.403520413104   120.00481205   359.86311508
 C     21  20  19     1.400872396045   121.26230233   180.08361928
 C     10   9   8     1.482717181394   123.23580123   269.49556596
 C     23  10   9     1.543623908211   114.07783121    24.50638679
 O     24  23  10     1.402993891647   110.43696687   171.70177308
 C     23  10   9     1.516338092247   110.07105426   258.31465350
 C     26  23  10     1.407193906326   120.05964253   243.21694094
 C     27  26  23     1.397457033329   120.49513248   179.96450956
 C     28  27  26     1.397024029858   120.03932810   359.19100488
 C     29  28  27     1.396573266965   119.99135012     0.83375242
 C     30  29  28     1.398274454462   120.14179831   359.60433895
 C      8   7   6     1.405903972539   119.32236777   358.21922462
 H      3   2   1     1.011575409942   120.88559542   358.19580630
 H      5   4   2     1.083047889061   120.78667310   359.70974698
 H      6   5   4     1.082284107802   119.90369156   181.07090375
 H      7   6   5     1.082598660631   119.27934002   180.48013708
 H      9   8   7     1.107676279425   111.22957164   173.04508739
 H      9   8   7     1.110944665589   108.28595816    58.22669961
 H     14  13  11     1.082214308721   120.52426612     0.55685182
 H     17  16  15     1.083525823412   120.35516412     0.00000000
 H     18  17  16     1.081841323855   119.92896790   179.94376993
 H     19  18  17     1.081877419119   119.86034149   179.69420659
 H     20  19  18     1.083000180055   119.29301862   179.80676142
 H     22  21  20     1.084801281341   119.85660509   359.63394513
 H     23  10   9     1.111108212552   107.90420230   139.94388108
 H     24  23  10     1.108323134289   108.82415610    54.05361704
 H     24  23  10     1.111247240716   111.95209732   294.63062933
 H     25  24  23     0.992134013125   107.06745407    83.43793668
 H     27  26  23     1.082000420517   120.56042823   359.95261203
 H     28  27  26     1.083540423796   120.03495447   179.53224514
 H     29  28  27     1.082053945051   119.94573850   179.98157193
 H     30  29  28     1.080991914863   119.86108736   179.37754065
 H     31  30  29     1.081361521416   118.84031050   180.00236579
 H     32   8   7     1.084023768190   119.39033054   180.64444020

---------------------------
INTERNAL COORDINATES (A.U.)
---------------------------
 O      0   0   0     0.000000000000     0.00000000     0.00000000
 C      1   0   0     2.382154158166     0.00000000     0.00000000
 O      2   1   0     2.635941728607   119.27625947     0.00000000
 C      2   1   3     2.797290214982   120.43915619   180.21767387
 C      4   2   1     2.654223955002   120.69843071     3.57770892
 C      5   4   2     2.638806766379   120.37532403   178.97780717
 C      6   5   4     2.635846656704   120.29931721     0.51945809
 C      7   6   5     2.652101637034   120.23650495     0.78119451
 C      8   7   6     2.847410932361   120.14778382   179.31611078
 N      9   8   7     2.787417318124   110.89815755   296.64068451
 C     10   9   8     2.724833804538   118.10013718    99.08417338
 O     11  10   9     2.381508367345   119.27333207    46.96068405
 C     11  10   9     2.797944282829   121.46568743   225.72507605
 C     13  11  10     2.653777888251   120.29605425   208.65169915
 N     14  13  11     2.569507022717   120.49280925   179.45304443
 C     15  14  13     2.567500075916   121.81729054     0.52030616
 C     16  15  14     2.645158187954   120.14467707   180.29541324
 C     17  16  15     2.641602909640   120.00106432   180.44109113
 C     18  17  16     2.645613111741   120.19690528     0.09101587
 C     19  18  17     2.642948149787   120.16326793   359.83536067
 C     20  19  18     2.652269204135   120.00481205   359.86311508
 C     21  20  19     2.647265177095   121.26230233   180.08361928
 C     10   9   8     2.801929406894   123.23580123   269.49556596
 C     23  10   9     2.917026440292   114.07783121    24.50638679
 O     24  23  10     2.651274222778   110.43696687   171.70177308
 C     23  10   9     2.865463720780   110.07105426   258.31465350
 C     26  23  10     2.659211100278   120.05964253   243.21694094
 C     27  26  23     2.640811076913   120.49513248   179.96450956
 C     28  27  26     2.639992818938   120.03932810   359.19100488
 C     29  28  27     2.639141000519   119.99135012     0.83375242
 C     30  29  28     2.642355778991   120.14179831   359.60433895
 C      8   7   6     2.656773478690   119.32236777   358.21922462
 H      3   2   1     1.911600488600   120.88559542   358.19580630
 H      5   4   2     2.046663900247   120.78667310   359.70974698
 H      6   5   4     2.045220562840   119.90369156   181.07090375
 H      7   6   5     2.045814981543   119.27934002   180.48013708
 H      9   8   7     2.093204813153   111.22957164   173.04508739
 H      9   8   7     2.099381167903   108.28595816    58.22669961
 H     14  13  11     2.045088661693   120.52426612     0.55685182
 H     17  16  15     2.047567065280   120.35516412     0.00000000
 H     18  17  16     2.044383822444   119.92896790   179.94376993
 H     19  18  17     2.044452032609   119.86034149   179.69420659
 H     20  19  18     2.046573743292   119.29301862   179.80676142
 H     22  21  20     2.049977331462   119.85660509   359.63394513
 H     23  10   9     2.099690226874   107.90420230   139.94388108
 H     24  23  10     2.094427191695   108.82415610    54.05361704
 H     24  23  10     2.099952952030   111.95209732   294.63062933
 H     25  24  23     1.874861572955   107.06745407    83.43793668
 H     27  26  23     2.044684471566   120.56042823   359.95261203
 H     28  27  26     2.047594656007   120.03495447   179.53224514
 H     29  28  27     2.044785618275   119.94573850   179.98157193
 H     30  29  28     2.042778672075   119.86108736   179.37754065
 H     31  30  29     2.043477127237   118.84031050   180.00236579
 H     32   8   7     2.048508044540   119.39033054   180.64444020

---------------------
BASIS SET INFORMATION
---------------------
There are 4 groups of distinct atoms

 Group   1 Type O   : 10s4p1d contracted to 3s2p1d pattern {631/31/1}
 Group   2 Type C   : 10s4p1d contracted to 3s2p1d pattern {631/31/1}
 Group   3 Type N   : 10s4p1d contracted to 3s2p1d pattern {631/31/1}
 Group   4 Type H   : 4s contracted to 2s pattern {31}

Atom   0O    basis set group =>   1
Atom   1C    basis set group =>   2
Atom   2O    basis set group =>   1
Atom   3C    basis set group =>   2
Atom   4C    basis set group =>   2
Atom   5C    basis set group =>   2
Atom   6C    basis set group =>   2
Atom   7C    basis set group =>   2
Atom   8C    basis set group =>   2
Atom   9N    basis set group =>   3
Atom  10C    basis set group =>   2
Atom  11O    basis set group =>   1
Atom  12C    basis set group =>   2
Atom  13C    basis set group =>   2
Atom  14N    basis set group =>   3
Atom  15C    basis set group =>   2
Atom  16C    basis set group =>   2
Atom  17C    basis set group =>   2
Atom  18C    basis set group =>   2
Atom  19C    basis set group =>   2
Atom  20C    basis set group =>   2
Atom  21C    basis set group =>   2
Atom  22C    basis set group =>   2
Atom  23C    basis set group =>   2
Atom  24O    basis set group =>   1
Atom  25C    basis set group =>   2
Atom  26C    basis set group =>   2
Atom  27C    basis set group =>   2
Atom  28C    basis set group =>   2
Atom  29C    basis set group =>   2
Atom  30C    basis set group =>   2
Atom  31C    basis set group =>   2
Atom  32H    basis set group =>   4
Atom  33H    basis set group =>   4
Atom  34H    basis set group =>   4
Atom  35H    basis set group =>   4
Atom  36H    basis set group =>   4
Atom  37H    basis set group =>   4
Atom  38H    basis set group =>   4
Atom  39H    basis set group =>   4
Atom  40H    basis set group =>   4
Atom  41H    basis set group =>   4
Atom  42H    basis set group =>   4
Atom  43H    basis set group =>   4
Atom  44H    basis set group =>   4
Atom  45H    basis set group =>   4
Atom  46H    basis set group =>   4
Atom  47H    basis set group =>   4
Atom  48H    basis set group =>   4
Atom  49H    basis set group =>   4
Atom  50H    basis set group =>   4
Atom  51H    basis set group =>   4
Atom  52H    basis set group =>   4
Atom  53H    basis set group =>   4
---------------------------------
AUXILIARY/J BASIS SET INFORMATION
---------------------------------
There are 4 groups of distinct atoms

 Group   1 Type O   : 12s5p4d2f1g contracted to 6s4p3d1f1g pattern {711111/2111/211/2/1}
 Group   2 Type C   : 12s5p4d2f1g contracted to 6s4p3d1f1g pattern {711111/2111/211/2/1}
 Group   3 Type N   : 12s5p4d2f1g contracted to 6s4p3d1f1g pattern {711111/2111/211/2/1}
 Group   4 Type H   : 5s2p1d contracted to 3s1p1d pattern {311/2/1}

Atom   0O    basis set group =>   1
Atom   1C    basis set group =>   2
Atom   2O    basis set group =>   1
Atom   3C    basis set group =>   2
Atom   4C    basis set group =>   2
Atom   5C    basis set group =>   2
Atom   6C    basis set group =>   2
Atom   7C    basis set group =>   2
Atom   8C    basis set group =>   2
Atom   9N    basis set group =>   3
Atom  10C    basis set group =>   2
Atom  11O    basis set group =>   1
Atom  12C    basis set group =>   2
Atom  13C    basis set group =>   2
Atom  14N    basis set group =>   3
Atom  15C    basis set group =>   2
Atom  16C    basis set group =>   2
Atom  17C    basis set group =>   2
Atom  18C    basis set group =>   2
Atom  19C    basis set group =>   2
Atom  20C    basis set group =>   2
Atom  21C    basis set group =>   2
Atom  22C    basis set group =>   2
Atom  23C    basis set group =>   2
Atom  24O    basis set group =>   1
Atom  25C    basis set group =>   2
Atom  26C    basis set group =>   2
Atom  27C    basis set group =>   2
Atom  28C    basis set group =>   2
Atom  29C    basis set group =>   2
Atom  30C    basis set group =>   2
Atom  31C    basis set group =>   2
Atom  32H    basis set group =>   4
Atom  33H    basis set group =>   4
Atom  34H    basis set group =>   4
Atom  35H    basis set group =>   4
Atom  36H    basis set group =>   4
Atom  37H    basis set group =>   4
Atom  38H    basis set group =>   4
Atom  39H    basis set group =>   4
Atom  40H    basis set group =>   4
Atom  41H    basis set group =>   4
Atom  42H    basis set group =>   4
Atom  43H    basis set group =>   4
Atom  44H    basis set group =>   4
Atom  45H    basis set group =>   4
Atom  46H    basis set group =>   4
Atom  47H    basis set group =>   4
Atom  48H    basis set group =>   4
Atom  49H    basis set group =>   4
Atom  50H    basis set group =>   4
Atom  51H    basis set group =>   4
Atom  52H    basis set group =>   4
Atom  53H    basis set group =>   4
------------------------------------------------------------------------------
                             ORCA STARTUP CALCULATIONS
                           -- RI-GTO INTEGRALS CHOSEN --
------------------------------------------------------------------------------
------------------------------------------------------------------------------
                   ___                                                        
                  /   \      - P O W E R E D   B Y -                         
                 /     \                                                     
                 |  |  |   _    _      __       _____    __    __             
                 |  |  |  | |  | |    /  \     |  _  \  |  |  /  |          
                  \  \/   | |  | |   /    \    | | | |  |  | /  /          
                 / \  \   | |__| |  /  /\  \   | |_| |  |  |/  /          
                |  |  |   |  __  | /  /__\  \  |    /   |      \           
                |  |  |   | |  | | |   __   |  |    \   |  |\   \          
                \     /   | |  | | |  |  |  |  | |\  \  |  | \   \       
                 \___/    |_|  |_| |__|  |__|  |_| \__\ |__|  \__/        
                                                                              
                      - O R C A' S   B I G   F R I E N D -                    
                                      &                                       
                       - I N T E G R A L  F E E D E R -                       
                                                                              
 v1 FN, 2020, v2 2021, v3 2022-2024                                           
------------------------------------------------------------------------------


----------------------
SHARK INTEGRAL PACKAGE
----------------------

Number of atoms                             ...     54
Number of basis functions                   ...    492
Number of shells                            ...    236
Maximum angular momentum                    ...      2
Integral batch strategy                     ... SHARK/LIBINT Hybrid
RI-J (if used) integral strategy            ... SPLIT-RIJ (Revised 2003 algorithm where possible)
Printlevel                                  ...      1
Contraction scheme used                     ... SEGMENTED contraction
Prescreening option                         ... SCHWARTZ
   Thresh                                   ... 1.000e-10
   Tcut                                     ... 1.000e-11
   Tpresel                                  ... 1.000e-11 
Coulomb Range Separation                    ... NOT USED
Exchange Range Separation                   ... NOT USED
Multipole approximations                    ... NOT USED
Finite Nucleus Model                        ... NOT USED
CABS basis                                  ... NOT available
Auxiliary Coulomb fitting basis             ... AVAILABLE
   # of basis functions in Aux-J            ...   1810
   # of shells in Aux-J                     ...    590
   Maximum angular momentum in Aux-J        ...      4
Auxiliary J/K fitting basis                 ... NOT available
Auxiliary Correlation fitting basis         ... NOT available
Auxiliary 'external' fitting basis          ... NOT available

Checking pre-screening integrals            ... done (  0.0 sec) Dimension = 236
Check shell pair data                       ... done (  0.0 sec)
Shell pair information
Shell pair cut-off parameter TPreSel        ...   1.0e-11
Total number of shell pairs                 ...     27966
Shell pairs after pre-screening             ...     16787
Total number of primitive shell pairs       ...    162334
Primitive shell pairs kept                  ...     49989
          la=0 lb=0:   5597 shell pairs
          la=1 lb=0:   5900 shell pairs
          la=1 lb=1:   1577 shell pairs
          la=2 lb=0:   2239 shell pairs
          la=2 lb=1:   1250 shell pairs
          la=2 lb=2:    224 shell pairs

Calculating one electron integrals          ... done (  0.2 sec)
Calculating RI/J V-Matrix + Cholesky decomp.... done (  0.4 sec)
Calculating Nuclear repulsion               ... done (  0.0 sec) ENN=   3048.739821023896 Eh

Diagonalization of the overlap matrix:
Smallest eigenvalue                        ... 3.935e-04
Time for diagonalization                   ...    0.043 sec
Threshold for overlap eigenvalues          ... 1.000e-07
Number of eigenvalues below threshold      ... 0
Time for construction of square roots      ...    0.031 sec
Total time needed                          ...    0.082 sec

-------------------
DFT GRID GENERATION
-------------------

General Integration Accuracy     IntAcc      ... 4.388
Radial Grid Type                 RadialGrid  ... OptM3 with GC (2021)
Angular Grid (max. ang.)         AngularGrid ... 4 (Lebedev-302)
Angular grid pruning method      GridPruning ... 4 (adaptive)
Weight generation scheme         WeightScheme... mBecke (2022)
Basis function cutoff            BFCut       ... 1.0000e-10
Integration weight cutoff        WCut        ... 1.0000e-14
Partially contracted basis set               ... off
Rotationally invariant grid construction     ... off
Angular grids for H and He will be reduced by one unit

Total number of grid points                  ...   260395
Total number of batches                      ...     4100
Average number of points per batch           ...       63
Average number of grid points per atom       ...     4822

--------------------
COSX GRID GENERATION
--------------------

GRIDX 1
-------
General Integration Accuracy     IntAcc      ... 3.816
Radial Grid Type                 RadialGrid  ... OptM3 with GC (2021)
Angular Grid (max. ang.)         AngularGrid ... 1 (Lebedev-50)
Angular grid pruning method      GridPruning ... 4 (adaptive)
Weight generation scheme         WeightScheme... mBecke (2022)
Basis function cutoff            BFCut       ... 1.0000e-10
Integration weight cutoff        WCut        ... 1.0000e-14
Partially contracted basis set               ... on
Rotationally invariant grid construction     ... off
Angular grids for H and He will be reduced by one unit

Total number of grid points                  ...    32969
Total number of batches                      ...      286
Average number of points per batch           ...      115
Average number of grid points per atom       ...      611
UseSFitting                                  ... on

GRIDX 2
-------
General Integration Accuracy     IntAcc      ... 4.020
Radial Grid Type                 RadialGrid  ... OptM3 with GC (2021)
Angular Grid (max. ang.)         AngularGrid ... 2 (Lebedev-110)
Angular grid pruning method      GridPruning ... 4 (adaptive)
Weight generation scheme         WeightScheme... mBecke (2022)
Basis function cutoff            BFCut       ... 1.0000e-10
Integration weight cutoff        WCut        ... 1.0000e-14
Partially contracted basis set               ... on
Rotationally invariant grid construction     ... off
Angular grids for H and He will be reduced by one unit

Total number of grid points                  ...    71772
Total number of batches                      ...      590
Average number of points per batch           ...      121
Average number of grid points per atom       ...     1329
UseSFitting                                  ... on

GRIDX 3
-------
General Integration Accuracy     IntAcc      ... 4.338
Radial Grid Type                 RadialGrid  ... OptM3 with GC (2021)
Angular Grid (max. ang.)         AngularGrid ... 3 (Lebedev-194)
Angular grid pruning method      GridPruning ... 4 (adaptive)
Weight generation scheme         WeightScheme... mBecke (2022)
Basis function cutoff            BFCut       ... 1.0000e-10
Integration weight cutoff        WCut        ... 1.0000e-14
Partially contracted basis set               ... on
Rotationally invariant grid construction     ... off
Angular grids for H and He will be reduced by one unit

Total number of grid points                  ...   156639
Total number of batches                      ...     1251
Average number of points per batch           ...      125
Average number of grid points per atom       ...     2901
UseSFitting                                  ... on
Initializing property integral containers    ... done (  0.0 sec)

SHARK setup successfully completed in  14.9 seconds

Maximum memory used throughout the entire STARTUP-calculation: 112.8 MB
-------------------------------------------------------------------------------
                                 ORCA GUESS
                   Start orbitals & Density for SCF / CASSCF
-------------------------------------------------------------------------------

------------
SCF SETTINGS
------------
Hamiltonian:
 Density Functional     Method          .... DFT(GTOs)
 Exchange Functional    Exchange        .... B88
   X-Alpha parameter    XAlpha          ....  0.666667
   Becke's b parameter  XBeta           ....  0.004200
 Correlation Functional Correlation     .... LYP
 LDA part of GGA corr.  LDAOpt          .... VWN-5
 Gradients option       PostSCFGGA      .... off
 Hybrid DFT is turned on
   Fraction HF Exchange ScalHFX         ....  0.200000
   Scaling of DF-GGA-X  ScalDFX         ....  0.720000
   Scaling of DF-GGA-C  ScalDFC         ....  0.810000
   Scaling of DF-LDA-C  ScalLDAC        ....  1.000000
   Perturbative correction              ....  0.000000
   NL short-range parameter             ....  4.800000
 RI-approximation to the Coulomb term is turned on
   Number of AuxJ basis functions       .... 1810
   RIJ-COSX (HFX calculated with COS-X)).... on


General Settings:
 Integral files         IntName         .... /home/nmrbox/aojoawo/Documents/ERDOS/inputs/CHEMBL3577897
 Hartree-Fock type      HFTyp           .... RHF
 Total Charge           Charge          ....    0
 Multiplicity           Mult            ....    1
 Number of Electrons    NEL             ....  224
 Basis Dimension        Dim             ....  492
 Nuclear Repulsion      ENuc            ....   3048.7398210239 Eh

Convergence Acceleration:
 AO-DIIS                CNVDIIS         .... on
   Start iteration      DIISMaxIt       ....    12
   Startup error        DIISStart       ....  0.200000
   # of expansion vecs  DIISMaxEq       ....     5
   Bias factor          DIISBfac        ....   1.050
   Max. coefficient     DIISMaxC        ....  10.000
 MO-DIIS                CNVKDIIS        .... off
 Trust-Rad. Augm. Hess. CNVTRAH         .... auto
   Auto Start mean grad. ratio tolernc. ....  1.125000
   Auto Start start iteration           ....    50
   Auto Start num. interpolation iter.  ....    10
   Max. Number of Micro iterations      ....    24
   Max. Number of Macro iterations      .... Maxiter - #DIIS iter
   Number of Davidson start vectors     ....     2
   Converg. threshold    (grad. norm)   ....   5.000e-05
   Grad. Scal. Fac. for Micro threshold ....   0.100
   Minimum threshold for Micro iter.    ....   1.000e-02
   NR start threshold (gradient norm)   ....   1.000e-04
   Initial trust radius                 ....   0.400
   Minimum AH scaling param. (alpha)    ....   1.000
   Maximum AH scaling param. (alpha)    .... 1000.000
   Quad. conv. algorithm                .... NR
   White noise on init. David. guess    .... on
   Maximum white noise                  ....   0.010
   Pseudo random numbers                .... off
   Inactive MOs                         .... canonical
   Orbital update algorithm             .... Taylor
   Preconditioner                       .... Diag
   Full preconditioner red. dimension   ....   250
 SOSCF                  CNVSOSCF        .... on
   Start iteration      SOSCFMaxIt      ....   150
   Startup grad/error   SOSCFStart      ....  0.003300
   Hessian update       SOSCFHessUp     .... L-BFGS
 Level Shifting         CNVShift        .... on
   Level shift para.    LevelShift      ....    0.2500
   Turn off err/grad.   ShiftErr        ....    0.0010
 Zerner damping         CNVZerner       .... off
 Static damping         CNVDamp         .... on
   Fraction old density DampFac         ....    0.7000
   Max. Damping (<1)    DampMax         ....    0.9800
   Min. Damping (>=0)   DampMin         ....    0.0000
   Turn off err/grad.   DampErr         ....    0.1000

SCF Procedure:
 Maximum # iterations   MaxIter         ....   125
 SCF integral mode      SCFMode         .... Direct
   Integral package                     .... SHARK and LIBINT hybrid scheme
 Reset frequency        DirectResetFreq ....    20
 Integral Threshold     Thresh          ....  1.000e-10 Eh
 Primitive CutOff       TCut            ....  1.000e-11 Eh

Convergence Tolerance:
 Convergence Check Mode ConvCheckMode   .... Total+1el-Energy
 Convergence forced     ConvForced      .... 0
 Energy Change          TolE            ....  1.000e-06 Eh
 1-El. energy change                    ....  1.000e-03 Eh
 Orbital Gradient       TolG            ....  5.000e-05
 Orbital Rotation angle TolX            ....  5.000e-05
 DIIS Error             TolErr          ....  1.000e-06

------------------------------
INITIAL GUESS: MODEL POTENTIAL
------------------------------
Loading Hartree-Fock densities                     ... done
Calculating cut-offs                               ... done
Initializing the effective Hamiltonian             ... done
Setting up the integral package (SHARK)            ... done
Starting the Coulomb interaction                   ... done (   3.7 sec)
Making the grid                                    ... done (   1.7 sec)
Mapping shells                                     ... done
Starting the XC term evaluation                    ... done (   1.4 sec)
  promolecular density results
     # of electrons  =    223.997500314
     EX              =   -186.079824433
     EC              =     -7.653234542
     EX+EC           =   -193.733058975
Transforming the Hamiltonian                       ... done (   0.0 sec)
Diagonalizing the Hamiltonian                      ... done (   0.0 sec)
Back transforming the eigenvectors                 ... done (   0.0 sec)
Now organizing SCF variables                       ... done
                      ------------------
                      INITIAL GUESS DONE (   7.0 sec)
                      ------------------
             **** ENERGY FILE WAS UPDATED (/home/nmrbox/aojoawo/Documents/ERDOS/inputs/CHEMBL3577897.en.tmp) ****
Finished Guess after   7.4 sec
Maximum memory used throughout the entire GUESS-calculation: 61.6 MB

-------------------------------------------------------------------------------------------
                                      ORCA LEAN-SCF
                              memory conserving SCF solver
-------------------------------------------------------------------------------------------

----------------------------------------D-I-I-S--------------------------------------------
Iteration    Energy (Eh)           Delta-E    RMSDP     MaxDP     DIISErr   Damp  Time(sec)
-------------------------------------------------------------------------------------------
               ***  Starting incremental Fock matrix formation  ***
    1    -1412.7792910485618449     0.00e+00  2.15e-03  1.03e-01  2.73e-01  0.700  71.5
    2    -1413.1281936389618750    -3.49e-01  1.42e-03  5.61e-02  1.04e-01  0.700  31.3
                               ***Turning on AO-DIIS***
    3    -1413.2615987313379264    -1.33e-01  6.02e-04  1.60e-02  3.33e-02  0.700  30.7
    4    -1413.3456277802365548    -8.40e-02  9.88e-04  2.70e-02  1.56e-02  0.000  27.6
    5    -1413.5297635290321523    -1.84e-01  2.24e-04  7.45e-03  6.04e-03  0.000  29.7
                              *** Initializing SOSCF ***
---------------------------------------S-O-S-C-F--------------------------------------
Iteration    Energy (Eh)           Delta-E    RMSDP     MaxDP     MaxGrad    Time(sec)
--------------------------------------------------------------------------------------
    6    -1413.5310044114253287    -1.24e-03  7.49e-05  2.77e-03  2.66e-03    25.5
               *** Restarting incremental Fock matrix formation ***
    7    -1413.5310392242658963    -3.48e-05  5.65e-05  3.58e-03  4.41e-04    72.2
    8    -1413.5309893625194491     4.99e-05  3.66e-05  2.84e-03  1.11e-03    40.2
    9    -1413.5310566183829906    -6.73e-05  9.28e-06  4.43e-04  8.84e-05    35.1
   10    -1413.5310551499974281     1.47e-06  6.43e-06  3.54e-04  1.49e-04    28.3
   11    -1413.5310570753276806    -1.93e-06  2.63e-06  9.85e-05  2.70e-05    25.9
   12    -1413.5310570477963665     2.75e-08  1.63e-06  6.58e-05  4.27e-05    21.9
                 **** Energy Check signals convergence ****

               *****************************************************
               *                     SUCCESS                       *
               *           SCF CONVERGED AFTER  12 CYCLES          *
               *****************************************************

Recomputing exchange energy using gridx3       ... done (  124.789 sec)
Old exchange energy                            :    -37.753923607 Eh
New exchange energy                            :    -37.753983713 Eh
Exchange energy change after final integration :     -0.000060106 Eh
Total energy after final integration           :  -1413.531117154 Eh
             **** ENERGY FILE WAS UPDATED (/home/nmrbox/aojoawo/Documents/ERDOS/inputs/CHEMBL3577897.en.tmp) ****

----------------
TOTAL SCF ENERGY
----------------

Total Energy       :      -1413.53111715370642 Eh          -38464.13718 eV

Components:
Nuclear Repulsion  :       3048.73982102389573 Eh           82960.42816 eV
Electronic Energy  :      -4462.27087807169301 Eh         -121424.56370 eV
One Electron Energy:      -7985.80671329493907 Eh         -217304.84823 eV
Two Electron Energy:       3523.53583522324652 Eh           95880.28454 eV

Virial components:
Potential Energy   :      -2818.22133424259209 Eh          -76687.70123 eV
Kinetic Energy     :       1404.69021708888545 Eh           38223.56406 eV
Virial Ratio       :          2.00629384326684

DFT components:
N(Alpha)           :      111.999876843232 electrons
N(Beta)            :      111.999876843232 electrons
N(Total)           :      223.999753686464 electrons
E(X)               :     -150.006667898558 Eh       
E(C)               :       -9.009756731996 Eh       
E(XC)              :     -159.016424630554 Eh       

---------------
SCF CONVERGENCE
---------------

  Last Energy change         ...   -2.7531e-08  Tolerance :   1.0000e-06
  Last MAX-Density change    ...    6.5784e-05  Tolerance :   1.0000e-05
  Last RMS-Density change    ...    1.6278e-06  Tolerance :   1.0000e-06
  Last DIIS Error            ...    2.6618e-03  Tolerance :   1.0000e-06
  Last Orbital Gradient      ...    4.2696e-05  Tolerance :   5.0000e-05
  Last Orbital Rotation      ...    8.5570e-05  Tolerance :   5.0000e-05


----------------
ORBITAL ENERGIES
----------------

  NO   OCC          E(Eh)            E(eV) 
   0   2.0000     -19.186668      -522.0958 
   1   2.0000     -19.146190      -520.9943 
   2   2.0000     -19.126327      -520.4538 
   3   2.0000     -19.123212      -520.3691 
   4   2.0000     -14.348656      -390.4468 
   5   2.0000     -14.327326      -389.8664 
   6   2.0000     -10.323948      -280.9289 
   7   2.0000     -10.293746      -280.1071 
   8   2.0000     -10.235424      -278.5200 
   9   2.0000     -10.228175      -278.3228 
  10   2.0000     -10.226818      -278.2859 
  11   2.0000     -10.225726      -278.2562 
  12   2.0000     -10.223858      -278.2053 
  13   2.0000     -10.213852      -277.9330 
  14   2.0000     -10.211761      -277.8761 
  15   2.0000     -10.207199      -277.7520 
  16   2.0000     -10.204396      -277.6757 
  17   2.0000     -10.201287      -277.5911 
  18   2.0000     -10.200937      -277.5816 
  19   2.0000     -10.200281      -277.5637 
  20   2.0000     -10.199907      -277.5536 
  21   2.0000     -10.197977      -277.5010 
  22   2.0000     -10.197199      -277.4799 
  23   2.0000     -10.197008      -277.4747 
  24   2.0000     -10.195482      -277.4332 
  25   2.0000     -10.192550      -277.3534 
  26   2.0000     -10.189609      -277.2733 
  27   2.0000     -10.187433      -277.2141 
  28   2.0000     -10.186157      -277.1794 
  29   2.0000     -10.185198      -277.1533 
  30   2.0000     -10.184781      -277.1420 
  31   2.0000     -10.184172      -277.1254 
  32   2.0000      -1.070375       -29.1264 
  33   2.0000      -1.025949       -27.9175 
  34   2.0000      -1.019917       -27.7534 
  35   2.0000      -0.984510       -26.7899 
  36   2.0000      -0.938858       -25.5476 
  37   2.0000      -0.923600       -25.1324 
  38   2.0000      -0.870294       -23.6819 
  39   2.0000      -0.852923       -23.2092 
  40   2.0000      -0.852662       -23.2021 
  41   2.0000      -0.818122       -22.2622 
  42   2.0000      -0.791508       -21.5380 
  43   2.0000      -0.772058       -21.0088 
  44   2.0000      -0.768596       -20.9146 
  45   2.0000      -0.761704       -20.7270 
  46   2.0000      -0.746187       -20.3048 
  47   2.0000      -0.744523       -20.2595 
  48   2.0000      -0.719031       -19.5658 
  49   2.0000      -0.696353       -18.9487 
  50   2.0000      -0.665226       -18.1017 
  51   2.0000      -0.659573       -17.9479 
  52   2.0000      -0.644503       -17.5378 
  53   2.0000      -0.630381       -17.1536 
  54   2.0000      -0.618021       -16.8172 
  55   2.0000      -0.610668       -16.6171 
  56   2.0000      -0.607612       -16.5340 
  57   2.0000      -0.588019       -16.0008 
  58   2.0000      -0.585305       -15.9270 
  59   2.0000      -0.560186       -15.2434 
  60   2.0000      -0.536484       -14.5985 
  61   2.0000      -0.531188       -14.4544 
  62   2.0000      -0.523750       -14.2520 
  63   2.0000      -0.520779       -14.1711 
  64   2.0000      -0.517787       -14.0897 
  65   2.0000      -0.500778       -13.6269 
  66   2.0000      -0.499789       -13.5999 
  67   2.0000      -0.488447       -13.2913 
  68   2.0000      -0.474263       -12.9053 
  69   2.0000      -0.467219       -12.7137 
  70   2.0000      -0.465326       -12.6622 
  71   2.0000      -0.456764       -12.4292 
  72   2.0000      -0.451838       -12.2951 
  73   2.0000      -0.450935       -12.2706 
  74   2.0000      -0.444730       -12.1017 
  75   2.0000      -0.441654       -12.0180 
  76   2.0000      -0.439419       -11.9572 
  77   2.0000      -0.432258       -11.7623 
  78   2.0000      -0.430468       -11.7136 
  79   2.0000      -0.427358       -11.6290 
  80   2.0000      -0.422124       -11.4866 
  81   2.0000      -0.418214       -11.3802 
  82   2.0000      -0.414748       -11.2859 
  83   2.0000      -0.409499       -11.1430 
  84   2.0000      -0.403922       -10.9913 
  85   2.0000      -0.394824       -10.7437 
  86   2.0000      -0.388122       -10.5613 
  87   2.0000      -0.382398       -10.4056 
  88   2.0000      -0.373706       -10.1690 
  89   2.0000      -0.367203        -9.9921 
  90   2.0000      -0.365465        -9.9448 
  91   2.0000      -0.362644        -9.8680 
  92   2.0000      -0.360069        -9.7980 
  93   2.0000      -0.357797        -9.7361 
  94   2.0000      -0.353601        -9.6220 
  95   2.0000      -0.348588        -9.4856 
  96   2.0000      -0.343071        -9.3354 
  97   2.0000      -0.338126        -9.2009 
  98   2.0000      -0.330163        -8.9842 
  99   2.0000      -0.307385        -8.3644 
 100   2.0000      -0.306361        -8.3365 
 101   2.0000      -0.279534        -7.6065 
 102   2.0000      -0.269366        -7.3298 
 103   2.0000      -0.265960        -7.2371 
 104   2.0000      -0.263608        -7.1731 
 105   2.0000      -0.260250        -7.0818 
 106   2.0000      -0.257463        -7.0059 
 107   2.0000      -0.251657        -6.8479 
 108   2.0000      -0.249816        -6.7978 
 109   2.0000      -0.241807        -6.5799 
 110   2.0000      -0.231721        -6.3054 
 111   2.0000      -0.221108        -6.0167 
 112   0.0000      -0.073116        -1.9896 
 113   0.0000      -0.058360        -1.5881 
 114   0.0000      -0.041962        -1.1418 
 115   0.0000      -0.016056        -0.4369 
 116   0.0000      -0.006939        -0.1888 
 117   0.0000      -0.002977        -0.0810 
 118   0.0000       0.010959         0.2982 
 119   0.0000       0.020449         0.5565 
 120   0.0000       0.043284         1.1778 
 121   0.0000       0.049270         1.3407 
 122   0.0000       0.063535         1.7289 
*Only the first 10 virtual orbitals were printed.

                    ********************************
                    * MULLIKEN POPULATION ANALYSIS *
                    ********************************

-----------------------
MULLIKEN ATOMIC CHARGES
-----------------------
   0 O :   -0.452591
   1 C :    0.522421
   2 O :   -0.627980
   3 C :    0.084701
   4 C :   -0.151621
   5 C :   -0.135570
   6 C :   -0.166113
   7 C :    0.174366
   8 C :   -0.255745
   9 N :   -0.426228
  10 C :    0.447118
  11 O :   -0.451148
  12 C :    0.052082
  13 C :   -0.007632
  14 N :   -0.431867
  15 C :    0.216004
  16 C :   -0.142829
  17 C :   -0.128369
  18 C :   -0.130473
  19 C :   -0.200216
  20 C :    0.161135
  21 C :   -0.205113
  22 C :   -0.077983
  23 C :   -0.048444
  24 O :   -0.615286
  25 C :    0.161242
  26 C :   -0.184186
  27 C :   -0.123595
  28 C :   -0.124640
  29 C :   -0.125148
  30 C :   -0.176119
  31 C :   -0.219826
  32 H :    0.429659
  33 H :    0.166625
  34 H :    0.143631
  35 H :    0.151298
  36 H :    0.147893
  37 H :    0.194285
  38 H :    0.179415
  39 H :    0.147886
  40 H :    0.139795
  41 H :    0.137432
  42 H :    0.139386
  43 H :    0.165006
  44 H :    0.153895
  45 H :    0.160562
  46 H :    0.119694
  47 H :    0.402309
  48 H :    0.136689
  49 H :    0.132875
  50 H :    0.130540
  51 H :    0.131227
  52 H :    0.125807
  53 H :    0.153745
Sum of atomic charges:   -0.0000000

--------------------------------
MULLIKEN REDUCED ORBITAL CHARGES
--------------------------------
  0 O s       :     3.876230  s :     3.876230
      pz      :     1.548562  p :     4.550877
      px      :     1.650788
      py      :     1.351527
      dz2     :     0.002840  d :     0.025484
      dxz     :     0.000352
      dyz     :     0.008006
      dx2y2   :     0.007306
      dxy     :     0.006979

  1 C s       :     3.002011  s :     3.002011
      pz      :     0.820749  p :     2.365503
      px      :     0.800005
      py      :     0.744748
      dz2     :     0.012496  d :     0.110065
      dxz     :     0.008361
      dyz     :     0.029154
      dx2y2   :     0.023704
      dxy     :     0.036351

  2 O s       :     3.872235  s :     3.872235
      pz      :     1.610161  p :     4.734911
      px      :     1.444212
      py      :     1.680538
      dz2     :     0.001508  d :     0.020833
      dxz     :     0.004496
      dyz     :     0.005171
      dx2y2   :     0.002627
      dxy     :     0.007031

  3 C s       :     3.163150  s :     3.163150
      pz      :     0.951609  p :     2.713840
      px      :     0.921281
      py      :     0.840950
      dz2     :     0.004791  d :     0.038309
      dxz     :     0.005962
      dyz     :     0.008491
      dx2y2   :     0.009531
      dxy     :     0.009534

  4 C s       :     3.213830  s :     3.213830
      pz      :     0.948279  p :     2.901876
      px      :     0.947247
      py      :     1.006350
      dz2     :     0.006814  d :     0.035915
      dxz     :     0.005239
      dyz     :     0.005919
      dx2y2   :     0.010903
      dxy     :     0.007040

  5 C s       :     3.195448  s :     3.195448
      pz      :     0.979595  p :     2.903929
      px      :     0.978626
      py      :     0.945707
      dz2     :     0.004516  d :     0.036193
      dxz     :     0.005310
      dyz     :     0.008577
      dx2y2   :     0.007537
      dxy     :     0.010253

  6 C s       :     3.207901  s :     3.207901
      pz      :     0.975742  p :     2.921935
      px      :     0.981189
      py      :     0.965004
      dz2     :     0.003785  d :     0.036277
      dxz     :     0.006297
      dyz     :     0.008484
      dx2y2   :     0.008319
      dxy     :     0.009392

  7 C s       :     3.126329  s :     3.126329
      pz      :     0.918569  p :     2.659460
      px      :     0.890690
      py      :     0.850202
      dz2     :     0.006516  d :     0.039845
      dxz     :     0.005267
      dyz     :     0.008812
      dx2y2   :     0.010096
      dxy     :     0.009154

  8 C s       :     3.269888  s :     3.269888
      pz      :     1.102277  p :     2.931219
      px      :     0.874314
      py      :     0.954628
      dz2     :     0.011429  d :     0.054638
      dxz     :     0.008050
      dyz     :     0.006079
      dx2y2   :     0.014369
      dxy     :     0.014711

  9 N s       :     3.547982  s :     3.547982
      pz      :     1.103262  p :     3.845879
      px      :     1.110640
      py      :     1.631977
      dz2     :     0.007571  d :     0.032368
      dxz     :     0.010756
      dyz     :     0.004757
      dx2y2   :     0.005107
      dxy     :     0.004178

 10 C s       :     3.059443  s :     3.059443
      pz      :     0.752509  p :     2.393570
      px      :     0.836462
      py      :     0.804598
      dz2     :     0.021921  d :     0.099869
      dxz     :     0.031340
      dyz     :     0.019058
      dx2y2   :     0.013190
      dxy     :     0.014360

 11 O s       :     3.892047  s :     3.892047
      pz      :     1.430961  p :     4.533571
      px      :     1.756648
      py      :     1.345963
      dz2     :     0.007997  d :     0.025530
      dxz     :     0.004985
      dyz     :     0.007552
      dx2y2   :     0.003007
      dxy     :     0.001989

 12 C s       :     3.173954  s :     3.173954
      pz      :     0.947544  p :     2.736211
      px      :     0.874615
      py      :     0.914052
      dz2     :     0.005908  d :     0.037753
      dxz     :     0.006574
      dyz     :     0.005382
      dx2y2   :     0.010051
      dxy     :     0.009838

 13 C s       :     3.173273  s :     3.173273
      pz      :     0.925308  p :     2.781342
      px      :     0.894593
      py      :     0.961440
      dz2     :     0.004769  d :     0.053017
      dxz     :     0.011668
      dyz     :     0.006735
      dx2y2   :     0.015571
      dxy     :     0.014275

 14 N s       :     3.693792  s :     3.693792
      pz      :     1.188646  p :     3.702114
      px      :     1.319675
      py      :     1.193793
      dz2     :     0.005772  d :     0.035962
      dxz     :     0.006191
      dyz     :     0.006886
      dx2y2   :     0.011057
      dxy     :     0.006055

 15 C s       :     3.074651  s :     3.074651
      pz      :     0.906403  p :     2.649103
      px      :     0.884136
      py      :     0.858563
      dz2     :     0.007838  d :     0.060242
      dxz     :     0.011628
      dyz     :     0.009509
      dx2y2   :     0.014666
      dxy     :     0.016601

 16 C s       :     3.208294  s :     3.208294
      pz      :     0.965551  p :     2.899873
      px      :     0.985943
      py      :     0.948378
      dz2     :     0.004459  d :     0.034662
      dxz     :     0.006990
      dyz     :     0.004871
      dx2y2   :     0.008483
      dxy     :     0.009860

 17 C s       :     3.200762  s :     3.200762
      pz      :     0.961138  p :     2.891196
      px      :     0.973596
      py      :     0.956462
      dz2     :     0.006238  d :     0.036411
      dxz     :     0.005370
      dyz     :     0.005168
      dx2y2   :     0.010624
      dxy     :     0.009010

 18 C s       :     3.197002  s :     3.197002
      pz      :     0.979710  p :     2.897380
      px      :     0.937041
      py      :     0.980629
      dz2     :     0.003307  d :     0.036091
      dxz     :     0.007512
      dyz     :     0.006160
      dx2y2   :     0.009928
      dxy     :     0.009184

 19 C s       :     3.209555  s :     3.209555
      pz      :     0.991545  p :     2.954463
      px      :     0.973884
      py      :     0.989035
      dz2     :     0.004041  d :     0.036198
      dxz     :     0.007700
      dyz     :     0.005298
      dx2y2   :     0.008460
      dxy     :     0.010699

 20 C s       :     3.117275  s :     3.117275
      pz      :     0.935115  p :     2.680027
      px      :     0.839994
      py      :     0.904919
      dz2     :     0.006141  d :     0.041563
      dxz     :     0.008112
      dyz     :     0.005657
      dx2y2   :     0.010601
      dxy     :     0.011053

 21 C s       :     3.228515  s :     3.228515
      pz      :     0.950233  p :     2.939873
      px      :     1.001715
      py      :     0.987925
      dz2     :     0.004617  d :     0.036725
      dxz     :     0.007532
      dyz     :     0.005067
      dx2y2   :     0.008904
      dxy     :     0.010605

 22 C s       :     3.214329  s :     3.214329
      pz      :     0.789206  p :     2.805345
      px      :     1.051413
      py      :     0.964726
      dz2     :     0.015006  d :     0.058308
      dxz     :     0.009010
      dyz     :     0.014277
      dx2y2   :     0.013114
      dxy     :     0.006902

 23 C s       :     3.199721  s :     3.199721
      pz      :     0.745786  p :     2.781717
      px      :     0.967881
      py      :     1.068050
      dz2     :     0.021738  d :     0.067006
      dxz     :     0.015920
      dyz     :     0.010345
      dx2y2   :     0.014480
      dxy     :     0.004522

 24 O s       :     3.879093  s :     3.879093
      pz      :     1.440446  p :     4.708987
      px      :     1.811157
      py      :     1.457383
      dz2     :     0.008837  d :     0.027207
      dxz     :     0.005226
      dyz     :     0.002533
      dx2y2   :     0.005550
      dxy     :     0.005061

 25 C s       :     3.137323  s :     3.137323
      pz      :     0.952062  p :     2.661860
      px      :     0.850290
      py      :     0.859508
      dz2     :     0.003929  d :     0.039575
      dxz     :     0.005989
      dyz     :     0.004874
      dx2y2   :     0.012351
      dxy     :     0.012432

 26 C s       :     3.200538  s :     3.200538
      pz      :     1.001092  p :     2.947694
      px      :     0.980795
      py      :     0.965807
      dz2     :     0.003337  d :     0.035954
      dxz     :     0.003761
      dyz     :     0.005671
      dx2y2   :     0.010249
      dxy     :     0.012936

 27 C s       :     3.189642  s :     3.189642
      pz      :     0.982862  p :     2.897811
      px      :     0.967880
      py      :     0.947069
      dz2     :     0.003199  d :     0.036141
      dxz     :     0.003923
      dyz     :     0.005833
      dx2y2   :     0.010586
      dxy     :     0.012600

 28 C s       :     3.185671  s :     3.185671
      pz      :     0.984241  p :     2.902852
      px      :     0.939665
      py      :     0.978946
      dz2     :     0.004186  d :     0.036118
      dxz     :     0.005815
      dyz     :     0.002654
      dx2y2   :     0.014105
      dxy     :     0.009357

 29 C s       :     3.188760  s :     3.188760
      pz      :     0.984332  p :     2.900125
      px      :     0.969671
      py      :     0.946122
      dz2     :     0.003424  d :     0.036264
      dxz     :     0.003776
      dyz     :     0.005731
      dx2y2   :     0.010322
      dxy     :     0.013011

 30 C s       :     3.197345  s :     3.197345
      pz      :     1.003983  p :     2.942927
      px      :     0.972087
      py      :     0.966857
      dz2     :     0.003300  d :     0.035847
      dxz     :     0.003700
      dyz     :     0.005872
      dx2y2   :     0.010418
      dxy     :     0.012558

 31 C s       :     3.229514  s :     3.229514
      pz      :     0.976689  p :     2.954482
      px      :     0.972698
      py      :     1.005095
      dz2     :     0.004568  d :     0.035829
      dxz     :     0.005156
      dyz     :     0.008346
      dx2y2   :     0.007657
      dxy     :     0.010102

 32 H s       :     0.570341  s :     0.570341

 33 H s       :     0.833375  s :     0.833375

 34 H s       :     0.856369  s :     0.856369

 35 H s       :     0.848702  s :     0.848702

 36 H s       :     0.852107  s :     0.852107

 37 H s       :     0.805715  s :     0.805715

 38 H s       :     0.820585  s :     0.820585

 39 H s       :     0.852114  s :     0.852114

 40 H s       :     0.860205  s :     0.860205

 41 H s       :     0.862568  s :     0.862568

 42 H s       :     0.860614  s :     0.860614

 43 H s       :     0.834994  s :     0.834994

 44 H s       :     0.846105  s :     0.846105

 45 H s       :     0.839438  s :     0.839438

 46 H s       :     0.880306  s :     0.880306

 47 H s       :     0.597691  s :     0.597691

 48 H s       :     0.863311  s :     0.863311

 49 H s       :     0.867125  s :     0.867125

 50 H s       :     0.869460  s :     0.869460

 51 H s       :     0.868773  s :     0.868773

 52 H s       :     0.874193  s :     0.874193

 53 H s       :     0.846255  s :     0.846255



                     *******************************
                     * LOEWDIN POPULATION ANALYSIS *
                     *******************************

----------------------
LOEWDIN ATOMIC CHARGES
----------------------
   0 O :   -0.268648
   1 C :    0.179758
   2 O :   -0.340622
   3 C :   -0.055726
   4 C :   -0.092617
   5 C :   -0.127618
   6 C :   -0.112559
   7 C :   -0.031209
   8 C :   -0.148169
   9 N :   -0.122893
  10 C :    0.142158
  11 O :   -0.251653
  12 C :   -0.077161
  13 C :   -0.037752
  14 N :   -0.126929
  15 C :    0.020112
  16 C :   -0.114964
  17 C :   -0.116220
  18 C :   -0.127081
  19 C :   -0.116002
  20 C :   -0.032123
  21 C :   -0.081234
  22 C :   -0.068611
  23 C :   -0.110466
  24 O :   -0.395313
  25 C :   -0.031428
  26 C :   -0.133308
  27 C :   -0.125158
  28 C :   -0.128587
  29 C :   -0.125449
  30 C :   -0.132307
  31 C :   -0.113052
  32 H :    0.346319
  33 H :    0.153156
  34 H :    0.139026
  35 H :    0.141271
  36 H :    0.122353
  37 H :    0.154272
  38 H :    0.152187
  39 H :    0.146134
  40 H :    0.137622
  41 H :    0.136149
  42 H :    0.136340
  43 H :    0.147099
  44 H :    0.134284
  45 H :    0.129152
  46 H :    0.102745
  47 H :    0.318855
  48 H :    0.134739
  49 H :    0.133540
  50 H :    0.132563
  51 H :    0.132762
  52 H :    0.128696
  53 H :    0.143570

-------------------------------
LOEWDIN REDUCED ORBITAL CHARGES
-------------------------------
  0 O s       :     3.592137  s :     3.592137
      pz      :     1.542811  p :     4.626761
      px      :     1.641899
      py      :     1.442052
      dz2     :     0.006477  d :     0.049750
      dxz     :     0.000459
      dyz     :     0.012921
      dx2y2   :     0.018738
      dxy     :     0.011155

  1 C s       :     2.865257  s :     2.865257
      pz      :     0.862147  p :     2.702854
      px      :     0.878891
      py      :     0.961816
      dz2     :     0.027857  d :     0.252131
      dxz     :     0.018603
      dyz     :     0.064540
      dx2y2   :     0.057207
      dxy     :     0.083925

  2 O s       :     3.541419  s :     3.541419
      pz      :     1.609219  p :     4.757530
      px      :     1.458176
      py      :     1.690136
      dz2     :     0.003429  d :     0.041673
      dxz     :     0.009281
      dyz     :     0.008960
      dx2y2   :     0.005834
      dxy     :     0.014169

  3 C s       :     2.877467  s :     2.877467
      pz      :     1.006248  p :     3.078360
      px      :     1.011934
      py      :     1.060178
      dz2     :     0.011316  d :     0.099899
      dxz     :     0.014501
      dyz     :     0.021880
      dx2y2   :     0.026450
      dxy     :     0.025751

  4 C s       :     2.919627  s :     2.919627
      pz      :     0.992497  p :     3.089490
      px      :     1.007928
      py      :     1.089066
      dz2     :     0.014139  d :     0.083499
      dxz     :     0.014153
      dyz     :     0.013981
      dx2y2   :     0.023666
      dxy     :     0.017561

  5 C s       :     2.916832  s :     2.916832
      pz      :     1.019253  p :     3.125437
      px      :     1.034216
      py      :     1.071968
      dz2     :     0.010052  d :     0.085348
      dxz     :     0.011042
      dyz     :     0.020389
      dx2y2   :     0.019813
      dxy     :     0.024052

  6 C s       :     2.920106  s :     2.920106
      pz      :     1.011255  p :     3.107820
      px      :     1.026888
      py      :     1.069677
      dz2     :     0.008648  d :     0.084633
      dxz     :     0.011297
      dyz     :     0.019953
      dx2y2   :     0.021862
      dxy     :     0.022873

  7 C s       :     2.883620  s :     2.883620
      pz      :     0.999007  p :     3.047355
      px      :     1.017009
      py      :     1.031339
      dz2     :     0.014639  d :     0.100234
      dxz     :     0.014335
      dyz     :     0.021483
      dx2y2   :     0.026494
      dxy     :     0.023282

  8 C s       :     2.920839  s :     2.920839
      pz      :     1.122231  p :     3.112065
      px      :     0.959391
      py      :     1.030443
      dz2     :     0.022800  d :     0.115266
      dxz     :     0.016719
      dyz     :     0.011735
      dx2y2   :     0.033997
      dxy     :     0.030015

  9 N s       :     3.115293  s :     3.115293
      pz      :     1.163682  p :     3.925817
      px      :     1.187801
      py      :     1.574334
      dz2     :     0.020079  d :     0.081782
      dxz     :     0.029848
      dyz     :     0.010911
      dx2y2   :     0.011512
      dxy     :     0.009433

 10 C s       :     2.867039  s :     2.867039
      pz      :     0.930466  p :     2.757798
      px      :     0.972460
      py      :     0.854873
      dz2     :     0.051125  d :     0.233004
      dxz     :     0.075470
      dyz     :     0.044823
      dx2y2   :     0.028767
      dxy     :     0.032818

 11 O s       :     3.590306  s :     3.590306
      pz      :     1.489155  p :     4.610934
      px      :     1.753290
      py      :     1.368489
      dz2     :     0.015547  d :     0.050414
      dxz     :     0.009750
      dyz     :     0.016660
      dx2y2   :     0.004567
      dxy     :     0.003890

 12 C s       :     2.886575  s :     2.886575
      pz      :     1.015254  p :     3.091108
      px      :     1.033232
      py      :     1.042622
      dz2     :     0.013402  d :     0.099479
      dxz     :     0.016804
      dyz     :     0.014475
      dx2y2   :     0.028121
      dxy     :     0.026676

 13 C s       :     2.919886  s :     2.919886
      pz      :     0.964242  p :     2.996585
      px      :     1.005846
      py      :     1.026497
      dz2     :     0.010628  d :     0.121281
      dxz     :     0.026734
      dyz     :     0.011524
      dx2y2   :     0.038376
      dxy     :     0.034019

 14 N s       :     3.240546  s :     3.240546
      pz      :     1.195114  p :     3.807090
      px      :     1.379346
      py      :     1.232630
      dz2     :     0.011471  d :     0.079294
      dxz     :     0.012324
      dyz     :     0.014646
      dx2y2   :     0.025417
      dxy     :     0.015436

 15 C s       :     2.846868  s :     2.846868
      pz      :     0.957963  p :     2.983968
      px      :     1.051121
      py      :     0.974884
      dz2     :     0.016630  d :     0.149052
      dxz     :     0.028107
      dyz     :     0.023912
      dx2y2   :     0.037770
      dxy     :     0.042634

 16 C s       :     2.922102  s :     2.922102
      pz      :     1.007793  p :     3.110994
      px      :     1.065136
      py      :     1.038065
      dz2     :     0.009188  d :     0.081868
      dxz     :     0.015746
      dyz     :     0.011406
      dx2y2   :     0.021670
      dxy     :     0.023859

 17 C s       :     2.920407  s :     2.920407
      pz      :     0.998653  p :     3.110696
      px      :     1.075386
      py      :     1.036658
      dz2     :     0.012630  d :     0.085116
      dxz     :     0.012644
      dyz     :     0.013571
      dx2y2   :     0.024364
      dxy     :     0.021907

 18 C s       :     2.918956  s :     2.918956
      pz      :     1.009672  p :     3.123338
      px      :     1.070429
      py      :     1.043237
      dz2     :     0.007370  d :     0.084788
      dxz     :     0.018122
      dyz     :     0.010797
      dx2y2   :     0.025393
      dxy     :     0.023106

 19 C s       :     2.917952  s :     2.917952
      pz      :     1.007028  p :     3.113637
      px      :     1.075001
      py      :     1.031608
      dz2     :     0.008788  d :     0.084413
      dxz     :     0.016918
      dyz     :     0.011432
      dx2y2   :     0.021596
      dxy     :     0.025678

 20 C s       :     2.856716  s :     2.856716
      pz      :     0.992917  p :     3.066376
      px      :     1.050211
      py      :     1.023248
      dz2     :     0.013835  d :     0.109031
      dxz     :     0.020185
      dyz     :     0.015056
      dx2y2   :     0.030228
      dxy     :     0.029727

 21 C s       :     2.922343  s :     2.922343
      pz      :     0.970720  p :     3.074262
      px      :     1.073700
      py      :     1.029842
      dz2     :     0.009326  d :     0.084630
      dxz     :     0.016659
      dyz     :     0.011417
      dx2y2   :     0.021961
      dxy     :     0.025266

 22 C s       :     2.898706  s :     2.898706
      pz      :     0.917936  p :     3.040457
      px      :     1.091953
      py      :     1.030568
      dz2     :     0.034469  d :     0.129447
      dxz     :     0.020598
      dyz     :     0.030526
      dx2y2   :     0.029861
      dxy     :     0.013995

 23 C s       :     2.933830  s :     2.933830
      pz      :     0.878431  p :     3.031752
      px      :     1.055787
      py      :     1.097535
      dz2     :     0.047048  d :     0.144883
      dxz     :     0.038257
      dyz     :     0.023029
      dx2y2   :     0.027934
      dxy     :     0.008615

 24 O s       :     3.562845  s :     3.562845
      pz      :     1.484863  p :     4.781679
      px      :     1.820734
      py      :     1.476082
      dz2     :     0.017588  d :     0.050790
      dxz     :     0.010102
      dyz     :     0.007207
      dx2y2   :     0.008854
      dxy     :     0.007039

 25 C s       :     2.885721  s :     2.885721
      pz      :     0.965330  p :     3.046606
      px      :     1.058567
      py      :     1.022709
      dz2     :     0.008216  d :     0.099102
      dxz     :     0.013787
      dyz     :     0.010067
      dx2y2   :     0.034224
      dxy     :     0.032807

 26 C s       :     2.919694  s :     2.919694
      pz      :     0.998293  p :     3.129524
      px      :     1.061275
      py      :     1.069956
      dz2     :     0.006306  d :     0.084091
      dxz     :     0.007017
      dyz     :     0.012357
      dx2y2   :     0.026856
      dxy     :     0.031554

 27 C s       :     2.918440  s :     2.918440
      pz      :     0.984116  p :     3.121584
      px      :     1.065047
      py      :     1.072422
      dz2     :     0.006138  d :     0.085135
      dxz     :     0.007411
      dyz     :     0.012946
      dx2y2   :     0.027496
      dxy     :     0.031144

 28 C s       :     2.917771  s :     2.917771
      pz      :     0.988714  p :     3.125863
      px      :     1.063797
      py      :     1.073352
      dz2     :     0.007732  d :     0.084953
      dxz     :     0.013668
      dyz     :     0.005180
      dx2y2   :     0.033329
      dxy     :     0.025044

 29 C s       :     2.917330  s :     2.917330
      pz      :     0.985605  p :     3.122749
      px      :     1.066610
      py      :     1.070533
      dz2     :     0.006476  d :     0.085371
      dxz     :     0.007366
      dyz     :     0.012697
      dx2y2   :     0.027064
      dxy     :     0.031767

 30 C s       :     2.916038  s :     2.916038
      pz      :     1.001830  p :     3.132269
      px      :     1.062258
      py      :     1.068180
      dz2     :     0.006241  d :     0.084000
      dxz     :     0.006843
      dyz     :     0.012718
      dx2y2   :     0.027170
      dxy     :     0.031029

 31 C s       :     2.921243  s :     2.921243
      pz      :     1.011590  p :     3.108542
      px      :     1.030569
      py      :     1.066383
      dz2     :     0.009743  d :     0.083267
      dxz     :     0.010608
      dyz     :     0.019700
      dx2y2   :     0.019454
      dxy     :     0.023762

 32 H s       :     0.653681  s :     0.653681

 33 H s       :     0.846844  s :     0.846844

 34 H s       :     0.860974  s :     0.860974

 35 H s       :     0.858729  s :     0.858729

 36 H s       :     0.877647  s :     0.877647

 37 H s       :     0.845728  s :     0.845728

 38 H s       :     0.847813  s :     0.847813

 39 H s       :     0.853866  s :     0.853866

 40 H s       :     0.862378  s :     0.862378

 41 H s       :     0.863851  s :     0.863851

 42 H s       :     0.863660  s :     0.863660

 43 H s       :     0.852901  s :     0.852901

 44 H s       :     0.865716  s :     0.865716

 45 H s       :     0.870848  s :     0.870848

 46 H s       :     0.897255  s :     0.897255

 47 H s       :     0.681145  s :     0.681145

 48 H s       :     0.865261  s :     0.865261

 49 H s       :     0.866460  s :     0.866460

 50 H s       :     0.867437  s :     0.867437

 51 H s       :     0.867238  s :     0.867238

 52 H s       :     0.871304  s :     0.871304

 53 H s       :     0.856430  s :     0.856430



                      *****************************
                      * MAYER POPULATION ANALYSIS *
                      *****************************

  NA   - Mulliken gross atomic population
  ZA   - Total nuclear charge
  QA   - Mulliken gross atomic charge
  VA   - Mayer's total valence
  BVA  - Mayer's bonded valence
  FA   - Mayer's free valence

  ATOM       NA         ZA         QA         VA         BVA        FA
  0 O      8.4526     8.0000    -0.4526     2.0621     2.0621    -0.0000
  1 C      5.4776     6.0000     0.5224     3.9480     3.9480    -0.0000
  2 O      8.6280     8.0000    -0.6280     1.8603     1.8603     0.0000
  3 C      5.9153     6.0000     0.0847     3.9142     3.9142    -0.0000
  4 C      6.1516     6.0000    -0.1516     3.9198     3.9198    -0.0000
  5 C      6.1356     6.0000    -0.1356     3.9150     3.9150     0.0000
  6 C      6.1661     6.0000    -0.1661     3.9185     3.9185     0.0000
  7 C      5.8256     6.0000     0.1744     3.8703     3.8703    -0.0000
  8 C      6.2557     6.0000    -0.2557     3.8244     3.8244    -0.0000
  9 N      7.4262     7.0000    -0.4262     2.9458     2.9458    -0.0000
 10 C      5.5529     6.0000     0.4471     3.9350     3.9350     0.0000
 11 O      8.4511     8.0000    -0.4511     2.0487     2.0487     0.0000
 12 C      5.9479     6.0000     0.0521     3.8307     3.8307    -0.0000
 13 C      6.0076     6.0000    -0.0076     3.8750     3.8750    -0.0000
 14 N      7.4319     7.0000    -0.4319     2.9504     2.9504     0.0000
 15 C      5.7840     6.0000     0.2160     3.9744     3.9744    -0.0000
 16 C      6.1428     6.0000    -0.1428     3.8837     3.8837     0.0000
 17 C      6.1284     6.0000    -0.1284     3.9228     3.9228    -0.0000
 18 C      6.1305     6.0000    -0.1305     3.9235     3.9235     0.0000
 19 C      6.2002     6.0000    -0.2002     3.8992     3.8992     0.0000
 20 C      5.8389     6.0000     0.1611     3.9644     3.9644     0.0000
 21 C      6.2051     6.0000    -0.2051     3.8238     3.8238     0.0000
 22 C      6.0780     6.0000    -0.0780     3.8203     3.8203    -0.0000
 23 C      6.0484     6.0000    -0.0484     3.8077     3.8077    -0.0000
 24 O      8.6153     8.0000    -0.6153     1.8118     1.8118    -0.0000
 25 C      5.8388     6.0000     0.1612     3.8888     3.8888     0.0000
 26 C      6.1842     6.0000    -0.1842     3.9428     3.9428     0.0000
 27 C      6.1236     6.0000    -0.1236     3.9424     3.9424    -0.0000
 28 C      6.1246     6.0000    -0.1246     3.9487     3.9487    -0.0000
 29 C      6.1251     6.0000    -0.1251     3.9510     3.9510    -0.0000
 30 C      6.1761     6.0000    -0.1761     3.9261     3.9261     0.0000
 31 C      6.2198     6.0000    -0.2198     3.8837     3.8837     0.0000
 32 H      0.5703     1.0000     0.4297     0.7993     0.7993     0.0000
 33 H      0.8334     1.0000     0.1666     0.9415     0.9415     0.0000
 34 H      0.8564     1.0000     0.1436     0.9355     0.9355    -0.0000
 35 H      0.8487     1.0000     0.1513     0.9396     0.9396    -0.0000
 36 H      0.8521     1.0000     0.1479     0.9365     0.9365    -0.0000
 37 H      0.8057     1.0000     0.1943     0.9335     0.9335    -0.0000
 38 H      0.8206     1.0000     0.1794     0.9360     0.9360     0.0000
 39 H      0.8521     1.0000     0.1479     0.9413     0.9413     0.0000
 40 H      0.8602     1.0000     0.1398     0.9356     0.9356    -0.0000
 41 H      0.8626     1.0000     0.1374     0.9366     0.9366     0.0000
 42 H      0.8606     1.0000     0.1394     0.9368     0.9368     0.0000
 43 H      0.8350     1.0000     0.1650     0.9422     0.9422     0.0000
 44 H      0.8461     1.0000     0.1539     0.9393     0.9393     0.0000
 45 H      0.8394     1.0000     0.1606     0.9381     0.9381    -0.0000
 46 H      0.8803     1.0000     0.1197     0.9394     0.9394    -0.0000
 47 H      0.5977     1.0000     0.4023     0.8089     0.8089     0.0000
 48 H      0.8633     1.0000     0.1367     0.9384     0.9384     0.0000
 49 H      0.8671     1.0000     0.1329     0.9362     0.9362    -0.0000
 50 H      0.8695     1.0000     0.1305     0.9362     0.9362     0.0000
 51 H      0.8688     1.0000     0.1312     0.9363     0.9363    -0.0000
 52 H      0.8742     1.0000     0.1258     0.9395     0.9395    -0.0000
 53 H      0.8463     1.0000     0.1537     0.9453     0.9453    -0.0000

  Mayer bond orders larger than 0.100000
B(  0-O ,  1-C ) :   1.8594 B(  1-C ,  2-O ) :   1.0147 B(  1-C ,  3-C ) :   1.0102 
B(  2-O , 32-H ) :   0.7446 B(  3-C ,  4-C ) :   1.4125 B(  3-C , 31-C ) :   1.3638 
B(  4-C ,  5-C ) :   1.4253 B(  4-C , 33-H ) :   0.9122 B(  5-C ,  6-C ) :   1.4311 
B(  5-C , 34-H ) :   0.9279 B(  6-C ,  7-C ) :   1.4166 B(  6-C , 35-H ) :   0.9169 
B(  7-C ,  8-C ) :   0.9404 B(  7-C , 31-C ) :   1.4069 B(  8-C ,  9-N ) :   0.9459 
B(  8-C , 36-H ) :   0.9238 B(  8-C , 37-H ) :   0.9112 B(  9-N , 10-C ) :   1.0113 
B(  9-N , 22-C ) :   0.9307 B( 10-C , 11-O ) :   1.8324 B( 10-C , 12-C ) :   0.9715 
B( 12-C , 13-C ) :   1.2661 B( 12-C , 21-C ) :   1.4276 B( 13-C , 14-N ) :   1.5036 
B( 13-C , 38-H ) :   0.9169 B( 14-N , 15-C ) :   1.2458 B( 15-C , 16-C ) :   1.3121 
B( 15-C , 20-C ) :   1.2502 B( 16-C , 17-C ) :   1.5117 B( 16-C , 19-C ) :   0.1063 
B( 16-C , 39-H ) :   0.9168 B( 17-C , 18-C ) :   1.3469 B( 17-C , 40-H ) :   0.9289 
B( 18-C , 19-C ) :   1.5152 B( 18-C , 41-H ) :   0.9293 B( 19-C , 20-C ) :   1.2779 
B( 19-C , 42-H ) :   0.9237 B( 20-C , 21-C ) :   1.2783 B( 21-C , 43-H ) :   0.9038 
B( 22-C , 23-C ) :   0.9502 B( 22-C , 25-C ) :   0.9413 B( 22-C , 44-H ) :   0.9037 
B( 23-C , 24-O ) :   0.9785 B( 23-C , 45-H ) :   0.9214 B( 23-C , 46-H ) :   0.9267 
B( 24-O , 47-H ) :   0.7795 B( 25-C , 26-C ) :   1.4276 B( 25-C , 30-C ) :   1.4105 
B( 26-C , 27-C ) :   1.4347 B( 26-C , 48-H ) :   0.9216 B( 27-C , 28-C ) :   1.4585 
B( 27-C , 49-H ) :   0.9288 B( 28-C , 29-C ) :   1.4484 B( 28-C , 50-H ) :   0.9299 
B( 29-C , 30-C ) :   1.4482 B( 29-C , 51-H ) :   0.9295 B( 30-C , 52-H ) :   0.9215 
B( 31-C , 53-H ) :   0.9093 

-------
TIMINGS
-------

Total SCF time: 0 days 0 hours 9 min 25 sec 

Total time                  ....     565.213 sec
Sum of individual times     ....     564.839 sec  ( 99.9%)

SCF preparation             ....       0.390 sec  (  0.1%)
Fock matrix formation       ....     562.196 sec  ( 99.5%)
  Startup                   ....       0.087 sec  (  0.0% of F)
  Split-RI-J                ....      72.262 sec  ( 12.9% of F)
  Chain of spheres X        ....     439.735 sec  ( 78.2% of F)
  XC integration            ....      49.187 sec  (  8.7% of F)
    XC Preparation          ....       0.000 sec  (  0.0% of XC)
    Basis function eval.    ....      19.553 sec  ( 39.8% of XC)
    Density eval.           ....      12.601 sec  ( 25.6% of XC)
    XC-Functional eval.     ....       2.367 sec  (  4.8% of XC)
    XC-Potential eval.      ....      12.770 sec  ( 26.0% of XC)
Diagonalization             ....       0.000 sec  (  0.0%)
Density matrix formation    ....       0.439 sec  (  0.1%)
Total Energy calculation    ....       0.076 sec  (  0.0%)
Population analysis         ....       0.079 sec  (  0.0%)
Orbital Transformation      ....       0.195 sec  (  0.0%)
Orbital Orthonormalization  ....       0.000 sec  (  0.0%)
DIIS solution               ....       0.861 sec  (  0.2%)
SOSCF solution              ....       0.603 sec  (  0.1%)
Finished LeanSCF after 565.3 sec

Maximum memory used throughout the entire LEANSCF-calculation: 86.3 MB

-------------------------   --------------------
FINAL SINGLE POINT ENERGY     -1413.531117153706
-------------------------   --------------------


------------------------------------------------------------------------------
                              ORCA PROPERTY CALCULATIONS
------------------------------------------------------------------------------

GBWName                                 ... /home/nmrbox/aojoawo/Documents/ERDOS/inputs/CHEMBL3577897.gbw
Number of atoms                         ...     54
Number of basis functions               ...    492
Max core memory                         ...   1024 MB

Electric properties:
Dipole moment                           ... YES
Quadrupole moment                       ...  NO
Static polarizability (Dipole/Dipole)   ...  NO
Static polarizability (Dipole/Quad.)    ...  NO
Static polarizability (Quad./Quad.)     ...  NO
Static polarizability (Velocity)        ...  NO

Atomic electric properties:
Dipole moment                           ...  NO
Quadrupole moment                       ...  NO
Static polarizability                   ...  NO

Choice of electric origin               ... Center of mass
Position of electric origin             ...    -0.098312    -0.278222     0.032030

General magnetic properties:
Magnetizability                         ...  NO

EPR properties:
g-Tensor (aka g-matrix)                 ...  NO
Zero-Field splitting spin-orbit         ...  NO
Zero-field splitting spin-spin          ...  NO
Hyperfine couplings                     ...  NO (   0 nuclei)
Quadrupole couplings                    ...  NO (   0 nuclei)
Contact density                         ...  NO (   0 nuclei)

NMR properties:
Chemical shifts                         ...  NO (   0 nuclei)
Spin-rotation constants                 ...  NO (   0 nuclei)
Spin-spin couplings                     ...  NO (   0 nuclei,    0 pairs)

Choice of magnetic origin               ... GIAO
Position of magnetic origin             ...     0.000000     0.000000     0.000000

Properties with geometric perturbations:
SCF Hessian                             ...  NO
IR spectrum                             ...  NO
VCD spectrum                            ...  NO
X-ray spectroscopy properties:
SCF XES/XAS/RIXS spectra                ...  NO


-------------
DIPOLE MOMENT
-------------

Method             : SCF
Type of density    : Electron Density
Multiplicity       :   1
Irrep              :   0
Energy             : -1413.5311171537064183 Eh
Relativity type    : 
Basis              : AO
                                X                 Y                 Z
Electronic contribution:      0.016315145      -6.539941346      -5.093148412
Nuclear contribution   :     -0.265819267       6.757966140       6.017904944
                        -----------------------------------------
Total Dipole Moment    :     -0.249504121       0.218024794       0.924756532
                        -----------------------------------------
Magnitude (a.u.)       :      0.982324671
Magnitude (Debye)      :      2.496870885



--------------------
Rotational spectrum 
--------------------
 
Rotational constants in cm-1:             0.004857             0.003489             0.002404 
Rotational constants in MHz :           145.617692           104.595425            72.055882 

Dipole components along the rotational axes: 
x,y,z [a.u.] :     0.247765     0.456222     0.833928 
x,y,z [Debye]:     0.629769     1.159624     2.119676 

 

Dipole moment calculation done in   0.0 sec 

Maximum memory used throughout the entire PROP-calculation: 41.8 MB

--------------------------------
SUGGESTED CITATIONS FOR THIS RUN
--------------------------------

Below you find a list of papers that are relevant to this ORCA run
We neither can nor want to force you to cite these papers, but we appreciate if you do
You receive ORCA, which is the product of decades of hard work by many enthusiastic individuals, for free
The only thing we kindly ask in return is that you cite our papers,
We deeply appreciate it, if you show your appreciation for ORCA by not just citing the generic ORCA reference.

Please note that relegating all ORCA citations to the supporting information does *not* help us.
SI sections are not indexed - citations you put there will not count into any citation statistics
But we need these citations in order to attract the funding resources that allow us to do what we are doing

Therefore, if you are a happy ORCA user, please consider citing a few of the papers listed below in the main body of your paper

In addition to the list printed below, the program has created the file /home/nmrbox/aojoawo/Documents/ERDOS/inputs/CHEMBL3577897.bibtex that contains the list in bibtex format
You can import this file easily into all common literature databanks and citation aid programs


List of essential papers. We consider these as the minimum necessary citations

  1. Neese,F.
     Software update: the ORCA program system, version 5.0
     WIRES Comput. Molec. Sci., 2022 12(1)e1606
     doi.org/10.1002/wcms.1606

List of papers to cite with high priority. The work reported in these papers was absolutely
necessary for this run to complete.
Our perspective: the developers of density functionals and basis sets usually get cited in chemistry papers
Good! But without the algorithms to do something with them, the functionals or basis sets would not do anything.
Hence, in our opinion, the algorithm design and method developments papers are equally worthy of getting cited

  1. Neese,F.
     An improvement of the resolution of the identity approximation for the formation of the Coulomb matrix
     J. Comp. Chem., 2003 24(14)1740-1747
     doi.org/10.1002/jcc.10318
  2. Neese,F.; Wennmohs,F.; Hansen,A.; Becker,U.
     Efficient, approximate and parallel Hartree-Fock and hybrid DFT calculations. A 'chain-of-spheres' algorithm for the Hartree-Fock exchange
     Chem. Phys., 2009 356(1-3)98-109
     doi.org/10.1016/j.chemphys.2008.10.036
  3. Helmich-Paris,B.; de Souza,B.; Neese,F.; Izsák,R.
     An improved chain of spheres for exchange algorithm
     J. Chem. Phys., 2021 155 104109
     doi.org/doi: 10.1063/5.0058766.
  4. Neese,F.
     The SHARK Integral Generation and Digestion System
     J. Comp. Chem., 2022  1-16
     doi.org/10.1002/jcc.26942

List of suggested additional citations. These are papers that are important in the 'surrounding' of 
of this run, or papers that preceded the highly important papers. If you like your results we are grateful for a citation.

  1. Izsak,R.; Neese,F.
     An overlap fitted chain of spheres exchange method
     J. Chem. Phys., 2011 135 144105
     doi.org/10.1063/1.3646921
  2. Izsak,R.; Hansen,A.; Neese,F.
     The resolution of identity and chain of spheres approximations for the LPNO-CCSD singles Fock term
     Molec. Phys., 2012 110 2413-2417
     doi.org/10.1080/00268976.2012.687466
  3. Neese,F.
     The ORCA program system
     WIRES Comput. Molec. Sci., 2012 2(1)73-78
     doi.org/10.1002/wcms.81
  4. Izsak,R.; Neese,F.; Klopper,W.
     Robust fitting techniques in the chain of spheres approximation to the Fock exchange: The role of the complementary space
     J. Chem. Phys., 2013 139 
     doi.org/10.1063/1.4819264
  5. Neese,F.
     Software update: the ORCA program system, version 4.0
     WIRES Comput. Molec. Sci., 2018 8(1)1-6
     doi.org/10.1002/wcms.1327
  6. Neese,F.; Wennmohs,F.; Becker,U.; Riplinger,C.
     The ORCA quantum chemistry program package
     J. Chem. Phys., 2020 152 Art. No. L224108
     doi.org/10.1063/5.0004608

List of optional additional citations

  1. Neese,F.
     Approximate second-order SCF convergence for spin unrestricted wavefunctions
     Chem. Phys. Lett., 2000 325(1-3)93-98
     doi.org/10.1016/s0009-2614(00)00662-x

Timings for individual modules:

Sum of individual times          ...      588.043 sec (=   9.801 min)
Startup calculation              ...       15.022 sec (=   0.250 min)   2.6 %
SCF iterations                   ...      572.798 sec (=   9.547 min)  97.4 %
Property calculations            ...        0.223 sec (=   0.004 min)   0.0 %
                             ****ORCA TERMINATED NORMALLY****
TOTAL RUN TIME: 0 days 0 hours 9 minutes 48 seconds 845 msec
