
                                 *****************
                                 * O   R   C   A *
                                 *****************

                                            #,                                       
                                            ###                                      
                                            ####                                     
                                            #####                                    
                                            ######                                   
                                           ########,                                 
                                     ,,################,,,,,                         
                               ,,#################################,,                 
                          ,,##########################################,,             
                       ,#########################################, ''#####,          
                    ,#############################################,,   '####,        
                  ,##################################################,,,,####,       
                ,###########''''           ''''###############################       
              ,#####''   ,,,,##########,,,,          '''####'''          '####       
            ,##' ,,,,###########################,,,                        '##       
           ' ,,###''''                  '''############,,,                           
         ,,##''                                '''############,,,,        ,,,,,,###''
      ,#''                                            '''#######################'''  
     '                                                          ''''####''''         
             ,#######,   #######,   ,#######,      ##                                
            ,#'     '#,  ##    ##  ,#'     '#,    #''#        ,####,   ,####,        
            ##       ##  ##   ,#'  ##            #'  '#       #'       #'  '#        
            ##       ##  #######   ##           ,######,      #####,   #    #        
            '#,     ,#'  ##    ##  '#,     ,#' ,#      #,     #,   #   #,  ,#        
             '#######'   ##     ##  '#######'  #'      '#     '####' # '####'        



                #########################################################
                #                        -***-                          #
                #          Department of theory and spectroscopy        #
                #                                                       #
                #                      Frank Neese                      #
                #                                                       #
                #     Directorship, Architecture, Infrastructure        #
                #                    SHARK, DRIVERS                     #
                #        Core code/Algorithms in most modules           #
                #                                                       #
                #        Max Planck Institute fuer Kohlenforschung      #
                #                Kaiser Wilhelm Platz 1                 #
                #                 D-45470 Muelheim/Ruhr                 #
                #                      Germany                          #
                #                                                       #
                #                  All rights reserved                  #
                #                        -***-                          #
                #########################################################


                         Program Version 6.0.0  -   RELEASE  -


 With contributions from (in alphabetic order):
   Daniel Aravena         : Magnetic Suceptibility
   Michael Atanasov       : Ab Initio Ligand Field Theory (pilot matlab implementation)
   Alexander A. Auer      : GIAO ZORA, VPT2 properties, NMR spectrum
   Ute Becker             : All parallelization in ORCA, NUMFREQ, NUMCALC
   Giovanni Bistoni       : ED, misc. LED, open-shell LED, HFLD
   Martin Brehm           : Molecular dynamics
   Dmytro Bykov           : pre 5.0 version of the SCF Hessian
   Marcos Casanova-Páez   : Triplet and SCS-CIS(D). UHF-(DLPNO)-IP/EA/STEOM-CCSD. UHF-CVS-IP/STEOM-CCSD
   Vijay G. Chilkuri      : MRCI spin determinant printing, contributions to CSF-ICE
   Pauline Colinet        : FMM embedding
   Dipayan Datta          : RHF DLPNO-CCSD density
   Achintya Kumar Dutta   : EOM-CC, STEOM-CC
   Nicolas Foglia         : Exact transition moments, OPA infrastructure, MCD improvements
   Dmitry Ganyushin       : Spin-Orbit,Spin-Spin,Magnetic field MRCI
   Miquel Garcia          : C-PCM and meta-GGA Hessian, CCSD/C-PCM, Gaussian charge scheme
   Tiago L. C. Gouveia    : GS-ROHF, GS-ROCIS
   Yang Guo               : DLPNO-NEVPT2, F12-NEVPT2, CIM, IAO-localization
   Andreas Hansen         : Spin unrestricted coupled pair/coupled cluster methods
   Ingolf Harden          : AUTO-CI MPn and infrastructure 
   Benjamin Helmich-Paris : MC-RPA, TRAH-(SCF,CASSCF), AVAS, COSX integrals, SCF dyn. polar.
   Lee Huntington         : MR-EOM, pCC
   Robert Izsak           : Overlap fitted RIJCOSX, COSX-SCS-MP3, EOM
   Riya Kayal             : Wick's Theorem for AUTO-CI, AUTO-CI UHF-CCSDT
   Emily Kempfer          : AUTO-CI, RHF CISDT and CCSDT
   Christian Kollmar      : KDIIS, OOCD, Brueckner-CCSD(T), CCSD density, CASPT2, CASPT2-K, improved NEVPT2
   Axel Koslowski         : Symmetry handling
   Simone Kossmann        : Meta GGA functionals, TD-DFT gradient, OOMP2, (MP2 Hessian; deprecated post 5.0)
   Lucas Lang             : DCDCAS
   Marvin Lechner         : AUTO-CI (C++ implementation), FIC-MRCC
   Spencer Leger          : CASSCF response
   Dagmar Lenk            : GEPOL surface, SMD, ORCA-2-JSON
   Dimitrios Liakos       : Extrapolation schemes; Compound Job, initial MDCI parallelization
   Dimitrios Manganas     : Further ROCIS development; embedding schemes. LFT, Crystal Embedding
   Dimitrios Pantazis     : SARC Basis sets
   Anastasios Papadopoulos: AUTO-CI, single reference methods and gradients
   Taras Petrenko         : pre 6.0 DFT Hessian and TD-DFT gradient, (ASA, deprecated), ECA, 1-Electron XAS/XES, NRVS
   Peter Pinski           : DLPNO-MP2, DLPNO-MP2 Gradient
   Christoph Reimann      : Effective Core Potentials
   Marius Retegan         : Local ZFS, SOC
   Christoph Riplinger    : Optimizer, TS searches, QM/MM, DLPNO-CCSD(T), (RO)-DLPNO pert. Triples
   Michael Roemelt        : Original ROCIS implementation
   Masaaki Saitow         : Open-shell DLPNO-CCSD energy and density
   Barbara Sandhoefer     : DKH picture change effects
   Kantharuban Sivalingam : CASSCF convergence/infrastructure, NEVPT2 and variants, FIC-MRCI
   Bernardo de Souza      : ESD, SOC TD-DFT
   Georgi Stoychev        : AutoAux, RI-MP2 NMR, DLPNO-MP2 response, X2C
   Van Anh Tran           : RI-MP2 g-tensors
   Willem Van den Heuvel  : Paramagnetic NMR
   Zikuan Wang            : NOTCH, Electric field optimization 
   Frank Wennmohs         : Technical directorship and infrastructure
   Hang Xu                : AUTO-CI-Response properties 


 We gratefully acknowledge several colleagues who have allowed us to
 interface, adapt or use parts of their codes:
   Stefan Grimme, W. Hujo, H. Kruse, P. Pracht,  : VdW corrections, initial TS optimization,
                  C. Bannwarth, S. Ehlert,         DFT functionals, gCP, sTDA/sTD-DF
                  L. Wittmann, M. Mueller
   Ed Valeev, F. Pavosevic, A. Kumar             : LibInt (2-el integral package), F12 methods
   Garnet Chan, S. Sharma, J. Yang, R. Olivares  : DMRG
   Ulf Ekstrom                                   : XCFun DFT Library
   Mihaly Kallay                                 : mrcc  (arbitrary order and MRCC methods)
   Frank Weinhold                                : gennbo (NPA and NBO analysis)
   Simon Mueller                                 : openCOSMO-RS
   Christopher J. Cramer and Donald G. Truhlar   : smd solvation model
   Lars Goerigk                                  : TD-DFT with DH, B97 family of functionals
   V. Asgeirsson, H. Jonsson                     : NEB implementation
   FAccTs GmbH                                   : IRC, NEB, NEB-TS, DLPNO-Multilevel, CI-OPT
                                                   MM, QMMM, 2- and 3-layer-ONIOM, Crystal-QMMM,
                                                   LR-CPCM, SF, NACMEs, symmetry and pop. for TD-DFT,
                                                   nearIR, NL-DFT gradient (VV10), updates on ESD,
                                                   ML-optimized integration grids, MBIS, APM,
                                                   GOAT, DOCKER, SOLVATOR, interface openCOSMO-RS
   S Lehtola, MJT Oliveira, MAL Marques          : LibXC Library
   Liviu Ungur et al                             : ANISO software


 Your calculation uses the libint2 library for the computation of 2-el integrals
 For citations please refer to: http://libint.valeyev.net

 Your ORCA version has been built with support for libXC version: 6.2.2
 For citations please refer to: https://libxc.gitlab.io

 This ORCA versions uses:
   CBLAS   interface :  Fast vector & matrix operations
   LAPACKE interface :  Fast linear algebra routines
   SCALAPACK package :  Parallel linear algebra routines
   Shared memory     :  Shared parallel matrices
   BLAS/LAPACK       :  OpenBLAS 0.3.27  USE64BITINT DYNAMIC_ARCH NO_AFFINITY SkylakeX SINGLE_THREADED
        Core in use  :  SkylakeX
   Copyright (c) 2011-2014, The OpenBLAS Project


Warning: RI is on but no J-basis has been assigned. Assigning Def2/J (nothing to worry about!)
================================================================================

----- Orbital basis set information -----
Your calculation utilizes the basis: 6-31G*
   H-He, Li-Ne : W. J. Hehre, R. Ditchfield and J.A. Pople, J. Chem. Phys. 56, 2257 (1972).
                 Note: He and Ne are unpublished basis sets taken from the Gaussian program.
                 Note: Li and B from J. D. Dill and J. A. Pople, J. Chem. Phys. 62, 2921 (1975).
   Na - Ar     : M. M. Francl, W. J. Pietro, W. J. Hehre, J. S. Binkley, M. S. Gordon, 
                 D. J. DeFrees and J. A. Pople, J. Chem. Phys. 77, 3654 (1982).
   K - Zn      : V. A. Rassolov, J. A. Pople, M. A. Ratner, and T. L. Windus, J. Chem. Phys. 109, 1223 (1998).

----- AuxJ basis set information -----
Your calculation utilizes the auxiliary basis: def2/J
   F. Weigend, Phys. Chem. Chem. Phys. 8, 1057 (2006).

================================================================================
                                        WARNINGS
                       Please study these warnings very carefully!
================================================================================


================================================================================
                                       INPUT FILE
================================================================================
NAME = /home/nmrbox/aojoawo/Documents/ERDOS/inputs/CHEMBL3687361.inp
|  1> ! B3LYP 6-31G* SP
|  2> 
|  3> * xyz 0 1
|  4> C 4.0206 4.5221 3.0270
|  5> C 3.4493 3.3963 2.2356
|  6> N 2.7727 2.3635 2.7950
|  7> C 2.3958 1.4644 1.8508
|  8> C 1.6589 0.3100 2.1121
|  9> C 1.2943 -0.5175 1.0370
| 10> C 1.6622 -0.1840 -0.2883
| 11> C 1.1773 -1.0249 -1.4377
| 12> N -0.2763 -0.8990 -1.5917
| 13> C -1.1490 -1.8997 -1.0491
| 14> N -1.9046 -1.5836 0.0348
| 15> C -2.7285 -2.4752 0.6351
| 16> C -2.8151 -3.7838 0.1551
| 17> C -3.6475 -4.7173 0.7918
| 18> C -3.7256 -6.0265 0.3164
| 19> C -2.9740 -6.4138 -0.7927
| 20> C -2.1432 -5.4940 -1.4382
| 21> C -2.0541 -4.1604 -0.9801
| 22> C -1.2301 -3.1945 -1.6158
| 23> C -0.4657 -3.5308 -2.8774
| 24> S -0.9629 0.5493 -2.2670
| 25> O -2.4505 0.3901 -2.4143
| 26> O -0.3723 0.7742 -3.6309
| 27> C -0.6392 1.9301 -1.2204
| 28> C 0.0634 3.0425 -1.7024
| 29> C 0.3816 4.1003 -0.8456
| 30> C 0.0041 4.0593 0.5086
| 31> C 0.3867 5.1492 1.4324
| 32> O 1.0252 6.1507 1.0090
| 33> O 0.0563 5.0729 2.7829
| 34> C -0.7227 2.9527 0.9793
| 35> C -1.0457 1.8998 0.1189
| 36> C 2.4343 0.9711 -0.5282
| 37> C 2.7791 1.7717 0.5562
| 38> S 3.6288 3.2185 0.5609
| 39> H 5.0723 4.2900 3.2939
| 40> H 3.9905 5.4571 2.4295
| 41> H 3.4302 4.6715 3.9553
| 42> H 1.3573 0.0628 3.1218
| 43> H 0.7075 -1.4058 1.2322
| 44> H 1.4581 -2.0837 -1.2478
| 45> H 1.6740 -0.7273 -2.3863
| 46> H -3.3038 -2.1621 1.4976
| 47> H -4.2345 -4.4348 1.6577
| 48> H -4.3672 -6.7439 0.8114
| 49> H -3.0333 -7.4327 -1.1534
| 50> H -1.5698 -5.8429 -2.2859
| 51> H -1.1432 -4.0037 -3.6187
| 52> H 0.3659 -4.2254 -2.6361
| 53> H -0.0453 -2.6335 -3.3740
| 54> H 0.3872 3.0847 -2.7339
| 55> H 0.9430 4.9388 -1.2382
| 56> H 0.3243 5.8080 3.4262
| 57> H -1.0285 2.8911 2.0160
| 58> H -1.5912 1.0502 0.5054
| 59> H 2.7230 1.2577 -1.5317
| 60> *
| 61> 
| 62>                          ****END OF INPUT****
================================================================================

                       ****************************
                       * Single Point Calculation *
                       ****************************

---------------------------------
CARTESIAN COORDINATES (ANGSTROEM)
---------------------------------
  C      4.020600    4.522100    3.027000
  C      3.449300    3.396300    2.235600
  N      2.772700    2.363500    2.795000
  C      2.395800    1.464400    1.850800
  C      1.658900    0.310000    2.112100
  C      1.294300   -0.517500    1.037000
  C      1.662200   -0.184000   -0.288300
  C      1.177300   -1.024900   -1.437700
  N     -0.276300   -0.899000   -1.591700
  C     -1.149000   -1.899700   -1.049100
  N     -1.904600   -1.583600    0.034800
  C     -2.728500   -2.475200    0.635100
  C     -2.815100   -3.783800    0.155100
  C     -3.647500   -4.717300    0.791800
  C     -3.725600   -6.026500    0.316400
  C     -2.974000   -6.413800   -0.792700
  C     -2.143200   -5.494000   -1.438200
  C     -2.054100   -4.160400   -0.980100
  C     -1.230100   -3.194500   -1.615800
  C     -0.465700   -3.530800   -2.877400
  S     -0.962900    0.549300   -2.267000
  O     -2.450500    0.390100   -2.414300
  O     -0.372300    0.774200   -3.630900
  C     -0.639200    1.930100   -1.220400
  C      0.063400    3.042500   -1.702400
  C      0.381600    4.100300   -0.845600
  C      0.004100    4.059300    0.508600
  C      0.386700    5.149200    1.432400
  O      1.025200    6.150700    1.009000
  O      0.056300    5.072900    2.782900
  C     -0.722700    2.952700    0.979300
  C     -1.045700    1.899800    0.118900
  C      2.434300    0.971100   -0.528200
  C      2.779100    1.771700    0.556200
  S      3.628800    3.218500    0.560900
  H      5.072300    4.290000    3.293900
  H      3.990500    5.457100    2.429500
  H      3.430200    4.671500    3.955300
  H      1.357300    0.062800    3.121800
  H      0.707500   -1.405800    1.232200
  H      1.458100   -2.083700   -1.247800
  H      1.674000   -0.727300   -2.386300
  H     -3.303800   -2.162100    1.497600
  H     -4.234500   -4.434800    1.657700
  H     -4.367200   -6.743900    0.811400
  H     -3.033300   -7.432700   -1.153400
  H     -1.569800   -5.842900   -2.285900
  H     -1.143200   -4.003700   -3.618700
  H      0.365900   -4.225400   -2.636100
  H     -0.045300   -2.633500   -3.374000
  H      0.387200    3.084700   -2.733900
  H      0.943000    4.938800   -1.238200
  H      0.324300    5.808000    3.426200
  H     -1.028500    2.891100    2.016000
  H     -1.591200    1.050200    0.505400
  H      2.723000    1.257700   -1.531700

----------------------------
CARTESIAN COORDINATES (A.U.)
----------------------------
  NO LB      ZA    FRAG     MASS         X           Y           Z
   0 C     6.0000    0    12.011    7.597833    8.545531    5.720201
   1 C     6.0000    0    12.011    6.518232    6.418077    4.224672
   2 N     7.0000    0    14.007    5.239644    4.466368    5.281785
   3 C     6.0000    0    12.011    4.527406    2.767315    3.497505
   4 C     6.0000    0    12.011    3.134867    0.585815    3.991291
   5 C     6.0000    0    12.011    2.445873   -0.977933    1.959646
   6 C     6.0000    0    12.011    3.141103   -0.347710   -0.544808
   7 C     6.0000    0    12.011    2.224775   -1.936780   -2.716859
   8 N     7.0000    0    14.007   -0.522131   -1.698864   -3.007877
   9 C     6.0000    0    12.011   -2.171295   -3.589913   -1.982512
  10 N     7.0000    0    14.007   -3.599172   -2.992570    0.065762
  11 C     6.0000    0    12.011   -5.156118   -4.677450    1.200165
  12 C     6.0000    0    12.011   -5.319768   -7.150346    0.293097
  13 C     6.0000    0    12.011   -6.892776   -8.914405    1.496285
  14 C     6.0000    0    12.011   -7.040364  -11.388435    0.597909
  15 C     6.0000    0    12.011   -5.620046  -12.120325   -1.497986
  16 C     6.0000    0    12.011   -4.050061  -10.382155   -2.717804
  17 C     6.0000    0    12.011   -3.881686   -7.862017   -1.852121
  18 C     6.0000    0    12.011   -2.324552   -6.036730   -3.053419
  19 C     6.0000    0    12.011   -0.880045   -6.672245   -5.437498
  20 S    16.0000    0    32.060   -1.819617    1.038027   -4.284009
  21 O     8.0000    0    15.999   -4.630774    0.737182   -4.562366
  22 O     8.0000    0    15.999   -0.703545    1.463026   -6.861407
  23 C     6.0000    0    12.011   -1.207913    3.647360   -2.306222
  24 C     6.0000    0    12.011    0.119809    5.749492   -3.217070
  25 C     6.0000    0    12.011    0.721119    7.748444   -1.597952
  26 C     6.0000    0    12.011    0.007748    7.670965    0.961115
  27 C     6.0000    0    12.011    0.730757    9.730578    2.706844
  28 O     8.0000    0    15.999    1.937347   11.623139    1.906734
  29 O     8.0000    0    15.999    0.106392    9.586392    5.258919
  30 C     6.0000    0    12.011   -1.365705    5.579794    1.850609
  31 C     6.0000    0    12.011   -1.976087    3.590102    0.224688
  32 C     6.0000    0    12.011    4.600160    1.835113   -0.998153
  33 C     6.0000    0    12.011    5.251738    3.348028    1.051066
  34 S    16.0000    0    32.060    6.857438    6.082084    1.059947
  35 H     1.0000    0     1.008    9.585258    8.106925    6.224569
  36 H     1.0000    0     1.008    7.540952   10.312424    4.591090
  37 H     1.0000    0     1.008    6.482139    8.827856    7.474434
  38 H     1.0000    0     1.008    2.564925    0.118675    5.899347
  39 H     1.0000    0     1.008    1.336981   -2.656577    2.328521
  40 H     1.0000    0     1.008    2.755410   -3.937622   -2.358000
  41 H     1.0000    0     1.008    3.163402   -1.374398   -4.509453
  42 H     1.0000    0     1.008   -6.243277   -4.085777    2.830054
  43 H     1.0000    0     1.008   -8.002045   -8.380557    3.132599
  44 H     1.0000    0     1.008   -8.252812  -12.744124    1.533324
  45 H     1.0000    0     1.008   -5.732106  -14.045767   -2.179610
  46 H     1.0000    0     1.008   -2.966492  -11.041481   -4.319725
  47 H     1.0000    0     1.008   -2.160335   -7.565897   -6.838352
  48 H     1.0000    0     1.008    0.691451   -7.984849   -4.981507
  49 H     1.0000    0     1.008   -0.085605   -4.976594   -6.375936
  50 H     1.0000    0     1.008    0.731702    5.829238   -5.166322
  51 H     1.0000    0     1.008    1.782012    9.332979   -2.339859
  52 H     1.0000    0     1.008    0.612838   10.975529    6.474580
  53 H     1.0000    0     1.008   -1.943583    5.463387    3.809688
  54 H     1.0000    0     1.008   -3.006932    1.984590    0.955068
  55 H     1.0000    0     1.008    5.145724    2.376709   -2.894494

--------------------------------
INTERNAL COORDINATES (ANGSTROEM)
--------------------------------
 C      0   0   0     0.000000000000     0.00000000     0.00000000
 C      1   0   0     1.490007815416     0.00000000     0.00000000
 N      2   1   0     1.355504245659   123.22165580     0.00000000
 C      3   2   1     1.357183871110   110.87119463   181.63811494
 C      4   3   2     1.394252007350   124.39547899   181.48103942
 C      5   4   3     1.404823625940   118.78049745   177.90306048
 C      6   5   4     1.415271263751   120.68852814   359.72102700
 C      7   6   5     1.504447134332   119.99579168   184.55388920
 N      8   7   6     1.467146812695   110.58303707    67.15342457
 C      9   8   7     1.434371130496   120.21374830   261.46072967
 N     10   9   8     1.358561658520   118.54633043   108.97183362
 C     11  10   9     1.354297552239   122.60320284   181.83032741
 C     12  11  10     1.396543418587   120.15003330     0.81257151
 C     13  12  11     1.403459618229   120.27216221   178.70305429
 C     14  13  12     1.395030254152   120.18694740   180.44357713
 C     15  14  13     1.394634955822   120.09663471     0.13380962
 C     16  15  14     1.397473051619   120.32752347   359.72793741
 C     17  16  15     1.412898927737   120.59560912   359.87232830
 C     10   9   8     1.415709412274   121.43310501   289.17187426
 C     19  10   9     1.512957239977   120.54026651   355.64255019
 S      9   8   7     1.739259192875   120.22074678    74.32802641
 O     21   9   8     1.503328204352   109.90712611   175.74038421
 O     21   9   8     1.503200445716   108.77011960    57.20363374
 C     21   9   8     1.762600887893   110.44391247   295.83711866
 C     24  21   9     1.401215372453   120.64718478   121.28639689
 C     25  24  21     1.397962202636   120.26594055   183.62161128
 C     26  25  24     1.406429838278   120.46276790     0.16247114
 C     27  26  25     1.479077824186   120.69523970   177.44252130
 O     28  27  26     1.260933011702   120.43298542     2.03739264
 O     28  27  26     1.392420949282   120.26608842   182.67600521
 C     27  26  25     1.405119315218   118.96943867   358.62279530
 C     31  27  26     1.397574888870   120.43981155     1.03479812
 C      7   6   5     1.409945541502   119.65225362     1.76962478
 C      4   3   2     1.384680952422   115.24884415     0.58157902
 S     34   4   3     1.677868415580   109.20384034     0.15082192
 H      1   2   3     1.109585017022   109.45894059    92.32130076
 H      1   2   3     1.110016783657   109.88527002   212.42253709
 H      1   2   3     1.110240248775   109.99126874   332.17802188
 H      5   4   3     1.082388326803   120.74326918   358.95834012
 H      6   5   4     1.082365081661   119.08566119   181.05537920
 H      8   7   6     1.111741017504   108.68809800   305.71458524
 H      8   7   6     1.111358902425   111.00127992   188.62087121
 H     12  11  10     1.083008748810   119.06748187   179.88448349
 H     14  13  12     1.083585741877   120.69149227     0.26687751
 H     15  14  13     1.082283844470   119.96042517   179.87843842
 H     16  15  14     1.082487039183   119.79272530   179.59065809
 H     17  16  15     1.081255779175   117.71132909   179.22690404
 H     20  19  10     1.110029886985   110.07194647   230.22676664
 H     20  19  10     1.110069101453   109.65282081   109.55303423
 H     20  19  10     1.108374941074   112.66175698   348.41409797
 H     25  24  21     1.081951722583   120.59548873     2.15508397
 H     26  25  24     1.082768197723   118.80032357   178.74635639
 H     30  28  27     1.012931833837   120.89188644   179.18325009
 H     31  27  26     1.082614931543   120.77700250   180.01760540
 H     32  31  27     1.081097895660   119.24697695   178.98293445
 H     33   7   6     1.082820160507   121.36756087   180.61341050

---------------------------
INTERNAL COORDINATES (A.U.)
---------------------------
 C      0   0   0     0.000000000000     0.00000000     0.00000000
 C      1   0   0     2.815706708538     0.00000000     0.00000000
 N      2   1   0     2.561531797663   123.22165580     0.00000000
 C      3   2   1     2.564705829772   110.87119463   181.63811494
 C      4   3   2     2.634754455562   124.39547899   181.48103942
 C      5   4   3     2.654731919489   118.78049745   177.90306048
 C      6   5   4     2.674475093698   120.68852814   359.72102700
 C      7   6   5     2.842993066850   119.99579168   184.55388920
 N      8   7   6     2.772505674248   110.58303707    67.15342457
 C      9   8   7     2.710568611040   120.21374830   261.46072967
 N     10   9   8     2.567309470648   118.54633043   108.97183362
 C     11  10   9     2.559251477571   122.60320284   181.83032741
 C     12  11  10     2.639084595260   120.15003330     0.81257151
 C     13  12  11     2.652154318471   120.27216221   178.70305429
 C     14  13  12     2.636225128882   120.18694740   180.44357713
 C     15  14  13     2.635478123297   120.09663471     0.13380962
 C     16  15  14     2.640841347094   120.32752347   359.72793741
 C     17  16  15     2.669992028334   120.59560912   359.87232830
 C     10   9   8     2.675303074412   121.43310501   289.17187426
 C     19  10   9     2.859074835891   120.54026651   355.64255019
 S      9   8   7     3.286723550439   120.22074678    74.32802641
 O     21   9   8     2.840878595625   109.90712611   175.74038421
 O     21   9   8     2.840637166791   108.77011960    57.20363374
 C     21   9   8     3.330832961524   110.44391247   295.83711866
 C     24  21   9     2.647913308578   120.64718478   121.28639689
 C     25  24  21     2.641765708556   120.26594055   183.62161128
 C     26  25  24     2.657767220921   120.46276790     0.16247114
 C     27  26  25     2.795052018468   120.69523970   177.44252130
 O     28  27  26     2.382818065337   120.43298542     2.03739264
 O     28  27  26     2.631294257278   120.26608842   182.67600521
 C     27  26  25     2.655290691246   118.96943867   358.62279530
 C     31  27  26     2.641033791610   120.43981155     1.03479812
 C      7   6   5     2.664410937181   119.65225362     1.76962478
 C      4   3   2     2.616667782935   115.24884415     0.58157902
 S     34   4   3     3.170711794202   109.20384034     0.15082192
 H      1   2   3     2.096811804474   109.45894059    92.32130076
 H      1   2   3     2.097627725168   109.88527002   212.42253709
 H      1   2   3     2.098050013041   109.99126874   332.17802188
 H      5   4   3     2.045417508211   120.74326918   358.95834012
 H      6   5   4     2.045373581259   119.08566119   181.05537920
 H      8   7   6     2.100886054929   108.68809800   305.71458524
 H      8   7   6     2.100163962079   111.00127992   188.62087121
 H     12  11  10     2.046589935892   119.06748187   179.88448349
 H     14  13  12     2.047680294770   120.69149227     0.26687751
 H     15  14  13     2.045220065215   119.96042517   179.87843842
 H     16  15  14     2.045604047576   119.79272530   179.59065809
 H     17  16  15     2.043277303361   117.71132909   179.22690404
 H     20  19  10     2.097652486869   110.07194647   230.22676664
 H     20  19  10     2.097726591474   109.65282081   109.55303423
 H     20  19  10     2.094525092330   112.66175698   348.41409797
 H     25  24  21     2.044592445806   120.59548873     2.15508397
 H     26  25  24     2.046135360216   118.80032357   178.74635639
 H     30  28  27     1.914163758282   120.89188644   179.18325009
 H     31  27  26     2.045845729110   120.77700250   180.01760540
 H     32  31  27     2.042978946756   119.24697695   178.98293445
 H     33   7   6     2.046233555647   121.36756087   180.61341050

---------------------
BASIS SET INFORMATION
---------------------
There are 5 groups of distinct atoms

 Group   1 Type C   : 10s4p1d contracted to 3s2p1d pattern {631/31/1}
 Group   2 Type N   : 10s4p1d contracted to 3s2p1d pattern {631/31/1}
 Group   3 Type S   : 16s10p1d contracted to 4s3p1d pattern {6631/631/1}
 Group   4 Type O   : 10s4p1d contracted to 3s2p1d pattern {631/31/1}
 Group   5 Type H   : 4s contracted to 2s pattern {31}

Atom   0C    basis set group =>   1
Atom   1C    basis set group =>   1
Atom   2N    basis set group =>   2
Atom   3C    basis set group =>   1
Atom   4C    basis set group =>   1
Atom   5C    basis set group =>   1
Atom   6C    basis set group =>   1
Atom   7C    basis set group =>   1
Atom   8N    basis set group =>   2
Atom   9C    basis set group =>   1
Atom  10N    basis set group =>   2
Atom  11C    basis set group =>   1
Atom  12C    basis set group =>   1
Atom  13C    basis set group =>   1
Atom  14C    basis set group =>   1
Atom  15C    basis set group =>   1
Atom  16C    basis set group =>   1
Atom  17C    basis set group =>   1
Atom  18C    basis set group =>   1
Atom  19C    basis set group =>   1
Atom  20S    basis set group =>   3
Atom  21O    basis set group =>   4
Atom  22O    basis set group =>   4
Atom  23C    basis set group =>   1
Atom  24C    basis set group =>   1
Atom  25C    basis set group =>   1
Atom  26C    basis set group =>   1
Atom  27C    basis set group =>   1
Atom  28O    basis set group =>   4
Atom  29O    basis set group =>   4
Atom  30C    basis set group =>   1
Atom  31C    basis set group =>   1
Atom  32C    basis set group =>   1
Atom  33C    basis set group =>   1
Atom  34S    basis set group =>   3
Atom  35H    basis set group =>   5
Atom  36H    basis set group =>   5
Atom  37H    basis set group =>   5
Atom  38H    basis set group =>   5
Atom  39H    basis set group =>   5
Atom  40H    basis set group =>   5
Atom  41H    basis set group =>   5
Atom  42H    basis set group =>   5
Atom  43H    basis set group =>   5
Atom  44H    basis set group =>   5
Atom  45H    basis set group =>   5
Atom  46H    basis set group =>   5
Atom  47H    basis set group =>   5
Atom  48H    basis set group =>   5
Atom  49H    basis set group =>   5
Atom  50H    basis set group =>   5
Atom  51H    basis set group =>   5
Atom  52H    basis set group =>   5
Atom  53H    basis set group =>   5
Atom  54H    basis set group =>   5
Atom  55H    basis set group =>   5
---------------------------------
AUXILIARY/J BASIS SET INFORMATION
---------------------------------
There are 5 groups of distinct atoms

 Group   1 Type C   : 12s5p4d2f1g contracted to 6s4p3d1f1g pattern {711111/2111/211/2/1}
 Group   2 Type N   : 12s5p4d2f1g contracted to 6s4p3d1f1g pattern {711111/2111/211/2/1}
 Group   3 Type S   : 14s5p5d2f1g contracted to 8s4p3d1f1g pattern {71111111/2111/311/2/1}
 Group   4 Type O   : 12s5p4d2f1g contracted to 6s4p3d1f1g pattern {711111/2111/211/2/1}
 Group   5 Type H   : 5s2p1d contracted to 3s1p1d pattern {311/2/1}

Atom   0C    basis set group =>   1
Atom   1C    basis set group =>   1
Atom   2N    basis set group =>   2
Atom   3C    basis set group =>   1
Atom   4C    basis set group =>   1
Atom   5C    basis set group =>   1
Atom   6C    basis set group =>   1
Atom   7C    basis set group =>   1
Atom   8N    basis set group =>   2
Atom   9C    basis set group =>   1
Atom  10N    basis set group =>   2
Atom  11C    basis set group =>   1
Atom  12C    basis set group =>   1
Atom  13C    basis set group =>   1
Atom  14C    basis set group =>   1
Atom  15C    basis set group =>   1
Atom  16C    basis set group =>   1
Atom  17C    basis set group =>   1
Atom  18C    basis set group =>   1
Atom  19C    basis set group =>   1
Atom  20S    basis set group =>   3
Atom  21O    basis set group =>   4
Atom  22O    basis set group =>   4
Atom  23C    basis set group =>   1
Atom  24C    basis set group =>   1
Atom  25C    basis set group =>   1
Atom  26C    basis set group =>   1
Atom  27C    basis set group =>   1
Atom  28O    basis set group =>   4
Atom  29O    basis set group =>   4
Atom  30C    basis set group =>   1
Atom  31C    basis set group =>   1
Atom  32C    basis set group =>   1
Atom  33C    basis set group =>   1
Atom  34S    basis set group =>   3
Atom  35H    basis set group =>   5
Atom  36H    basis set group =>   5
Atom  37H    basis set group =>   5
Atom  38H    basis set group =>   5
Atom  39H    basis set group =>   5
Atom  40H    basis set group =>   5
Atom  41H    basis set group =>   5
Atom  42H    basis set group =>   5
Atom  43H    basis set group =>   5
Atom  44H    basis set group =>   5
Atom  45H    basis set group =>   5
Atom  46H    basis set group =>   5
Atom  47H    basis set group =>   5
Atom  48H    basis set group =>   5
Atom  49H    basis set group =>   5
Atom  50H    basis set group =>   5
Atom  51H    basis set group =>   5
Atom  52H    basis set group =>   5
Atom  53H    basis set group =>   5
Atom  54H    basis set group =>   5
Atom  55H    basis set group =>   5
------------------------------------------------------------------------------
                             ORCA STARTUP CALCULATIONS
                           -- RI-GTO INTEGRALS CHOSEN --
------------------------------------------------------------------------------
------------------------------------------------------------------------------
                   ___                                                        
                  /   \      - P O W E R E D   B Y -                         
                 /     \                                                     
                 |  |  |   _    _      __       _____    __    __             
                 |  |  |  | |  | |    /  \     |  _  \  |  |  /  |          
                  \  \/   | |  | |   /    \    | | | |  |  | /  /          
                 / \  \   | |__| |  /  /\  \   | |_| |  |  |/  /          
                |  |  |   |  __  | /  /__\  \  |    /   |      \           
                |  |  |   | |  | | |   __   |  |    \   |  |\   \          
                \     /   | |  | | |  |  |  |  | |\  \  |  | \   \       
                 \___/    |_|  |_| |__|  |__|  |_| \__\ |__|  \__/        
                                                                              
                      - O R C A' S   B I G   F R I E N D -                    
                                      &                                       
                       - I N T E G R A L  F E E D E R -                       
                                                                              
 v1 FN, 2020, v2 2021, v3 2022-2024                                           
------------------------------------------------------------------------------


----------------------
SHARK INTEGRAL PACKAGE
----------------------

Number of atoms                             ...     56
Number of basis functions                   ...    540
Number of shells                            ...    256
Maximum angular momentum                    ...      2
Integral batch strategy                     ... SHARK/LIBINT Hybrid
RI-J (if used) integral strategy            ... SPLIT-RIJ (Revised 2003 algorithm where possible)
Printlevel                                  ...      1
Contraction scheme used                     ... SEGMENTED contraction
Prescreening option                         ... SCHWARTZ
   Thresh                                   ... 1.000e-10
   Tcut                                     ... 1.000e-11
   Tpresel                                  ... 1.000e-11 
Coulomb Range Separation                    ... NOT USED
Exchange Range Separation                   ... NOT USED
Multipole approximations                    ... NOT USED
Finite Nucleus Model                        ... NOT USED
CABS basis                                  ... NOT available
Auxiliary Coulomb fitting basis             ... AVAILABLE
   # of basis functions in Aux-J            ...   1950
   # of shells in Aux-J                     ...    634
   Maximum angular momentum in Aux-J        ...      4
Auxiliary J/K fitting basis                 ... NOT available
Auxiliary Correlation fitting basis         ... NOT available
Auxiliary 'external' fitting basis          ... NOT available

Checking pre-screening integrals            ... done (  0.0 sec) Dimension = 256
Check shell pair data                       ... done (  0.0 sec)
Shell pair information
Shell pair cut-off parameter TPreSel        ...   1.0e-11
Total number of shell pairs                 ...     32896
Shell pairs after pre-screening             ...     19444
Total number of primitive shell pairs       ...    201519
Primitive shell pairs kept                  ...     60095
          la=0 lb=0:   6086 shell pairs
          la=1 lb=0:   6931 shell pairs
          la=1 lb=1:   1955 shell pairs
          la=2 lb=0:   2580 shell pairs
          la=2 lb=1:   1587 shell pairs
          la=2 lb=2:    305 shell pairs

Calculating one electron integrals          ... done (  0.3 sec)
Calculating RI/J V-Matrix + Cholesky decomp.... done (  0.6 sec)
Calculating Nuclear repulsion               ... done (  0.0 sec) ENN=   4146.396327618680 Eh

Diagonalization of the overlap matrix:
Smallest eigenvalue                        ... 3.480e-04
Time for diagonalization                   ...    0.060 sec
Threshold for overlap eigenvalues          ... 1.000e-07
Number of eigenvalues below threshold      ... 0
Time for construction of square roots      ...    0.043 sec
Total time needed                          ...    0.113 sec

-------------------
DFT GRID GENERATION
-------------------

General Integration Accuracy     IntAcc      ... 4.388
Radial Grid Type                 RadialGrid  ... OptM3 with GC (2021)
Angular Grid (max. ang.)         AngularGrid ... 4 (Lebedev-302)
Angular grid pruning method      GridPruning ... 4 (adaptive)
Weight generation scheme         WeightScheme... mBecke (2022)
Basis function cutoff            BFCut       ... 1.0000e-10
Integration weight cutoff        WCut        ... 1.0000e-14
Partially contracted basis set               ... off
Rotationally invariant grid construction     ... off
Angular grids for H and He will be reduced by one unit

Total number of grid points                  ...   277334
Total number of batches                      ...     4359
Average number of points per batch           ...       63
Average number of grid points per atom       ...     4952

--------------------
COSX GRID GENERATION
--------------------

GRIDX 1
-------
General Integration Accuracy     IntAcc      ... 3.816
Radial Grid Type                 RadialGrid  ... OptM3 with GC (2021)
Angular Grid (max. ang.)         AngularGrid ... 1 (Lebedev-50)
Angular grid pruning method      GridPruning ... 4 (adaptive)
Weight generation scheme         WeightScheme... mBecke (2022)
Basis function cutoff            BFCut       ... 1.0000e-10
Integration weight cutoff        WCut        ... 1.0000e-14
Partially contracted basis set               ... on
Rotationally invariant grid construction     ... off
Angular grids for H and He will be reduced by one unit

Total number of grid points                  ...    37137
Total number of batches                      ...      319
Average number of points per batch           ...      116
Average number of grid points per atom       ...      663
UseSFitting                                  ... on

GRIDX 2
-------
General Integration Accuracy     IntAcc      ... 4.020
Radial Grid Type                 RadialGrid  ... OptM3 with GC (2021)
Angular Grid (max. ang.)         AngularGrid ... 2 (Lebedev-110)
Angular grid pruning method      GridPruning ... 4 (adaptive)
Weight generation scheme         WeightScheme... mBecke (2022)
Basis function cutoff            BFCut       ... 1.0000e-10
Integration weight cutoff        WCut        ... 1.0000e-14
Partially contracted basis set               ... on
Rotationally invariant grid construction     ... off
Angular grids for H and He will be reduced by one unit

Total number of grid points                  ...    76398
Total number of batches                      ...      626
Average number of points per batch           ...      122
Average number of grid points per atom       ...     1364
UseSFitting                                  ... on

GRIDX 3
-------
General Integration Accuracy     IntAcc      ... 4.338
Radial Grid Type                 RadialGrid  ... OptM3 with GC (2021)
Angular Grid (max. ang.)         AngularGrid ... 3 (Lebedev-194)
Angular grid pruning method      GridPruning ... 4 (adaptive)
Weight generation scheme         WeightScheme... mBecke (2022)
Basis function cutoff            BFCut       ... 1.0000e-10
Integration weight cutoff        WCut        ... 1.0000e-14
Partially contracted basis set               ... on
Rotationally invariant grid construction     ... off
Angular grids for H and He will be reduced by one unit

Total number of grid points                  ...   167790
Total number of batches                      ...     1343
Average number of points per batch           ...      124
Average number of grid points per atom       ...     2996
UseSFitting                                  ... on
Initializing property integral containers    ... done (  0.0 sec)

SHARK setup successfully completed in  16.1 seconds

Maximum memory used throughout the entire STARTUP-calculation: 125.2 MB
-------------------------------------------------------------------------------
                                 ORCA GUESS
                   Start orbitals & Density for SCF / CASSCF
-------------------------------------------------------------------------------

------------
SCF SETTINGS
------------
Hamiltonian:
 Density Functional     Method          .... DFT(GTOs)
 Exchange Functional    Exchange        .... B88
   X-Alpha parameter    XAlpha          ....  0.666667
   Becke's b parameter  XBeta           ....  0.004200
 Correlation Functional Correlation     .... LYP
 LDA part of GGA corr.  LDAOpt          .... VWN-5
 Gradients option       PostSCFGGA      .... off
 Hybrid DFT is turned on
   Fraction HF Exchange ScalHFX         ....  0.200000
   Scaling of DF-GGA-X  ScalDFX         ....  0.720000
   Scaling of DF-GGA-C  ScalDFC         ....  0.810000
   Scaling of DF-LDA-C  ScalLDAC        ....  1.000000
   Perturbative correction              ....  0.000000
   NL short-range parameter             ....  4.800000
 RI-approximation to the Coulomb term is turned on
   Number of AuxJ basis functions       .... 1950
   RIJ-COSX (HFX calculated with COS-X)).... on


General Settings:
 Integral files         IntName         .... /home/nmrbox/aojoawo/Documents/ERDOS/inputs/CHEMBL3687361
 Hartree-Fock type      HFTyp           .... RHF
 Total Charge           Charge          ....    0
 Multiplicity           Mult            ....    1
 Number of Electrons    NEL             ....  262
 Basis Dimension        Dim             ....  540
 Nuclear Repulsion      ENuc            ....   4146.3963276187 Eh

Convergence Acceleration:
 AO-DIIS                CNVDIIS         .... on
   Start iteration      DIISMaxIt       ....    12
   Startup error        DIISStart       ....  0.200000
   # of expansion vecs  DIISMaxEq       ....     5
   Bias factor          DIISBfac        ....   1.050
   Max. coefficient     DIISMaxC        ....  10.000
 MO-DIIS                CNVKDIIS        .... off
 Trust-Rad. Augm. Hess. CNVTRAH         .... auto
   Auto Start mean grad. ratio tolernc. ....  1.125000
   Auto Start start iteration           ....    50
   Auto Start num. interpolation iter.  ....    10
   Max. Number of Micro iterations      ....    24
   Max. Number of Macro iterations      .... Maxiter - #DIIS iter
   Number of Davidson start vectors     ....     2
   Converg. threshold    (grad. norm)   ....   5.000e-05
   Grad. Scal. Fac. for Micro threshold ....   0.100
   Minimum threshold for Micro iter.    ....   1.000e-02
   NR start threshold (gradient norm)   ....   1.000e-04
   Initial trust radius                 ....   0.400
   Minimum AH scaling param. (alpha)    ....   1.000
   Maximum AH scaling param. (alpha)    .... 1000.000
   Quad. conv. algorithm                .... NR
   White noise on init. David. guess    .... on
   Maximum white noise                  ....   0.010
   Pseudo random numbers                .... off
   Inactive MOs                         .... canonical
   Orbital update algorithm             .... Taylor
   Preconditioner                       .... Diag
   Full preconditioner red. dimension   ....   250
 SOSCF                  CNVSOSCF        .... on
   Start iteration      SOSCFMaxIt      ....   150
   Startup grad/error   SOSCFStart      ....  0.003300
   Hessian update       SOSCFHessUp     .... L-BFGS
 Level Shifting         CNVShift        .... on
   Level shift para.    LevelShift      ....    0.2500
   Turn off err/grad.   ShiftErr        ....    0.0010
 Zerner damping         CNVZerner       .... off
 Static damping         CNVDamp         .... on
   Fraction old density DampFac         ....    0.7000
   Max. Damping (<1)    DampMax         ....    0.9800
   Min. Damping (>=0)   DampMin         ....    0.0000
   Turn off err/grad.   DampErr         ....    0.1000

SCF Procedure:
 Maximum # iterations   MaxIter         ....   125
 SCF integral mode      SCFMode         .... Direct
   Integral package                     .... SHARK and LIBINT hybrid scheme
 Reset frequency        DirectResetFreq ....    20
 Integral Threshold     Thresh          ....  1.000e-10 Eh
 Primitive CutOff       TCut            ....  1.000e-11 Eh

Convergence Tolerance:
 Convergence Check Mode ConvCheckMode   .... Total+1el-Energy
 Convergence forced     ConvForced      .... 0
 Energy Change          TolE            ....  1.000e-06 Eh
 1-El. energy change                    ....  1.000e-03 Eh
 Orbital Gradient       TolG            ....  5.000e-05
 Orbital Rotation angle TolX            ....  5.000e-05
 DIIS Error             TolErr          ....  1.000e-06

------------------------------
INITIAL GUESS: MODEL POTENTIAL
------------------------------
Loading Hartree-Fock densities                     ... done
Calculating cut-offs                               ... done
Initializing the effective Hamiltonian             ... done
Setting up the integral package (SHARK)            ... done
Starting the Coulomb interaction                   ... done (   4.7 sec)
Making the grid                                    ... done (   1.7 sec)
Mapping shells                                     ... done
Starting the XC term evaluation                    ... done (   1.5 sec)
  promolecular density results
     # of electrons  =    261.983312757
     EX              =   -242.548118589
     EC              =     -9.241523636
     EX+EC           =   -251.789642225
Transforming the Hamiltonian                       ... done (   0.0 sec)
Diagonalizing the Hamiltonian                      ... done (   0.1 sec)
Back transforming the eigenvectors                 ... done (   0.0 sec)
Now organizing SCF variables                       ... done
                      ------------------
                      INITIAL GUESS DONE (   8.1 sec)
                      ------------------
             **** ENERGY FILE WAS UPDATED (/home/nmrbox/aojoawo/Documents/ERDOS/inputs/CHEMBL3687361.en.tmp) ****
Finished Guess after   8.5 sec
Maximum memory used throughout the entire GUESS-calculation: 70.6 MB

-------------------------------------------------------------------------------------------
                                      ORCA LEAN-SCF
                              memory conserving SCF solver
-------------------------------------------------------------------------------------------

----------------------------------------D-I-I-S--------------------------------------------
Iteration    Energy (Eh)           Delta-E    RMSDP     MaxDP     DIISErr   Damp  Time(sec)
-------------------------------------------------------------------------------------------
               ***  Starting incremental Fock matrix formation  ***
    1    -2262.8307182669204849     0.00e+00  2.50e-03  1.88e-01  2.93e-01  0.700  89.0
    2    -2263.3244865783199202    -4.94e-01  1.54e-03  7.93e-02  9.83e-02  0.700  40.6
                               ***Turning on AO-DIIS***
    3    -2263.4919076604392103    -1.67e-01  6.22e-04  2.52e-02  3.50e-02  0.700  38.6
    4    -2263.6013762056400083    -1.09e-01  1.11e-03  6.93e-02  1.50e-02  0.000  35.2
    5    -2263.8490794063191061    -2.48e-01  2.56e-04  1.26e-02  8.26e-03  0.000  38.5
    6    -2263.8510540473189394    -1.97e-03  9.28e-05  4.03e-03  3.60e-03  0.000  34.0
                              *** Initializing SOSCF ***
---------------------------------------S-O-S-C-F--------------------------------------
Iteration    Energy (Eh)           Delta-E    RMSDP     MaxDP     MaxGrad    Time(sec)
--------------------------------------------------------------------------------------
    7    -2263.8512222550416482    -1.68e-04  3.17e-05  1.30e-03  1.91e-03    29.3
               *** Restarting incremental Fock matrix formation ***
    8    -2263.8511291103213807     9.31e-05  2.80e-05  1.54e-03  1.51e-04    89.6
    9    -2263.8511275591463345     1.55e-06  1.52e-05  8.44e-04  4.29e-04    44.7
   10    -2263.8511344721382557    -6.91e-06  8.48e-06  3.28e-04  9.13e-05    38.5
   11    -2263.8511343547443175     1.17e-07  3.68e-06  2.03e-04  6.54e-05    36.1
                 **** Energy Check signals convergence ****

               *****************************************************
               *                     SUCCESS                       *
               *           SCF CONVERGED AFTER  11 CYCLES          *
               *****************************************************

Recomputing exchange energy using gridx3       ... done (  153.826 sec)
Old exchange energy                            :    -49.027341493 Eh
New exchange energy                            :    -49.027466408 Eh
Exchange energy change after final integration :     -0.000124915 Eh
Total energy after final integration           :  -2263.851259270 Eh
             **** ENERGY FILE WAS UPDATED (/home/nmrbox/aojoawo/Documents/ERDOS/inputs/CHEMBL3687361.en.tmp) ****

----------------
TOTAL SCF ENERGY
----------------

Total Energy       :      -2263.85125927001309 Eh          -61602.52458 eV

Components:
Nuclear Repulsion  :       4146.39632761867961 Eh          112829.18020 eV
Electronic Energy  :      -6410.24746197342392 Eh         -174431.70138 eV
One Electron Energy:     -11350.69422291475712 Eh         -308868.09236 eV
Two Electron Energy:       4940.44676094133320 Eh          134436.39098 eV

Virial components:
Potential Energy   :      -4516.76195862378518 Eh         -122907.34138 eV
Kinetic Energy     :       2252.91069935377254 Eh           61304.81681 eV
Virial Ratio       :          2.00485618889350

DFT components:
N(Alpha)           :      131.000226329009 electrons
N(Beta)            :      131.000226329009 electrons
N(Total)           :      262.000452658019 electrons
E(X)               :     -194.810193846829 Eh       
E(C)               :      -10.852970466498 Eh       
E(XC)              :     -205.663164313327 Eh       

---------------
SCF CONVERGENCE
---------------

  Last Energy change         ...   -1.1739e-07  Tolerance :   1.0000e-06
  Last MAX-Density change    ...    2.0293e-04  Tolerance :   1.0000e-05
  Last RMS-Density change    ...    3.6811e-06  Tolerance :   1.0000e-06
  Last DIIS Error            ...    1.9124e-03  Tolerance :   1.0000e-06
  Last Orbital Gradient      ...    6.5426e-05  Tolerance :   5.0000e-05
  Last Orbital Rotation      ...    1.1095e-04  Tolerance :   5.0000e-05


----------------
ORBITAL ENERGIES
----------------

  NO   OCC          E(Eh)            E(eV) 
   0   2.0000     -89.093360     -2424.3536 
   1   2.0000     -88.893072     -2418.9035 
   2   2.0000     -19.190165      -522.1909 
   3   2.0000     -19.131704      -520.6001 
   4   2.0000     -19.122400      -520.3469 
   5   2.0000     -19.118889      -520.2514 
   6   2.0000     -14.371273      -391.0622 
   7   2.0000     -14.334273      -390.0554 
   8   2.0000     -14.325179      -389.8079 
   9   2.0000     -10.329374      -281.0766 
  10   2.0000     -10.262920      -279.2683 
  11   2.0000     -10.253342      -279.0076 
  12   2.0000     -10.235777      -278.5296 
  13   2.0000     -10.232592      -278.4430 
  14   2.0000     -10.227248      -278.2976 
  15   2.0000     -10.221462      -278.1401 
  16   2.0000     -10.210488      -277.8415 
  17   2.0000     -10.210351      -277.8378 
  18   2.0000     -10.209753      -277.8215 
  19   2.0000     -10.209364      -277.8109 
  20   2.0000     -10.207981      -277.7733 
  21   2.0000     -10.206973      -277.7459 
  22   2.0000     -10.206132      -277.7230 
  23   2.0000     -10.205385      -277.7026 
  24   2.0000     -10.201111      -277.5864 
  25   2.0000     -10.199116      -277.5321 
  26   2.0000     -10.198936      -277.5272 
  27   2.0000     -10.197804      -277.4964 
  28   2.0000     -10.196877      -277.4711 
  29   2.0000     -10.196872      -277.4710 
  30   2.0000     -10.196740      -277.4674 
  31   2.0000     -10.196370      -277.4573 
  32   2.0000     -10.187696      -277.2213 
  33   2.0000     -10.186935      -277.2006 
  34   2.0000     -10.184819      -277.1430 
  35   2.0000      -8.128896      -221.1985 
  36   2.0000      -7.971193      -216.9072 
  37   2.0000      -6.094146      -165.8301 
  38   2.0000      -6.091807      -165.7665 
  39   2.0000      -6.091492      -165.7579 
  40   2.0000      -5.934175      -161.4771 
  41   2.0000      -5.930327      -161.3724 
  42   2.0000      -5.927851      -161.3050 
  43   2.0000      -1.078487       -29.3471 
  44   2.0000      -1.074973       -29.2515 
  45   2.0000      -0.989192       -26.9173 
  46   2.0000      -0.966201       -26.2917 
  47   2.0000      -0.963672       -26.2228 
  48   2.0000      -0.956281       -26.0217 
  49   2.0000      -0.915573       -24.9140 
  50   2.0000      -0.879712       -23.9382 
  51   2.0000      -0.866145       -23.5690 
  52   2.0000      -0.851685       -23.1755 
  53   2.0000      -0.815233       -22.1836 
  54   2.0000      -0.809524       -22.0283 
  55   2.0000      -0.797183       -21.6925 
  56   2.0000      -0.783420       -21.3179 
  57   2.0000      -0.773794       -21.0560 
  58   2.0000      -0.765526       -20.8310 
  59   2.0000      -0.749831       -20.4039 
  60   2.0000      -0.741454       -20.1760 
  61   2.0000      -0.722101       -19.6494 
  62   2.0000      -0.708495       -19.2791 
  63   2.0000      -0.697821       -18.9887 
  64   2.0000      -0.674521       -18.3547 
  65   2.0000      -0.651546       -17.7295 
  66   2.0000      -0.646082       -17.5808 
  67   2.0000      -0.627322       -17.0703 
  68   2.0000      -0.614738       -16.7279 
  69   2.0000      -0.610912       -16.6238 
  70   2.0000      -0.598902       -16.2970 
  71   2.0000      -0.594130       -16.1671 
  72   2.0000      -0.580594       -15.7988 
  73   2.0000      -0.567348       -15.4383 
  74   2.0000      -0.555039       -15.1034 
  75   2.0000      -0.536437       -14.5972 
  76   2.0000      -0.531982       -14.4760 
  77   2.0000      -0.516691       -14.0599 
  78   2.0000      -0.503890       -13.7115 
  79   2.0000      -0.493920       -13.4403 
  80   2.0000      -0.491479       -13.3738 
  81   2.0000      -0.483159       -13.1474 
  82   2.0000      -0.480144       -13.0654 
  83   2.0000      -0.472229       -12.8500 
  84   2.0000      -0.464064       -12.6278 
  85   2.0000      -0.460375       -12.5274 
  86   2.0000      -0.453291       -12.3347 
  87   2.0000      -0.452688       -12.3183 
  88   2.0000      -0.450895       -12.2695 
  89   2.0000      -0.446859       -12.1597 
  90   2.0000      -0.442706       -12.0466 
  91   2.0000      -0.437025       -11.8921 
  92   2.0000      -0.436267       -11.8714 
  93   2.0000      -0.431983       -11.7549 
  94   2.0000      -0.431709       -11.7474 
  95   2.0000      -0.420885       -11.4529 
  96   2.0000      -0.418700       -11.3934 
  97   2.0000      -0.411203       -11.1894 
  98   2.0000      -0.408401       -11.1132 
  99   2.0000      -0.406164       -11.0523 
 100   2.0000      -0.404437       -11.0053 
 101   2.0000      -0.399397       -10.8681 
 102   2.0000      -0.394632       -10.7385 
 103   2.0000      -0.388272       -10.5654 
 104   2.0000      -0.383232       -10.4283 
 105   2.0000      -0.378294       -10.2939 
 106   2.0000      -0.376753       -10.2520 
 107   2.0000      -0.371919       -10.1204 
 108   2.0000      -0.368826       -10.0363 
 109   2.0000      -0.358699        -9.7607 
 110   2.0000      -0.354523        -9.6471 
 111   2.0000      -0.352589        -9.5944 
 112   2.0000      -0.341548        -9.2940 
 113   2.0000      -0.332839        -9.0570 
 114   2.0000      -0.320921        -8.7327 
 115   2.0000      -0.312671        -8.5082 
 116   2.0000      -0.305568        -8.3149 
 117   2.0000      -0.300213        -8.1692 
 118   2.0000      -0.295163        -8.0318 
 119   2.0000      -0.293094        -7.9755 
 120   2.0000      -0.279253        -7.5989 
 121   2.0000      -0.273217        -7.4346 
 122   2.0000      -0.269205        -7.3254 
 123   2.0000      -0.268139        -7.2964 
 124   2.0000      -0.266570        -7.2538 
 125   2.0000      -0.264805        -7.2057 
 126   2.0000      -0.256305        -6.9744 
 127   2.0000      -0.250305        -6.8112 
 128   2.0000      -0.237369        -6.4591 
 129   2.0000      -0.226117        -6.1530 
 130   2.0000      -0.218474        -5.9450 
 131   0.0000      -0.074799        -2.0354 
 132   0.0000      -0.062549        -1.7020 
 133   0.0000      -0.038439        -1.0460 
 134   0.0000      -0.029509        -0.8030 
 135   0.0000      -0.019514        -0.5310 
 136   0.0000      -0.005690        -0.1548 
 137   0.0000       0.014742         0.4012 
 138   0.0000       0.019417         0.5284 
 139   0.0000       0.026015         0.7079 
 140   0.0000       0.032321         0.8795 
 141   0.0000       0.038946         1.0598 
*Only the first 10 virtual orbitals were printed.

                    ********************************
                    * MULLIKEN POPULATION ANALYSIS *
                    ********************************

-----------------------
MULLIKEN ATOMIC CHARGES
-----------------------
   0 C :   -0.502537
   1 C :    0.065999
   2 N :   -0.407005
   3 C :    0.253907
   4 C :   -0.153691
   5 C :   -0.176586
   6 C :    0.158754
   7 C :   -0.259350
   8 N :   -0.613565
   9 C :    0.345474
  10 N :   -0.395347
  11 C :   -0.045525
  12 C :    0.131464
  13 C :   -0.201755
  14 C :   -0.127326
  15 C :   -0.119667
  16 C :   -0.199168
  17 C :    0.125604
  18 C :    0.093968
  19 C :   -0.547889
  20 S :    1.201569
  21 O :   -0.529088
  22 O :   -0.543901
  23 C :   -0.127080
  24 C :   -0.151911
  25 C :   -0.139430
  26 C :    0.081983
  27 C :    0.533124
  28 O :   -0.456300
  29 O :   -0.621333
  30 C :   -0.142109
  31 C :   -0.134980
  32 C :   -0.224237
  33 C :   -0.119627
  34 S :    0.228704
  35 H :    0.182577
  36 H :    0.179829
  37 H :    0.182812
  38 H :    0.141621
  39 H :    0.138299
  40 H :    0.177897
  41 H :    0.181830
  42 H :    0.152722
  43 H :    0.139312
  44 H :    0.136342
  45 H :    0.138375
  46 H :    0.139524
  47 H :    0.170343
  48 H :    0.156151
  49 H :    0.195583
  50 H :    0.184484
  51 H :    0.175928
  52 H :    0.430046
  53 H :    0.171583
  54 H :    0.197622
  55 H :    0.145979
Sum of atomic charges:   -0.0000000

--------------------------------
MULLIKEN REDUCED ORBITAL CHARGES
--------------------------------
  0 C s       :     3.315793  s :     3.315793
      pz      :     1.054988  p :     3.152874
      px      :     1.079582
      py      :     1.018304
      dz2     :     0.004408  d :     0.033869
      dxz     :     0.006908
      dyz     :     0.009187
      dx2y2   :     0.009675
      dxy     :     0.003692

  1 C s       :     3.164437  s :     3.164437
      pz      :     0.840616  p :     2.709377
      px      :     0.957385
      py      :     0.911377
      dz2     :     0.015947  d :     0.060187
      dxz     :     0.010149
      dyz     :     0.014330
      dx2y2   :     0.010274
      dxy     :     0.009487

  2 N s       :     3.708489  s :     3.708489
      pz      :     1.491747  p :     3.658865
      px      :     1.142327
      py      :     1.024791
      dz2     :     0.007354  d :     0.039651
      dxz     :     0.008204
      dyz     :     0.012978
      dx2y2   :     0.006046
      dxy     :     0.005070

  3 C s       :     3.039016  s :     3.039016
      pz      :     0.832231  p :     2.645197
      px      :     0.942898
      py      :     0.870068
      dz2     :     0.016154  d :     0.061880
      dxz     :     0.010763
      dyz     :     0.016107
      dx2y2   :     0.009621
      dxy     :     0.009235

  4 C s       :     3.200992  s :     3.200992
      pz      :     0.949117  p :     2.917346
      px      :     0.989973
      py      :     0.978255
      dz2     :     0.010830  d :     0.035353
      dxz     :     0.005405
      dyz     :     0.007883
      dx2y2   :     0.005576
      dxy     :     0.005659

  5 C s       :     3.214256  s :     3.214256
      pz      :     0.933126  p :     2.926857
      px      :     0.993253
      py      :     1.000478
      dz2     :     0.010473  d :     0.035473
      dxz     :     0.007052
      dyz     :     0.008917
      dx2y2   :     0.002941
      dxy     :     0.006090

  6 C s       :     3.126106  s :     3.126106
      pz      :     0.841398  p :     2.675345
      px      :     0.939827
      py      :     0.894120
      dz2     :     0.010679  d :     0.039795
      dxz     :     0.007321
      dyz     :     0.010379
      dx2y2   :     0.006265
      dxy     :     0.005152

  7 C s       :     3.267470  s :     3.267470
      pz      :     1.050925  p :     2.936568
      px      :     0.799216
      py      :     1.086428
      dz2     :     0.010748  d :     0.055311
      dxz     :     0.015221
      dyz     :     0.006407
      dx2y2   :     0.015813
      dxy     :     0.007123

  8 N s       :     3.601236  s :     3.601236
      pz      :     1.660230  p :     3.979563
      px      :     1.120041
      py      :     1.199292
      dz2     :     0.003558  d :     0.032766
      dxz     :     0.005702
      dyz     :     0.004736
      dx2y2   :     0.009273
      dxy     :     0.009497

  9 C s       :     3.033184  s :     3.033184
      pz      :     0.832735  p :     2.547588
      px      :     0.865864
      py      :     0.848989
      dz2     :     0.015470  d :     0.073754
      dxz     :     0.013386
      dyz     :     0.018024
      dx2y2   :     0.011038
      dxy     :     0.015835

 10 N s       :     3.699160  s :     3.699160
      pz      :     1.099782  p :     3.661384
      px      :     1.071199
      py      :     1.490404
      dz2     :     0.007985  d :     0.034804
      dxz     :     0.005228
      dyz     :     0.007583
      dx2y2   :     0.005734
      dxy     :     0.008275

 11 C s       :     3.155077  s :     3.155077
      pz      :     0.941959  p :     2.836628
      px      :     0.936231
      py      :     0.958438
      dz2     :     0.008953  d :     0.053820
      dxz     :     0.009627
      dyz     :     0.011572
      dx2y2   :     0.012238
      dxy     :     0.011430

 12 C s       :     3.139369  s :     3.139369
      pz      :     0.898712  p :     2.687435
      px      :     0.919299
      py      :     0.869424
      dz2     :     0.008163  d :     0.041732
      dxz     :     0.006320
      dyz     :     0.010058
      dx2y2   :     0.008889
      dxy     :     0.008302

 13 C s       :     3.211057  s :     3.211057
      pz      :     0.988767  p :     2.954387
      px      :     0.989573
      py      :     0.976046
      dz2     :     0.005679  d :     0.036310
      dxz     :     0.006570
      dyz     :     0.008861
      dx2y2   :     0.007136
      dxy     :     0.008065

 14 C s       :     3.193255  s :     3.193255
      pz      :     0.954757  p :     2.897720
      px      :     0.975267
      py      :     0.967695
      dz2     :     0.006622  d :     0.036352
      dxz     :     0.005753
      dyz     :     0.009465
      dx2y2   :     0.005678
      dxy     :     0.008833

 15 C s       :     3.196636  s :     3.196636
      pz      :     0.945472  p :     2.886423
      px      :     0.954294
      py      :     0.986657
      dz2     :     0.007702  d :     0.036608
      dxz     :     0.005733
      dyz     :     0.008490
      dx2y2   :     0.009360
      dxy     :     0.005324

 16 C s       :     3.207970  s :     3.207970
      pz      :     0.992728  p :     2.955701
      px      :     0.980301
      py      :     0.982672
      dz2     :     0.005521  d :     0.035497
      dxz     :     0.006273
      dyz     :     0.008749
      dx2y2   :     0.007589
      dxy     :     0.007365

 17 C s       :     3.135714  s :     3.135714
      pz      :     0.904883  p :     2.697129
      px      :     0.938442
      py      :     0.853804
      dz2     :     0.007888  d :     0.041553
      dxz     :     0.006091
      dyz     :     0.010052
      dx2y2   :     0.008648
      dxy     :     0.008874

 18 C s       :     3.179132  s :     3.179132
      pz      :     0.862840  p :     2.687269
      px      :     0.932219
      py      :     0.892210
      dz2     :     0.007669  d :     0.039630
      dxz     :     0.006526
      dyz     :     0.010314
      dx2y2   :     0.007399
      dxy     :     0.007723

 19 C s       :     3.319034  s :     3.319034
      pz      :     1.027748  p :     3.194697
      px      :     1.058570
      py      :     1.108378
      dz2     :     0.005897  d :     0.034159
      dxz     :     0.009167
      dyz     :     0.007034
      dx2y2   :     0.002526
      dxy     :     0.009535

 20 S s       :     5.224434  s :     5.224434
      pz      :     3.016838  p :     9.039423
      px      :     2.978899
      py      :     3.043686
      dz2     :     0.097739  d :     0.534574
      dxz     :     0.118642
      dyz     :     0.119093
      dx2y2   :     0.099363
      dxy     :     0.099737

 21 O s       :     3.925126  s :     3.925126
      pz      :     1.684306  p :     4.576951
      px      :     1.210015
      py      :     1.682630
      dz2     :     0.003041  d :     0.027011
      dxz     :     0.007782
      dyz     :     0.000399
      dx2y2   :     0.007883
      dxy     :     0.007905

 22 O s       :     3.918524  s :     3.918524
      pz      :     1.248771  p :     4.598891
      px      :     1.654816
      py      :     1.695303
      dz2     :     0.009572  d :     0.026486
      dxz     :     0.007666
      dyz     :     0.006852
      dx2y2   :     0.001097
      dxy     :     0.001299

 23 C s       :     3.226237  s :     3.226237
      pz      :     0.948262  p :     2.862158
      px      :     1.024483
      py      :     0.889413
      dz2     :     0.008228  d :     0.038685
      dxz     :     0.006311
      dyz     :     0.012937
      dx2y2   :     0.006439
      dxy     :     0.004770

 24 C s       :     3.211431  s :     3.211431
      pz      :     1.025695  p :     2.904480
      px      :     0.957555
      py      :     0.921229
      dz2     :     0.010627  d :     0.036001
      dxz     :     0.005064
      dyz     :     0.008212
      dx2y2   :     0.005949
      dxy     :     0.006148

 25 C s       :     3.215408  s :     3.215408
      pz      :     0.962519  p :     2.888301
      px      :     0.960287
      py      :     0.965495
      dz2     :     0.009676  d :     0.035721
      dxz     :     0.006747
      dyz     :     0.009695
      dx2y2   :     0.003581
      dxy     :     0.006021

 26 C s       :     3.166219  s :     3.166219
      pz      :     0.870225  p :     2.713305
      px      :     0.963951
      py      :     0.879129
      dz2     :     0.008578  d :     0.038493
      dxz     :     0.006838
      dyz     :     0.012282
      dx2y2   :     0.005688
      dxy     :     0.005106

 27 C s       :     2.999412  s :     2.999412
      pz      :     0.710236  p :     2.357136
      px      :     0.791652
      py      :     0.855249
      dz2     :     0.030910  d :     0.110328
      dxz     :     0.021025
      dyz     :     0.028038
      dx2y2   :     0.016407
      dxy     :     0.013948

 28 O s       :     3.878950  s :     3.878950
      pz      :     1.732769  p :     4.551880
      px      :     1.393517
      py      :     1.425594
      dz2     :     0.003012  d :     0.025470
      dxz     :     0.002497
      dyz     :     0.005347
      dx2y2   :     0.007713
      dxy     :     0.006901

 29 O s       :     3.874696  s :     3.874696
      pz      :     1.305354  p :     4.725558
      px      :     1.780124
      py      :     1.640079
      dz2     :     0.003814  d :     0.021079
      dxz     :     0.004260
      dyz     :     0.007337
      dx2y2   :     0.003107
      dxy     :     0.002561

 30 C s       :     3.211388  s :     3.211388
      pz      :     0.988624  p :     2.894863
      px      :     0.957008
      py      :     0.949231
      dz2     :     0.010719  d :     0.035858
      dxz     :     0.005138
      dyz     :     0.008271
      dx2y2   :     0.005828
      dxy     :     0.005903

 31 C s       :     3.204696  s :     3.204696
      pz      :     0.917709  p :     2.894457
      px      :     0.956818
      py      :     1.019929
      dz2     :     0.009871  d :     0.035828
      dxz     :     0.006747
      dyz     :     0.009309
      dx2y2   :     0.003791
      dxy     :     0.006109

 32 C s       :     3.202728  s :     3.202728
      pz      :     0.993666  p :     2.984889
      px      :     1.005328
      py      :     0.985895
      dz2     :     0.009971  d :     0.036620
      dxz     :     0.005955
      dyz     :     0.009589
      dx2y2   :     0.005884
      dxy     :     0.005221

 33 C s       :     3.190652  s :     3.190652
      pz      :     0.998920  p :     2.885090
      px      :     1.003910
      py      :     0.882260
      dz2     :     0.012498  d :     0.043885
      dxz     :     0.007704
      dyz     :     0.009051
      dx2y2   :     0.007425
      dxy     :     0.007206

 34 S s       :     5.810803  s :     5.810803
      pz      :     3.129995  p :     9.859190
      px      :     3.518976
      py      :     3.210218
      dz2     :     0.038623  d :     0.101303
      dxz     :     0.013550
      dyz     :     0.012924
      dx2y2   :     0.015508
      dxy     :     0.020698

 35 H s       :     0.817423  s :     0.817423

 36 H s       :     0.820171  s :     0.820171

 37 H s       :     0.817188  s :     0.817188

 38 H s       :     0.858379  s :     0.858379

 39 H s       :     0.861701  s :     0.861701

 40 H s       :     0.822103  s :     0.822103

 41 H s       :     0.818170  s :     0.818170

 42 H s       :     0.847278  s :     0.847278

 43 H s       :     0.860688  s :     0.860688

 44 H s       :     0.863658  s :     0.863658

 45 H s       :     0.861625  s :     0.861625

 46 H s       :     0.860476  s :     0.860476

 47 H s       :     0.829657  s :     0.829657

 48 H s       :     0.843849  s :     0.843849

 49 H s       :     0.804417  s :     0.804417

 50 H s       :     0.815516  s :     0.815516

 51 H s       :     0.824072  s :     0.824072

 52 H s       :     0.569954  s :     0.569954

 53 H s       :     0.828417  s :     0.828417

 54 H s       :     0.802378  s :     0.802378

 55 H s       :     0.854021  s :     0.854021



                     *******************************
                     * LOEWDIN POPULATION ANALYSIS *
                     *******************************

----------------------
LOEWDIN ATOMIC CHARGES
----------------------
   0 C :   -0.359303
   1 C :   -0.111323
   2 N :   -0.162722
   3 C :   -0.018027
   4 C :   -0.120218
   5 C :   -0.127894
   6 C :   -0.043887
   7 C :   -0.148745
   8 N :   -0.279372
   9 C :    0.036472
  10 N :   -0.132973
  11 C :   -0.058177
  12 C :   -0.030377
  13 C :   -0.110836
  14 C :   -0.127339
  15 C :   -0.115923
  16 C :   -0.124447
  17 C :   -0.004614
  18 C :   -0.015964
  19 C :   -0.361971
  20 S :    1.269013
  21 O :   -0.561997
  22 O :   -0.576616
  23 C :   -0.169900
  24 C :   -0.107025
  25 C :   -0.089491
  26 C :   -0.042328
  27 C :    0.180075
  28 O :   -0.269289
  29 O :   -0.331721
  30 C :   -0.094971
  31 C :   -0.097216
  32 C :   -0.136412
  33 C :   -0.184937
  34 S :    0.376002
  35 H :    0.150674
  36 H :    0.148420
  37 H :    0.152167
  38 H :    0.143199
  39 H :    0.137817
  40 H :    0.146083
  41 H :    0.140631
  42 H :    0.137418
  43 H :    0.137226
  44 H :    0.135680
  45 H :    0.136888
  46 H :    0.139097
  47 H :    0.141559
  48 H :    0.134067
  49 H :    0.150312
  50 H :    0.160077
  51 H :    0.158177
  52 H :    0.346990
  53 H :    0.154501
  54 H :    0.163651
  55 H :    0.139816

-------------------------------
LOEWDIN REDUCED ORBITAL CHARGES
-------------------------------
  0 C s       :     2.971609  s :     2.971609
      pz      :     1.111910  p :     3.320294
      px      :     1.124165
      py      :     1.084218
      dz2     :     0.008583  d :     0.067400
      dxz     :     0.013307
      dyz     :     0.018901
      dx2y2   :     0.019172
      dxy     :     0.007437

  1 C s       :     2.934837  s :     2.934837
      pz      :     1.018867  p :     3.037467
      px      :     0.992293
      py      :     1.026307
      dz2     :     0.041294  d :     0.139020
      dxz     :     0.023101
      dyz     :     0.034415
      dx2y2   :     0.019754
      dxy     :     0.020457

  2 N s       :     3.257344  s :     3.257344
      pz      :     1.527528  p :     3.819652
      px      :     1.174121
      py      :     1.118003
      dz2     :     0.013330  d :     0.085727
      dxz     :     0.013994
      dyz     :     0.029371
      dx2y2   :     0.014580
      dxy     :     0.014452

  3 C s       :     2.840746  s :     2.840746
      pz      :     1.014673  p :     3.022741
      px      :     0.993985
      py      :     1.014084
      dz2     :     0.043244  d :     0.154540
      dxz     :     0.026307
      dyz     :     0.043337
      dx2y2   :     0.020378
      dxy     :     0.021272

  4 C s       :     2.917957  s :     2.917957
      pz      :     1.076854  p :     3.119479
      px      :     1.005896
      py      :     1.036729
      dz2     :     0.023680  d :     0.082782
      dxz     :     0.011771
      dyz     :     0.021062
      dx2y2   :     0.012591
      dxy     :     0.013679

  5 C s       :     2.920412  s :     2.920412
      pz      :     1.052572  p :     3.124946
      px      :     1.014674
      py      :     1.057701
      dz2     :     0.027662  d :     0.082536
      dxz     :     0.016317
      dyz     :     0.022938
      dx2y2   :     0.005107
      dxy     :     0.010511

  6 C s       :     2.881514  s :     2.881514
      pz      :     1.041020  p :     3.062996
      px      :     0.997336
      py      :     1.024639
      dz2     :     0.027537  d :     0.099376
      dxz     :     0.018266
      dyz     :     0.027799
      dx2y2   :     0.013119
      dxy     :     0.012656

  7 C s       :     2.921924  s :     2.921924
      pz      :     1.092857  p :     3.108826
      px      :     0.907819
      py      :     1.108150
      dz2     :     0.021847  d :     0.117995
      dxz     :     0.032608
      dyz     :     0.013302
      dx2y2   :     0.034867
      dxy     :     0.015371

  8 N s       :     3.177226  s :     3.177226
      pz      :     1.617015  p :     4.019078
      px      :     1.162478
      py      :     1.239586
      dz2     :     0.007301  d :     0.083067
      dxz     :     0.013365
      dyz     :     0.011570
      dx2y2   :     0.025216
      dxy     :     0.025616

  9 C s       :     2.847447  s :     2.847447
      pz      :     0.984215  p :     2.939721
      px      :     0.966645
      py      :     0.988860
      dz2     :     0.034318  d :     0.176360
      dxz     :     0.031900
      dyz     :     0.045513
      dx2y2   :     0.026399
      dxy     :     0.038229

 10 N s       :     3.235902  s :     3.235902
      pz      :     1.173317  p :     3.817889
      px      :     1.126306
      py      :     1.518265
      dz2     :     0.018883  d :     0.079183
      dxz     :     0.015611
      dyz     :     0.015815
      dx2y2   :     0.012008
      dxy     :     0.016866

 11 C s       :     2.911990  s :     2.911990
      pz      :     1.017704  p :     3.022805
      px      :     0.979487
      py      :     1.025613
      dz2     :     0.019950  d :     0.123382
      dxz     :     0.019393
      dyz     :     0.026364
      dx2y2   :     0.029674
      dxy     :     0.028001

 12 C s       :     2.858183  s :     2.858183
      pz      :     1.018419  p :     3.063572
      px      :     0.998073
      py      :     1.047080
      dz2     :     0.020083  d :     0.108621
      dxz     :     0.016118
      dyz     :     0.027516
      dx2y2   :     0.023194
      dxy     :     0.021710

 13 C s       :     2.916100  s :     2.916100
      pz      :     1.038373  p :     3.110115
      px      :     1.012389
      py      :     1.059353
      dz2     :     0.012935  d :     0.084621
      dxz     :     0.012063
      dyz     :     0.021314
      dx2y2   :     0.018851
      dxy     :     0.019458

 14 C s       :     2.916860  s :     2.916860
      pz      :     1.037775  p :     3.124722
      px      :     1.018750
      py      :     1.068197
      dz2     :     0.015710  d :     0.085757
      dxz     :     0.012666
      dyz     :     0.023876
      dx2y2   :     0.014442
      dxy     :     0.019063

 15 C s       :     2.918340  s :     2.918340
      pz      :     1.032588  p :     3.111534
      px      :     1.009112
      py      :     1.069833
      dz2     :     0.017941  d :     0.086050
      dxz     :     0.015379
      dyz     :     0.019946
      dx2y2   :     0.019572
      dxy     :     0.013212

 16 C s       :     2.916805  s :     2.916805
      pz      :     1.046732  p :     3.125255
      px      :     1.027720
      py      :     1.050803
      dz2     :     0.012309  d :     0.082387
      dxz     :     0.011858
      dyz     :     0.020914
      dx2y2   :     0.018495
      dxy     :     0.018809

 17 C s       :     2.856108  s :     2.856108
      pz      :     1.012669  p :     3.042258
      px      :     0.991528
      py      :     1.038061
      dz2     :     0.019195  d :     0.106248
      dxz     :     0.015404
      dyz     :     0.027173
      dx2y2   :     0.022320
      dxy     :     0.022156

 18 C s       :     2.886983  s :     2.886983
      pz      :     1.004104  p :     3.031929
      px      :     0.987233
      py      :     1.040592
      dz2     :     0.018333  d :     0.097051
      dxz     :     0.014844
      dyz     :     0.026225
      dx2y2   :     0.019133
      dxy     :     0.018515

 19 C s       :     2.972646  s :     2.972646
      pz      :     1.076289  p :     3.322965
      px      :     1.108764
      py      :     1.137912
      dz2     :     0.012160  d :     0.066359
      dxz     :     0.018255
      dyz     :     0.013743
      dx2y2   :     0.004409
      dxy     :     0.017793

 20 S s       :     5.105196  s :     5.105196
      pz      :     2.984953  p :     8.949615
      px      :     2.966161
      py      :     2.998501
      dz2     :     0.126190  d :     0.676176
      dxz     :     0.145485
      dyz     :     0.151601
      dx2y2   :     0.130966
      dxy     :     0.121933

 21 O s       :     3.713327  s :     3.713327
      pz      :     1.708561  p :     4.792640
      px      :     1.371286
      py      :     1.712793
      dz2     :     0.008262  d :     0.056031
      dxz     :     0.011837
      dyz     :     0.000607
      dx2y2   :     0.023548
      dxy     :     0.011777

 22 O s       :     3.709805  s :     3.709805
      pz      :     1.395191  p :     4.811403
      px      :     1.693636
      py      :     1.722576
[...]
      dyz     :     0.024993
      dx2y2   :     0.007098
      dxy     :     0.010920

 26 C s       :     2.879296  s :     2.879296
      pz      :     1.043735  p :     3.063336
      px      :     1.004101
      py      :     1.015500
      dz2     :     0.023711  d :     0.099696
      dxz     :     0.017148
      dyz     :     0.033006
      dx2y2   :     0.012812
      dxy     :     0.013018

 27 C s       :     2.864583  s :     2.864583
      pz      :     0.884632  p :     2.702634
      px      :     0.846040
      py      :     0.971961
      dz2     :     0.073015  d :     0.252708
      dxz     :     0.047522
      dyz     :     0.065690
      dx2y2   :     0.034175
      dxy     :     0.032306

 28 O s       :     3.591995  s :     3.591995
      pz      :     1.736700  p :     4.627642
      px      :     1.411335
      py      :     1.479607
      dz2     :     0.006500  d :     0.049653
      dxz     :     0.005066
      dyz     :     0.010633
      dx2y2   :     0.011880
      dxy     :     0.015575

 29 O s       :     3.540707  s :     3.540707
      pz      :     1.338539  p :     4.749043
      px      :     1.767858
      py      :     1.642645
      dz2     :     0.012119  d :     0.041972
      dxz     :     0.008879
      dyz     :     0.013940
      dx2y2   :     0.003933
      dxy     :     0.003100

 30 C s       :     2.919750  s :     2.919750
      pz      :     1.081095  p :     3.091393
      px      :     0.977192
      py      :     1.033106
      dz2     :     0.023118  d :     0.083828
      dxz     :     0.010296
      dyz     :     0.021743
      dx2y2   :     0.013942
      dxy     :     0.014728

 31 C s       :     2.919036  s :     2.919036
      pz      :     1.045975  p :     3.093322
      px      :     0.979338
      py      :     1.068008
      dz2     :     0.026295  d :     0.084858
      dxz     :     0.015489
      dyz     :     0.024723
      dx2y2   :     0.007279
      dxy     :     0.011072

 32 C s       :     2.911290  s :     2.911290
      pz      :     1.070423  p :     3.138814
      px      :     1.026884
      py      :     1.041506
      dz2     :     0.023086  d :     0.086308
      dxz     :     0.013030
      dyz     :     0.023881
      dx2y2   :     0.013112
      dxy     :     0.013199

 33 C s       :     2.901887  s :     2.901887
      pz      :     1.089740  p :     3.171080
      px      :     1.046963
      py      :     1.034378
      dz2     :     0.034827  d :     0.111969
      dxz     :     0.018505
      dyz     :     0.024843
      dx2y2   :     0.016375
      dxy     :     0.017419

 34 S s       :     5.524073  s :     5.524073
      pz      :     3.205981  p :     9.980640
      px      :     3.523537
      py      :     3.251123
      dz2     :     0.047430  d :     0.119285
      dxz     :     0.015076
      dyz     :     0.014874
      dx2y2   :     0.017434
      dxy     :     0.024472

 35 H s       :     0.849326  s :     0.849326

 36 H s       :     0.851580  s :     0.851580

 37 H s       :     0.847833  s :     0.847833

 38 H s       :     0.856801  s :     0.856801

 39 H s       :     0.862183  s :     0.862183

 40 H s       :     0.853917  s :     0.853917

 41 H s       :     0.859369  s :     0.859369

 42 H s       :     0.862582  s :     0.862582

 43 H s       :     0.862774  s :     0.862774

 44 H s       :     0.864320  s :     0.864320

 45 H s       :     0.863112  s :     0.863112

 46 H s       :     0.860903  s :     0.860903

 47 H s       :     0.858441  s :     0.858441

 48 H s       :     0.865933  s :     0.865933

 49 H s       :     0.849688  s :     0.849688

 50 H s       :     0.839923  s :     0.839923

 51 H s       :     0.841823  s :     0.841823

 52 H s       :     0.653010  s :     0.653010

 53 H s       :     0.845499  s :     0.845499

 54 H s       :     0.836349  s :     0.836349

 55 H s       :     0.860184  s :     0.860184



                      *****************************
                      * MAYER POPULATION ANALYSIS *
                      *****************************

  NA   - Mulliken gross atomic population
  ZA   - Total nuclear charge
  QA   - Mulliken gross atomic charge
  VA   - Mayer's total valence
  BVA  - Mayer's bonded valence
  FA   - Mayer's free valence

  ATOM       NA         ZA         QA         VA         BVA        FA
  0 C      6.5025     6.0000    -0.5025     3.8147     3.8147     0.0000
  1 C      5.9340     6.0000     0.0660     3.8775     3.8775    -0.0000
  2 N      7.4070     7.0000    -0.4070     2.9567     2.9567     0.0000
  3 C      5.7461     6.0000     0.2539     4.0517     4.0517     0.0000
  4 C      6.1537     6.0000    -0.1537     3.8849     3.8849     0.0000
  5 C      6.1766     6.0000    -0.1766     3.9145     3.9145    -0.0000
  6 C      5.8412     6.0000     0.1588     3.8779     3.8779    -0.0000
  7 C      6.2593     6.0000    -0.2593     3.8233     3.8233    -0.0000
  8 N      7.6136     7.0000    -0.6136     2.7719     2.7719     0.0000
  9 C      5.6545     6.0000     0.3455     3.8540     3.8540     0.0000
 10 N      7.3953     7.0000    -0.3953     2.9775     2.9775     0.0000
 11 C      6.0455     6.0000    -0.0455     3.8578     3.8578    -0.0000
 12 C      5.8685     6.0000     0.1315     3.9569     3.9569    -0.0000
 13 C      6.2018     6.0000    -0.2018     3.9027     3.9027     0.0000
 14 C      6.1273     6.0000    -0.1273     3.9277     3.9277    -0.0000
 15 C      6.1197     6.0000    -0.1197     3.9271     3.9271    -0.0000
 16 C      6.1992     6.0000    -0.1992     3.8746     3.8746    -0.0000
 17 C      5.8744     6.0000     0.1256     3.9979     3.9979     0.0000
 18 C      5.9060     6.0000     0.0940     3.8723     3.8723     0.0000
 19 C      6.5479     6.0000    -0.5479     3.8248     3.8248     0.0000
 20 S     14.7984    16.0000     1.2016     5.0789     5.0789     0.0000
 21 O      8.5291     8.0000    -0.5291     1.9034     1.9034     0.0000
 22 O      8.5439     8.0000    -0.5439     1.8964     1.8964    -0.0000
 23 C      6.1271     6.0000    -0.1271     3.8425     3.8425     0.0000
 24 C      6.1519     6.0000    -0.1519     3.9142     3.9142     0.0000
 25 C      6.1394     6.0000    -0.1394     3.8951     3.8951     0.0000
 26 C      5.9180     6.0000     0.0820     3.9267     3.9267     0.0000
 27 C      5.4669     6.0000     0.5331     3.9472     3.9472    -0.0000
 28 O      8.4563     8.0000    -0.4563     2.0551     2.0551    -0.0000
 29 O      8.6213     8.0000    -0.6213     1.8708     1.8708     0.0000
 30 C      6.1421     6.0000    -0.1421     3.8749     3.8749     0.0000
 31 C      6.1350     6.0000    -0.1350     3.8980     3.8980     0.0000
 32 C      6.2242     6.0000    -0.2242     3.9255     3.9255    -0.0000
 33 C      6.1196     6.0000    -0.1196     3.8475     3.8475    -0.0000
 34 S     15.7713    16.0000     0.2287     2.4124     2.4124    -0.0000
 35 H      0.8174     1.0000     0.1826     0.9251     0.9251     0.0000
 36 H      0.8202     1.0000     0.1798     0.9308     0.9308    -0.0000
 37 H      0.8172     1.0000     0.1828     0.9355     0.9355    -0.0000
 38 H      0.8584     1.0000     0.1416     0.9398     0.9398    -0.0000
 39 H      0.8617     1.0000     0.1383     0.9471     0.9471     0.0000
 40 H      0.8221     1.0000     0.1779     0.9303     0.9303    -0.0000
 41 H      0.8182     1.0000     0.1818     0.9327     0.9327    -0.0000
 42 H      0.8473     1.0000     0.1527     0.9332     0.9332    -0.0000
 43 H      0.8607     1.0000     0.1393     0.9369     0.9369     0.0000
 44 H      0.8637     1.0000     0.1363     0.9366     0.9366    -0.0000
 45 H      0.8616     1.0000     0.1384     0.9363     0.9363    -0.0000
 46 H      0.8605     1.0000     0.1395     0.9420     0.9420     0.0000
 47 H      0.8297     1.0000     0.1703     0.9306     0.9306     0.0000
 48 H      0.8438     1.0000     0.1562     0.9297     0.9297    -0.0000
 49 H      0.8044     1.0000     0.1956     0.9283     0.9283     0.0000
 50 H      0.8155     1.0000     0.1845     0.9377     0.9377     0.0000
 51 H      0.8241     1.0000     0.1759     0.9403     0.9403     0.0000
 52 H      0.5700     1.0000     0.4300     0.7991     0.7991    -0.0000
 53 H      0.8284     1.0000     0.1716     0.9373     0.9373     0.0000
 54 H      0.8024     1.0000     0.1976     0.9469     0.9469    -0.0000
 55 H      0.8540     1.0000     0.1460     0.9402     0.9402     0.0000

  Mayer bond orders larger than 0.100000
B(  0-C ,  1-C ) :   1.0046 B(  0-C , 35-H ) :   0.9282 B(  0-C , 36-H ) :   0.9317 
B(  0-C , 37-H ) :   0.9359 B(  1-C ,  2-N ) :   1.5784 B(  1-C , 34-S ) :   1.1218 
B(  2-N ,  3-C ) :   1.2089 B(  3-C ,  4-C ) :   1.3361 B(  3-C , 33-C ) :   1.3099 
B(  4-C ,  5-C ) :   1.4755 B(  4-C , 38-H ) :   0.9196 B(  5-C ,  6-C ) :   1.3599 
B(  5-C , 39-H ) :   0.9186 B(  6-C ,  7-C ) :   0.9549 B(  6-C , 32-C ) :   1.4650 
B(  7-C ,  8-N ) :   0.9183 B(  7-C , 40-H ) :   0.9185 B(  7-C , 41-H ) :   0.9195 
B(  8-N ,  9-C ) :   0.8821 B(  8-N , 20-S ) :   0.7882 B(  9-C , 10-N ) :   1.2645 
B(  9-C , 18-C ) :   1.4378 B( 10-N , 11-C ) :   1.4882 B( 11-C , 12-C ) :   1.2376 
B( 11-C , 18-C ) :   0.1008 B( 11-C , 42-H ) :   0.9256 B( 12-C , 13-C ) :   1.2841 
B( 12-C , 17-C ) :   1.2891 B( 13-C , 14-C ) :   1.5139 B( 13-C , 16-C ) :   0.1062 
B( 13-C , 43-H ) :   0.9233 B( 14-C , 15-C ) :   1.3523 B( 14-C , 44-H ) :   0.9292 
B( 15-C , 16-C ) :   1.5094 B( 15-C , 45-H ) :   0.9289 B( 16-C , 17-C ) :   1.2936 
B( 16-C , 46-H ) :   0.9165 B( 17-C , 18-C ) :   1.2655 B( 18-C , 19-C ) :   0.9989 
B( 19-C , 47-H ) :   0.9283 B( 19-C , 48-H ) :   0.9272 B( 19-C , 49-H ) :   0.9263 
B( 20-S , 21-O ) :   1.6694 B( 20-S , 22-O ) :   1.6369 B( 20-S , 23-C ) :   0.8135 
B( 23-C , 24-C ) :   1.3860 B( 23-C , 31-C ) :   1.3940 B( 24-C , 25-C ) :   1.4156 
B( 24-C , 50-H ) :   0.9092 B( 25-C , 26-C ) :   1.3958 B( 25-C , 51-H ) :   0.9102 
B( 26-C , 27-C ) :   1.0106 B( 26-C , 30-C ) :   1.3800 B( 27-C , 28-O ) :   1.8446 
B( 27-C , 29-O ) :   1.0228 B( 29-O , 52-H ) :   0.7440 B( 30-C , 31-C ) :   1.4185 
B( 30-C , 53-H ) :   0.9153 B( 31-C , 54-H ) :   0.8867 B( 32-C , 33-C ) :   1.3208 
B( 32-C , 55-H ) :   0.9160 B( 33-C , 34-S ) :   1.0578 

-------
TIMINGS
-------

Total SCF time: 0 days 0 hours 11 min 8 sec 

Total time                  ....     668.704 sec
Sum of individual times     ....     668.388 sec  (100.0%)

SCF preparation             ....       0.419 sec  (  0.1%)
Fock matrix formation       ....     665.365 sec  ( 99.5%)
  Startup                   ....       0.220 sec  (  0.0% of F)
  Split-RI-J                ....      86.292 sec  ( 13.0% of F)
  Chain of spheres X        ....     524.842 sec  ( 78.9% of F)
  XC integration            ....      53.077 sec  (  8.0% of F)
    XC Preparation          ....       0.000 sec  (  0.0% of XC)
    Basis function eval.    ....      20.233 sec  ( 38.1% of XC)
    Density eval.           ....      13.811 sec  ( 26.0% of XC)
    XC-Functional eval.     ....       2.227 sec  (  4.2% of XC)
    XC-Potential eval.      ....      15.010 sec  ( 28.3% of XC)
Diagonalization             ....       0.000 sec  (  0.0%)
Density matrix formation    ....       0.385 sec  (  0.1%)
Total Energy calculation    ....       0.102 sec  (  0.0%)
Population analysis         ....       0.084 sec  (  0.0%)
Orbital Transformation      ....       0.227 sec  (  0.0%)
Orbital Orthonormalization  ....       0.000 sec  (  0.0%)
DIIS solution               ....       1.307 sec  (  0.2%)
SOSCF solution              ....       0.500 sec  (  0.1%)
Finished LeanSCF after 668.8 sec

Maximum memory used throughout the entire LEANSCF-calculation: 102.5 MB

-------------------------   --------------------
FINAL SINGLE POINT ENERGY     -2263.851259270013
-------------------------   --------------------


------------------------------------------------------------------------------
                              ORCA PROPERTY CALCULATIONS
------------------------------------------------------------------------------

GBWName                                 ... /home/nmrbox/aojoawo/Documents/ERDOS/inputs/CHEMBL3687361.gbw
Number of atoms                         ...     56
Number of basis functions               ...    540
Max core memory                         ...   1024 MB

Electric properties:
Dipole moment                           ... YES
Quadrupole moment                       ...  NO
Static polarizability (Dipole/Dipole)   ...  NO
Static polarizability (Dipole/Quad.)    ...  NO
Static polarizability (Quad./Quad.)     ...  NO
Static polarizability (Velocity)        ...  NO

Atomic electric properties:
Dipole moment                           ...  NO
Quadrupole moment                       ...  NO
Static polarizability                   ...  NO

Choice of electric origin               ... Center of mass
Position of electric origin             ...     0.091557     0.805853    -0.224683

General magnetic properties:
Magnetizability                         ...  NO

EPR properties:
g-Tensor (aka g-matrix)                 ...  NO
Zero-Field splitting spin-orbit         ...  NO
Zero-field splitting spin-spin          ...  NO
Hyperfine couplings                     ...  NO (   0 nuclei)
Quadrupole couplings                    ...  NO (   0 nuclei)
Contact density                         ...  NO (   0 nuclei)

NMR properties:
Chemical shifts                         ...  NO (   0 nuclei)
Spin-rotation constants                 ...  NO (   0 nuclei)
Spin-spin couplings                     ...  NO (   0 nuclei,    0 pairs)

Choice of magnetic origin               ... GIAO
Position of magnetic origin             ...     0.000000     0.000000     0.000000

Properties with geometric perturbations:
SCF Hessian                             ...  NO
IR spectrum                             ...  NO
VCD spectrum                            ...  NO
X-ray spectroscopy properties:
SCF XES/XAS/RIXS spectra                ...  NO


-------------
DIPOLE MOMENT
-------------

Method             : SCF
Type of density    : Electron Density
Multiplicity       :   1
Irrep              :   0
Energy             : -2263.8512592700130881 Eh
Relativity type    : 
Basis              : AO
                                X                 Y                 Z
Electronic contribution:     -0.207383088      14.532703067      -2.309287701
Nuclear contribution   :      0.930574738     -16.013623268       4.000838873
                        -----------------------------------------
Total Dipole Moment    :      0.723191649      -1.480920202       1.691551172
                        -----------------------------------------
Magnitude (a.u.)       :      2.361668091
Magnitude (Debye)      :      6.002883231



--------------------
Rotational spectrum 
--------------------
 
Rotational constants in cm-1:             0.007748             0.002069             0.001986 
Rotational constants in MHz :           232.266444            62.039900            59.548404 

Dipole components along the rotational axes: 
x,y,z [a.u.] :     0.525732     2.302403     0.004559 
x,y,z [Debye]:     1.336304     5.852244     0.011587 

 

Dipole moment calculation done in   0.0 sec 

Maximum memory used throughout the entire PROP-calculation: 50.2 MB

--------------------------------
SUGGESTED CITATIONS FOR THIS RUN
--------------------------------

Below you find a list of papers that are relevant to this ORCA run
We neither can nor want to force you to cite these papers, but we appreciate if you do
You receive ORCA, which is the product of decades of hard work by many enthusiastic individuals, for free
The only thing we kindly ask in return is that you cite our papers,
We deeply appreciate it, if you show your appreciation for ORCA by not just citing the generic ORCA reference.

Please note that relegating all ORCA citations to the supporting information does *not* help us.
SI sections are not indexed - citations you put there will not count into any citation statistics
But we need these citations in order to attract the funding resources that allow us to do what we are doing

Therefore, if you are a happy ORCA user, please consider citing a few of the papers listed below in the main body of your paper

In addition to the list printed below, the program has created the file /home/nmrbox/aojoawo/Documents/ERDOS/inputs/CHEMBL3687361.bibtex that contains the list in bibtex format
You can import this file easily into all common literature databanks and citation aid programs


List of essential papers. We consider these as the minimum necessary citations

  1. Neese,F.
     Software update: the ORCA program system, version 5.0
     WIRES Comput. Molec. Sci., 2022 12(1)e1606
     doi.org/10.1002/wcms.1606

List of papers to cite with high priority. The work reported in these papers was absolutely
necessary for this run to complete.
Our perspective: the developers of density functionals and basis sets usually get cited in chemistry papers
Good! But without the algorithms to do something with them, the functionals or basis sets would not do anything.
Hence, in our opinion, the algorithm design and method developments papers are equally worthy of getting cited

  1. Neese,F.
     An improvement of the resolution of the identity approximation for the formation of the Coulomb matrix
     J. Comp. Chem., 2003 24(14)1740-1747
     doi.org/10.1002/jcc.10318
  2. Neese,F.; Wennmohs,F.; Hansen,A.; Becker,U.
     Efficient, approximate and parallel Hartree-Fock and hybrid DFT calculations. A 'chain-of-spheres' algorithm for the Hartree-Fock exchange
     Chem. Phys., 2009 356(1-3)98-109
     doi.org/10.1016/j.chemphys.2008.10.036
  3. Helmich-Paris,B.; de Souza,B.; Neese,F.; Izsák,R.
     An improved chain of spheres for exchange algorithm
     J. Chem. Phys., 2021 155 104109
     doi.org/doi: 10.1063/5.0058766.
  4. Neese,F.
     The SHARK Integral Generation and Digestion System
     J. Comp. Chem., 2022  1-16
     doi.org/10.1002/jcc.26942

List of suggested additional citations. These are papers that are important in the 'surrounding' of 
of this run, or papers that preceded the highly important papers. If you like your results we are grateful for a citation.

  1. Izsak,R.; Neese,F.
     An overlap fitted chain of spheres exchange method
     J. Chem. Phys., 2011 135 144105
     doi.org/10.1063/1.3646921
  2. Izsak,R.; Hansen,A.; Neese,F.
     The resolution of identity and chain of spheres approximations for the LPNO-CCSD singles Fock term
     Molec. Phys., 2012 110 2413-2417
     doi.org/10.1080/00268976.2012.687466
  3. Neese,F.
     The ORCA program system
     WIRES Comput. Molec. Sci., 2012 2(1)73-78
     doi.org/10.1002/wcms.81
  4. Izsak,R.; Neese,F.; Klopper,W.
     Robust fitting techniques in the chain of spheres approximation to the Fock exchange: The role of the complementary space
     J. Chem. Phys., 2013 139 
     doi.org/10.1063/1.4819264
  5. Neese,F.
     Software update: the ORCA program system, version 4.0
     WIRES Comput. Molec. Sci., 2018 8(1)1-6
     doi.org/10.1002/wcms.1327
  6. Neese,F.; Wennmohs,F.; Becker,U.; Riplinger,C.
     The ORCA quantum chemistry program package
     J. Chem. Phys., 2020 152 Art. No. L224108
     doi.org/10.1063/5.0004608

List of optional additional citations

  1. Neese,F.
     Approximate second-order SCF convergence for spin unrestricted wavefunctions
     Chem. Phys. Lett., 2000 325(1-3)93-98
     doi.org/10.1016/s0009-2614(00)00662-x

Timings for individual modules:

Sum of individual times          ...      693.893 sec (=  11.565 min)
Startup calculation              ...       16.273 sec (=   0.271 min)   2.3 %
SCF iterations                   ...      677.416 sec (=  11.290 min)  97.6 %
Property calculations            ...        0.204 sec (=   0.003 min)   0.0 %
                             ****ORCA TERMINATED NORMALLY****
TOTAL RUN TIME: 0 days 0 hours 11 minutes 34 seconds 534 msec
