
                                 *****************
                                 * O   R   C   A *
                                 *****************

                                            #,                                       
                                            ###                                      
                                            ####                                     
                                            #####                                    
                                            ######                                   
                                           ########,                                 
                                     ,,################,,,,,                         
                               ,,#################################,,                 
                          ,,##########################################,,             
                       ,#########################################, ''#####,          
                    ,#############################################,,   '####,        
                  ,##################################################,,,,####,       
                ,###########''''           ''''###############################       
              ,#####''   ,,,,##########,,,,          '''####'''          '####       
            ,##' ,,,,###########################,,,                        '##       
           ' ,,###''''                  '''############,,,                           
         ,,##''                                '''############,,,,        ,,,,,,###''
      ,#''                                            '''#######################'''  
     '                                                          ''''####''''         
             ,#######,   #######,   ,#######,      ##                                
            ,#'     '#,  ##    ##  ,#'     '#,    #''#        ,####,   ,####,        
            ##       ##  ##   ,#'  ##            #'  '#       #'       #'  '#        
            ##       ##  #######   ##           ,######,      #####,   #    #        
            '#,     ,#'  ##    ##  '#,     ,#' ,#      #,     #,   #   #,  ,#        
             '#######'   ##     ##  '#######'  #'      '#     '####' # '####'        



                #########################################################
                #                        -***-                          #
                #          Department of theory and spectroscopy        #
                #                                                       #
                #                      Frank Neese                      #
                #                                                       #
                #     Directorship, Architecture, Infrastructure        #
                #                    SHARK, DRIVERS                     #
                #        Core code/Algorithms in most modules           #
                #                                                       #
                #        Max Planck Institute fuer Kohlenforschung      #
                #                Kaiser Wilhelm Platz 1                 #
                #                 D-45470 Muelheim/Ruhr                 #
                #                      Germany                          #
                #                                                       #
                #                  All rights reserved                  #
                #                        -***-                          #
                #########################################################


                         Program Version 6.0.0  -   RELEASE  -


 With contributions from (in alphabetic order):
   Daniel Aravena         : Magnetic Suceptibility
   Michael Atanasov       : Ab Initio Ligand Field Theory (pilot matlab implementation)
   Alexander A. Auer      : GIAO ZORA, VPT2 properties, NMR spectrum
   Ute Becker             : All parallelization in ORCA, NUMFREQ, NUMCALC
   Giovanni Bistoni       : ED, misc. LED, open-shell LED, HFLD
   Martin Brehm           : Molecular dynamics
   Dmytro Bykov           : pre 5.0 version of the SCF Hessian
   Marcos Casanova-Páez   : Triplet and SCS-CIS(D). UHF-(DLPNO)-IP/EA/STEOM-CCSD. UHF-CVS-IP/STEOM-CCSD
   Vijay G. Chilkuri      : MRCI spin determinant printing, contributions to CSF-ICE
   Pauline Colinet        : FMM embedding
   Dipayan Datta          : RHF DLPNO-CCSD density
   Achintya Kumar Dutta   : EOM-CC, STEOM-CC
   Nicolas Foglia         : Exact transition moments, OPA infrastructure, MCD improvements
   Dmitry Ganyushin       : Spin-Orbit,Spin-Spin,Magnetic field MRCI
   Miquel Garcia          : C-PCM and meta-GGA Hessian, CCSD/C-PCM, Gaussian charge scheme
   Tiago L. C. Gouveia    : GS-ROHF, GS-ROCIS
   Yang Guo               : DLPNO-NEVPT2, F12-NEVPT2, CIM, IAO-localization
   Andreas Hansen         : Spin unrestricted coupled pair/coupled cluster methods
   Ingolf Harden          : AUTO-CI MPn and infrastructure 
   Benjamin Helmich-Paris : MC-RPA, TRAH-(SCF,CASSCF), AVAS, COSX integrals, SCF dyn. polar.
   Lee Huntington         : MR-EOM, pCC
   Robert Izsak           : Overlap fitted RIJCOSX, COSX-SCS-MP3, EOM
   Riya Kayal             : Wick's Theorem for AUTO-CI, AUTO-CI UHF-CCSDT
   Emily Kempfer          : AUTO-CI, RHF CISDT and CCSDT
   Christian Kollmar      : KDIIS, OOCD, Brueckner-CCSD(T), CCSD density, CASPT2, CASPT2-K, improved NEVPT2
   Axel Koslowski         : Symmetry handling
   Simone Kossmann        : Meta GGA functionals, TD-DFT gradient, OOMP2, (MP2 Hessian; deprecated post 5.0)
   Lucas Lang             : DCDCAS
   Marvin Lechner         : AUTO-CI (C++ implementation), FIC-MRCC
   Spencer Leger          : CASSCF response
   Dagmar Lenk            : GEPOL surface, SMD, ORCA-2-JSON
   Dimitrios Liakos       : Extrapolation schemes; Compound Job, initial MDCI parallelization
   Dimitrios Manganas     : Further ROCIS development; embedding schemes. LFT, Crystal Embedding
   Dimitrios Pantazis     : SARC Basis sets
   Anastasios Papadopoulos: AUTO-CI, single reference methods and gradients
   Taras Petrenko         : pre 6.0 DFT Hessian and TD-DFT gradient, (ASA, deprecated), ECA, 1-Electron XAS/XES, NRVS
   Peter Pinski           : DLPNO-MP2, DLPNO-MP2 Gradient
   Christoph Reimann      : Effective Core Potentials
   Marius Retegan         : Local ZFS, SOC
   Christoph Riplinger    : Optimizer, TS searches, QM/MM, DLPNO-CCSD(T), (RO)-DLPNO pert. Triples
   Michael Roemelt        : Original ROCIS implementation
   Masaaki Saitow         : Open-shell DLPNO-CCSD energy and density
   Barbara Sandhoefer     : DKH picture change effects
   Kantharuban Sivalingam : CASSCF convergence/infrastructure, NEVPT2 and variants, FIC-MRCI
   Bernardo de Souza      : ESD, SOC TD-DFT
   Georgi Stoychev        : AutoAux, RI-MP2 NMR, DLPNO-MP2 response, X2C
   Van Anh Tran           : RI-MP2 g-tensors
   Willem Van den Heuvel  : Paramagnetic NMR
   Zikuan Wang            : NOTCH, Electric field optimization 
   Frank Wennmohs         : Technical directorship and infrastructure
   Hang Xu                : AUTO-CI-Response properties 


 We gratefully acknowledge several colleagues who have allowed us to
 interface, adapt or use parts of their codes:
   Stefan Grimme, W. Hujo, H. Kruse, P. Pracht,  : VdW corrections, initial TS optimization,
                  C. Bannwarth, S. Ehlert,         DFT functionals, gCP, sTDA/sTD-DF
                  L. Wittmann, M. Mueller
   Ed Valeev, F. Pavosevic, A. Kumar             : LibInt (2-el integral package), F12 methods
   Garnet Chan, S. Sharma, J. Yang, R. Olivares  : DMRG
   Ulf Ekstrom                                   : XCFun DFT Library
   Mihaly Kallay                                 : mrcc  (arbitrary order and MRCC methods)
   Frank Weinhold                                : gennbo (NPA and NBO analysis)
   Simon Mueller                                 : openCOSMO-RS
   Christopher J. Cramer and Donald G. Truhlar   : smd solvation model
   Lars Goerigk                                  : TD-DFT with DH, B97 family of functionals
   V. Asgeirsson, H. Jonsson                     : NEB implementation
   FAccTs GmbH                                   : IRC, NEB, NEB-TS, DLPNO-Multilevel, CI-OPT
                                                   MM, QMMM, 2- and 3-layer-ONIOM, Crystal-QMMM,
                                                   LR-CPCM, SF, NACMEs, symmetry and pop. for TD-DFT,
                                                   nearIR, NL-DFT gradient (VV10), updates on ESD,
                                                   ML-optimized integration grids, MBIS, APM,
                                                   GOAT, DOCKER, SOLVATOR, interface openCOSMO-RS
   S Lehtola, MJT Oliveira, MAL Marques          : LibXC Library
   Liviu Ungur et al                             : ANISO software


 Your calculation uses the libint2 library for the computation of 2-el integrals
 For citations please refer to: http://libint.valeyev.net

 Your ORCA version has been built with support for libXC version: 6.2.2
 For citations please refer to: https://libxc.gitlab.io

 This ORCA versions uses:
   CBLAS   interface :  Fast vector & matrix operations
   LAPACKE interface :  Fast linear algebra routines
   SCALAPACK package :  Parallel linear algebra routines
   Shared memory     :  Shared parallel matrices
   BLAS/LAPACK       :  OpenBLAS 0.3.27  USE64BITINT DYNAMIC_ARCH NO_AFFINITY SkylakeX SINGLE_THREADED
        Core in use  :  SkylakeX
   Copyright (c) 2011-2014, The OpenBLAS Project


Warning: RI is on but no J-basis has been assigned. Assigning Def2/J (nothing to worry about!)
================================================================================

----- Orbital basis set information -----
Your calculation utilizes the basis: 6-31G*
   H-He, Li-Ne : W. J. Hehre, R. Ditchfield and J.A. Pople, J. Chem. Phys. 56, 2257 (1972).
                 Note: He and Ne are unpublished basis sets taken from the Gaussian program.
                 Note: Li and B from J. D. Dill and J. A. Pople, J. Chem. Phys. 62, 2921 (1975).
   Na - Ar     : M. M. Francl, W. J. Pietro, W. J. Hehre, J. S. Binkley, M. S. Gordon, 
                 D. J. DeFrees and J. A. Pople, J. Chem. Phys. 77, 3654 (1982).
   K - Zn      : V. A. Rassolov, J. A. Pople, M. A. Ratner, and T. L. Windus, J. Chem. Phys. 109, 1223 (1998).

----- AuxJ basis set information -----
Your calculation utilizes the auxiliary basis: def2/J
   F. Weigend, Phys. Chem. Chem. Phys. 8, 1057 (2006).

================================================================================
                                        WARNINGS
                       Please study these warnings very carefully!
================================================================================


================================================================================
                                       INPUT FILE
================================================================================
NAME = /home/nmrbox/aojoawo/Documents/ERDOS/inputs/CHEMBL3687359.inp
|  1> ! B3LYP 6-31G* SP
|  2> 
|  3> * xyz 0 1
|  4> C 7.8567 -3.7022 -0.3271
|  5> C 6.7675 -2.7375 -0.0067
|  6> N 5.7156 -2.5059 -0.8298
|  7> C 4.9031 -1.5462 -0.3192
|  8> C 3.7273 -1.1061 -0.9267
|  9> C 2.9526 -0.1156 -0.2813
| 10> C 1.6663 0.3621 -0.9010
| 11> N 0.5338 0.0955 -0.0102
| 12> C -0.2114 1.1735 0.5681
| 13> N -0.0093 1.4693 1.8785
| 14> C -0.7051 2.4368 2.5229
| 15> C -1.6873 3.1641 1.8464
| 16> C -2.4301 4.1466 2.5189
| 17> C -3.4250 4.8572 1.8460
| 18> C -3.6797 4.6018 0.5003
| 19> C -2.9387 3.6348 -0.1857
| 20> C -1.9384 2.8895 0.4785
| 21> C -1.1962 1.8705 -0.1733
| 22> C -1.4747 1.5105 -1.6175
| 23> S 0.0348 -1.5296 0.3449
| 24> O 0.9404 -2.5143 -0.3429
| 25> O 0.1105 -1.7690 1.8278
| 26> C -1.6176 -1.7573 -0.2177
| 27> C -1.8726 -2.4197 -1.4257
| 28> C -3.1857 -2.5660 -1.8846
| 29> C -4.2620 -2.0396 -1.1475
| 30> C -5.6522 -2.1926 -1.6300
| 31> O -5.8932 -2.8355 -2.6877
| 32> O -6.7099 -1.6321 -0.9153
| 33> C -3.9981 -1.3653 0.0587
| 34> C -2.6847 -1.2282 0.5195
| 35> C 3.3898 0.4257 0.9518
| 36> C 4.5789 -0.0243 1.5472
| 37> C 5.3106 -1.0098 0.8909
| 38> S 6.7434 -1.7434 1.3650
| 39> H 8.6747 -3.1757 -0.8607
| 40> H 7.4650 -4.5161 -0.9728
| 41> H 8.2551 -4.1464 0.6087
| 42> H 3.4143 -1.5315 -1.8721
| 43> H 1.4831 -0.1401 -1.8763
| 44> H 1.7513 1.4520 -1.1064
| 45> H -0.4993 2.6248 3.5693
| 46> H -2.2463 4.3581 3.5650
| 47> H -4.0046 5.6051 2.3715
| 48> H -4.4518 5.1576 -0.0176
| 49> H -3.1654 3.4762 -1.2308
| 50> H -1.2083 2.3653 -2.2734
| 51> H -0.9085 0.6241 -1.9627
| 52> H -2.5513 1.2646 -1.7441
| 53> H -1.0579 -2.8187 -2.0169
| 54> H -3.3566 -3.0855 -2.8202
| 55> H -7.6657 -1.7341 -1.2355
| 56> H -4.8042 -0.9429 0.6461
| 57> H -2.4996 -0.6988 1.4462
| 58> H 2.8043 1.1861 1.4524
| 59> H 4.9122 0.3778 2.4944
| 60> *
| 61> 
| 62>                          ****END OF INPUT****
================================================================================

                       ****************************
                       * Single Point Calculation *
                       ****************************

---------------------------------
CARTESIAN COORDINATES (ANGSTROEM)
---------------------------------
  C      7.856700   -3.702200   -0.327100
  C      6.767500   -2.737500   -0.006700
  N      5.715600   -2.505900   -0.829800
  C      4.903100   -1.546200   -0.319200
  C      3.727300   -1.106100   -0.926700
  C      2.952600   -0.115600   -0.281300
  C      1.666300    0.362100   -0.901000
  N      0.533800    0.095500   -0.010200
  C     -0.211400    1.173500    0.568100
  N     -0.009300    1.469300    1.878500
  C     -0.705100    2.436800    2.522900
  C     -1.687300    3.164100    1.846400
  C     -2.430100    4.146600    2.518900
  C     -3.425000    4.857200    1.846000
  C     -3.679700    4.601800    0.500300
  C     -2.938700    3.634800   -0.185700
  C     -1.938400    2.889500    0.478500
  C     -1.196200    1.870500   -0.173300
  C     -1.474700    1.510500   -1.617500
  S      0.034800   -1.529600    0.344900
  O      0.940400   -2.514300   -0.342900
  O      0.110500   -1.769000    1.827800
  C     -1.617600   -1.757300   -0.217700
  C     -1.872600   -2.419700   -1.425700
  C     -3.185700   -2.566000   -1.884600
  C     -4.262000   -2.039600   -1.147500
  C     -5.652200   -2.192600   -1.630000
  O     -5.893200   -2.835500   -2.687700
  O     -6.709900   -1.632100   -0.915300
  C     -3.998100   -1.365300    0.058700
  C     -2.684700   -1.228200    0.519500
  C      3.389800    0.425700    0.951800
  C      4.578900   -0.024300    1.547200
  C      5.310600   -1.009800    0.890900
  S      6.743400   -1.743400    1.365000
  H      8.674700   -3.175700   -0.860700
  H      7.465000   -4.516100   -0.972800
  H      8.255100   -4.146400    0.608700
  H      3.414300   -1.531500   -1.872100
  H      1.483100   -0.140100   -1.876300
  H      1.751300    1.452000   -1.106400
  H     -0.499300    2.624800    3.569300
  H     -2.246300    4.358100    3.565000
  H     -4.004600    5.605100    2.371500
  H     -4.451800    5.157600   -0.017600
  H     -3.165400    3.476200   -1.230800
  H     -1.208300    2.365300   -2.273400
  H     -0.908500    0.624100   -1.962700
  H     -2.551300    1.264600   -1.744100
  H     -1.057900   -2.818700   -2.016900
  H     -3.356600   -3.085500   -2.820200
  H     -7.665700   -1.734100   -1.235500
  H     -4.804200   -0.942900    0.646100
  H     -2.499600   -0.698800    1.446200
  H      2.804300    1.186100    1.452400
  H      4.912200    0.377800    2.494400

----------------------------
CARTESIAN COORDINATES (A.U.)
----------------------------
  NO LB      ZA    FRAG     MASS         X           Y           Z
   0 C     6.0000    0    12.011   14.847011   -6.996144   -0.618129
   1 C     6.0000    0    12.011   12.788722   -5.173125   -0.012661
   2 N     7.0000    0    14.007   10.800919   -4.735465   -1.568095
   3 C     6.0000    0    12.011    9.265516   -2.921895   -0.603201
   4 C     6.0000    0    12.011    7.043576   -2.090226   -1.751209
   5 C     6.0000    0    12.011    5.579605   -0.218452   -0.531580
   6 C     6.0000    0    12.011    3.148851    0.684270   -1.702643
   7 N     7.0000    0    14.007    1.008736    0.180469   -0.019275
   8 C     6.0000    0    12.011   -0.399488    2.217594    1.073553
   9 N     7.0000    0    14.007   -0.017574    2.776575    3.549851
  10 C     6.0000    0    12.011   -1.332446    4.604885    4.767590
  11 C     6.0000    0    12.011   -3.188535    5.979282    3.489190
  12 C     6.0000    0    12.011   -4.592223    7.835938    4.760031
  13 C     6.0000    0    12.011   -6.472312    9.178778    3.488434
  14 C     6.0000    0    12.011   -6.953625    8.696142    0.945430
  15 C     6.0000    0    12.011   -5.553338    6.868777   -0.350922
  16 C     6.0000    0    12.011   -3.663045    5.460364    0.904234
  17 C     6.0000    0    12.011   -2.260490    3.534733   -0.327490
  18 C     6.0000    0    12.011   -2.786779    2.854431   -3.056632
  19 S    16.0000    0    32.060    0.065762   -2.890525    0.651767
  20 O     8.0000    0    15.999    1.777098   -4.751338   -0.647987
  21 O     8.0000    0    15.999    0.208815   -3.342926    3.454041
  22 C     6.0000    0    12.011   -3.056821   -3.320816   -0.411393
  23 C     6.0000    0    12.011   -3.538701   -4.572570   -2.694183
  24 C     6.0000    0    12.011   -6.020101   -4.849037   -3.561378
  25 C     6.0000    0    12.011   -8.054013   -3.854285   -2.168461
  26 C     6.0000    0    12.011  -10.681110   -4.143414   -3.080254
  27 O     8.0000    0    15.999  -11.136534   -5.358318   -5.079017
  28 O     8.0000    0    15.999  -12.679873   -3.084222   -1.729666
  29 C     6.0000    0    12.011   -7.555314   -2.580043    0.110927
  30 C     6.0000    0    12.011   -5.073348   -2.320962    0.981713
  31 C     6.0000    0    12.011    6.405794    0.804456    1.798641
  32 C     6.0000    0    12.011    8.652867   -0.045920    2.923784
  33 C     6.0000    0    12.011   10.035580   -1.908245    1.683557
  34 S    16.0000    0    32.060   12.743179   -3.294549    2.579476
  35 H     1.0000    0     1.008   16.392807   -6.001203   -1.626487
  36 H     1.0000    0     1.008   14.106806   -8.534192   -1.838326
  37 H     1.0000    0     1.008   15.599878   -7.835560    1.150276
  38 H     1.0000    0     1.008    6.452092   -2.894116   -3.537756
  39 H     1.0000    0     1.008    2.802653   -0.264751   -3.545693
  40 H     1.0000    0     1.008    3.309477    2.743882   -2.090793
  41 H     1.0000    0     1.008   -0.943540    4.960153    6.744999
  42 H     1.0000    0     1.008   -4.244892    8.235615    6.736874
  43 H     1.0000    0     1.008   -7.567597   10.592104    4.481486
  44 H     1.0000    0     1.008   -8.412683    9.746452   -0.033259
  45 H     1.0000    0     1.008   -5.981739    6.569066   -2.325875
  46 H     1.0000    0     1.008   -2.283356    4.469769   -4.296103
  47 H     1.0000    0     1.008   -1.716816    1.179378   -3.708965
  48 H     1.0000    0     1.008   -4.821258    2.389748   -3.295871
  49 H     1.0000    0     1.008   -1.999141   -5.326571   -3.811389
  50 H     1.0000    0     1.008   -6.343055   -5.830750   -5.329406
  51 H     1.0000    0     1.008  -14.486074   -3.276974   -2.334757
  52 H     1.0000    0     1.008   -9.078622   -1.781823    1.220952
  53 H     1.0000    0     1.008   -4.723559   -1.320541    2.732922
  54 H     1.0000    0     1.008    5.299359    2.241404    2.744638
  55 H     1.0000    0     1.008    9.282713    0.713939    4.713733

--------------------------------
INTERNAL COORDINATES (ANGSTROEM)
--------------------------------
 C      0   0   0     0.000000000000     0.00000000     0.00000000
 C      1   0   0     1.489851969157     0.00000000     0.00000000
 N      2   1   0     1.355590565031   123.18501735     0.00000000
 C      3   2   1     1.357163475783   110.91162891   182.38166232
 C      4   3   2     1.394722158711   124.33051630   181.10523081
 C      5   4   3     1.413432524035   118.96688978   178.82368870
 C      6   5   4     1.505587284086   120.17677800   181.06183287
 N      7   6   5     1.465317866540   110.63137732   119.35298206
 C      8   7   6     1.432423795530   120.70275015   114.77173464
 N      9   8   7     1.358488207531   118.41807613   255.54075645
 C     10   9   8     1.354786053220   122.54091407   182.59383109
 C     11  10   9     1.396901707351   120.17107605     0.87635714
 C     12  11  10     1.403322607243   120.30598424   178.59169232
 C     13  12  11     1.395554649593   120.18409053   180.99925615
 C     14  13  12     1.393201256100   120.18020647   359.53741993
 C     15  14  13     1.398129464678   120.25341192   359.84536873
 C     16  15  14     1.413235231658   120.61612104     1.01562039
 C      9   8   7     1.416091098764   121.38839233    79.29982289
 C     18   9   8     1.514224517699   120.67917495   358.87441965
 S      8   7   6     1.736677005088   121.10595769   293.35156697
 O     20   8   7     1.504265365552   110.24765309     1.72589499
 O     20   8   7     1.504006402912   109.63870143   121.04063791
 C     20   8   7     1.760338549825   108.99001721   241.47600157
 C     23  20   8     1.401093415872   120.50052022   100.84147823
 C     24  23  20     1.398650960748   120.21226337   181.70533166
 C     25  24  23     1.406710723639   120.48113113     0.63652175
 C     26  25  24     1.479483453777   120.62119655   180.00200694
 O     27  26  25     1.261003846148   120.38818609     2.30895196
 O     27  26  25     1.394161263986   120.27288774   182.00267626
 C     26  25  24     1.406855408349   119.01817514   359.92601391
 C     30  26  25     1.398625257172   120.37183378   359.65316442
 C      6   5   4     1.415869040554   119.75842721     1.00266305
 C     32   6   5     1.403908818264   120.55412110   359.25156794
 C      4   3   2     1.384963255830   115.24253829     0.61258700
 S     34   4   3     1.678051134501   109.19405856     0.11865572
 H      1   2   3     1.109529274062   109.58173392    91.13055399
 H      1   2   3     1.110311032999   109.98682565   331.12304427
 H      1   2   3     1.109845863172   109.89288988   211.26845086
 H      5   4   3     1.082919812359   119.99786377   359.58740450
 H      7   6   5     1.112194753629   111.00195161   358.35803987
 H      7   6   5     1.112338154520   108.75991089   240.84486180
 H     11  10   9     1.082889929771   119.07763563   179.90686859
 H     13  12  11     1.082977331249   120.65039314     0.49744407
 H     14  13  12     1.082331197000   119.96788422   179.19720910
 H     15  14  13     1.083177021544   119.87288971   180.11555787
 H     16  15  14     1.081101688094   117.68724228   180.49955977
 H     19  18   9     1.109890449549   109.65656031   244.40259257
 H     19  18   9     1.107000650406   113.18553416     5.11176429
 H     19  18   9     1.111558334052   109.83786546   123.89499749
 H     24  23  20     1.082799395087   120.53203190     1.35627161
 H     25  24  23     1.083713255432   118.78045293   180.21798888
 H     29  27  26     1.013156295939   120.87887255   180.22385514
 H     30  26  25     1.083170222080   120.81456782   179.59216480
 H     31  30  26     1.083189392489   119.35690338   179.49831866
 H     32   6   5     1.082413400693   120.28688648   179.87026266
 H     33  32   6     1.081647419449   120.87867053   180.67571845

---------------------------
INTERNAL COORDINATES (A.U.)
---------------------------
 C      0   0   0     0.000000000000     0.00000000     0.00000000
 C      1   0   0     2.815412201789     0.00000000     0.00000000
 N      2   1   0     2.561694917635   123.18501735     0.00000000
 C      3   2   1     2.564667288191   110.91162891   182.38166232
 C      4   3   2     2.635642912876   124.33051630   181.10523081
 C      5   4   3     2.671000379203   118.96688978   178.82368870
 C      6   5   4     2.845147637636   120.17677800   181.06183287
 N      7   6   5     2.769049466902   110.63137732   119.35298206
 C      8   7   6     2.706888681263   120.70275015   114.77173464
 N      9   8   7     2.567170668395   118.41807613   255.54075645
 C     10   9   8     2.560174610642   122.54091407   182.59383109
 C     11  10   9     2.639761662900   120.17107605     0.87635714
 C     12  11  10     2.651895405230   120.30598424   178.59169232
 C     13  12  11     2.637216092651   120.18409053   180.99925615
 C     14  13  12     2.632768823465   120.18020647   359.53741993
 C     15  14  13     2.642081788007   120.25341192   359.84536873
 C     16  15  14     2.670627550643   120.61612104     1.01562039
 C      9   8   7     2.676024357349   121.38839233    79.29982289
 C     18   9   8     2.861469643720   120.67917495   358.87441965
 S      8   7   6     3.281843922694   121.10595769   293.35156697
 O     20   8   7     2.842649573637   110.24765309     1.72589499
 O     20   8   7     2.842160205168   109.63870143   121.04063791
 C     20   8   7     3.326557762153   108.99001721   241.47600157
 C     23  20   8     2.647682844038   120.50052022   100.84147823
 C     24  23  20     2.643067272759   120.21226337   181.70533166
 C     25  24  23     2.658298017327   120.48113113     0.63652175
 C     26  25  24     2.795818547307   120.62119655   180.00200694
 O     27  26  25     2.382951923041   120.38818609     2.30895196
 O     27  26  25     2.634582975456   120.27288774   182.00267626
 C     26  25  24     2.658571431805   119.01817514   359.92601391
 C     30  26  25     2.643018700041   120.37183378   359.65316442
 C      6   5   4     2.675604728145   119.75842721     1.00266305
 C     32   6   5     2.653003183516   120.55412110   359.25156794
 C      4   3   2     2.617201259063   115.24253829     0.61258700
 S     34   4   3     3.171057082923   109.19405856     0.11865572
 H      1   2   3     2.096706465545   109.58173392    91.13055399
 H      1   2   3     2.098183775840   109.98682565   331.12304427
 H      1   2   3     2.097304732261   109.89288988   211.26845086
 H      5   4   3     2.046421870356   119.99786377   359.58740450
 H      7   6   5     2.101743491943   111.00195161   358.35803987
 H      7   6   5     2.102014480353   108.75991089   240.84486180
 H     11  10   9     2.046365400449   119.07763563   179.90686859
 H     13  12  11     2.046530565306   120.65039314     0.49744407
 H     14  13  12     2.045309548530   119.96788422   179.19720910
 H     15  14  13     2.046907925274   119.87288971   180.11555787
 H     16  15  14     2.042986113418   117.68724228   180.49955977
 H     19  18   9     2.097388988302   109.65656031   244.40259257
 H     19  18   9     2.091928059341   113.18553416     5.11176429
 H     19  18   9     2.100540833236   109.83786546   123.89499749
 H     24  23  20     2.046194314689   120.53203190     1.35627161
 H     25  24  23     2.047921260468   118.78045293   180.21798888
 H     29  27  26     1.914587930182   120.87887255   180.22385514
 H     30  26  25     2.046895076149   120.81456782   179.59216480
 H     31  30  26     2.046931302972   119.35690338   179.49831866
 H     32   6   5     2.045464890996   120.28688648   179.87026266
 H     33  32   6     2.044017396221   120.87867053   180.67571845

---------------------
BASIS SET INFORMATION
---------------------
There are 5 groups of distinct atoms

 Group   1 Type C   : 10s4p1d contracted to 3s2p1d pattern {631/31/1}
 Group   2 Type N   : 10s4p1d contracted to 3s2p1d pattern {631/31/1}
 Group   3 Type S   : 16s10p1d contracted to 4s3p1d pattern {6631/631/1}
 Group   4 Type O   : 10s4p1d contracted to 3s2p1d pattern {631/31/1}
 Group   5 Type H   : 4s contracted to 2s pattern {31}

Atom   0C    basis set group =>   1
Atom   1C    basis set group =>   1
Atom   2N    basis set group =>   2
Atom   3C    basis set group =>   1
Atom   4C    basis set group =>   1
Atom   5C    basis set group =>   1
Atom   6C    basis set group =>   1
Atom   7N    basis set group =>   2
Atom   8C    basis set group =>   1
Atom   9N    basis set group =>   2
Atom  10C    basis set group =>   1
Atom  11C    basis set group =>   1
Atom  12C    basis set group =>   1
Atom  13C    basis set group =>   1
Atom  14C    basis set group =>   1
Atom  15C    basis set group =>   1
Atom  16C    basis set group =>   1
Atom  17C    basis set group =>   1
Atom  18C    basis set group =>   1
Atom  19S    basis set group =>   3
Atom  20O    basis set group =>   4
Atom  21O    basis set group =>   4
Atom  22C    basis set group =>   1
Atom  23C    basis set group =>   1
Atom  24C    basis set group =>   1
Atom  25C    basis set group =>   1
Atom  26C    basis set group =>   1
Atom  27O    basis set group =>   4
Atom  28O    basis set group =>   4
Atom  29C    basis set group =>   1
Atom  30C    basis set group =>   1
Atom  31C    basis set group =>   1
Atom  32C    basis set group =>   1
Atom  33C    basis set group =>   1
Atom  34S    basis set group =>   3
Atom  35H    basis set group =>   5
Atom  36H    basis set group =>   5
Atom  37H    basis set group =>   5
Atom  38H    basis set group =>   5
Atom  39H    basis set group =>   5
Atom  40H    basis set group =>   5
Atom  41H    basis set group =>   5
Atom  42H    basis set group =>   5
Atom  43H    basis set group =>   5
Atom  44H    basis set group =>   5
Atom  45H    basis set group =>   5
Atom  46H    basis set group =>   5
Atom  47H    basis set group =>   5
Atom  48H    basis set group =>   5
Atom  49H    basis set group =>   5
Atom  50H    basis set group =>   5
Atom  51H    basis set group =>   5
Atom  52H    basis set group =>   5
Atom  53H    basis set group =>   5
Atom  54H    basis set group =>   5
Atom  55H    basis set group =>   5
---------------------------------
AUXILIARY/J BASIS SET INFORMATION
---------------------------------
There are 5 groups of distinct atoms

 Group   1 Type C   : 12s5p4d2f1g contracted to 6s4p3d1f1g pattern {711111/2111/211/2/1}
 Group   2 Type N   : 12s5p4d2f1g contracted to 6s4p3d1f1g pattern {711111/2111/211/2/1}
 Group   3 Type S   : 14s5p5d2f1g contracted to 8s4p3d1f1g pattern {71111111/2111/311/2/1}
 Group   4 Type O   : 12s5p4d2f1g contracted to 6s4p3d1f1g pattern {711111/2111/211/2/1}
 Group   5 Type H   : 5s2p1d contracted to 3s1p1d pattern {311/2/1}

Atom   0C    basis set group =>   1
Atom   1C    basis set group =>   1
Atom   2N    basis set group =>   2
Atom   3C    basis set group =>   1
Atom   4C    basis set group =>   1
Atom   5C    basis set group =>   1
Atom   6C    basis set group =>   1
Atom   7N    basis set group =>   2
Atom   8C    basis set group =>   1
Atom   9N    basis set group =>   2
Atom  10C    basis set group =>   1
Atom  11C    basis set group =>   1
Atom  12C    basis set group =>   1
Atom  13C    basis set group =>   1
Atom  14C    basis set group =>   1
Atom  15C    basis set group =>   1
Atom  16C    basis set group =>   1
Atom  17C    basis set group =>   1
Atom  18C    basis set group =>   1
Atom  19S    basis set group =>   3
Atom  20O    basis set group =>   4
Atom  21O    basis set group =>   4
Atom  22C    basis set group =>   1
Atom  23C    basis set group =>   1
Atom  24C    basis set group =>   1
Atom  25C    basis set group =>   1
Atom  26C    basis set group =>   1
Atom  27O    basis set group =>   4
Atom  28O    basis set group =>   4
Atom  29C    basis set group =>   1
Atom  30C    basis set group =>   1
Atom  31C    basis set group =>   1
Atom  32C    basis set group =>   1
Atom  33C    basis set group =>   1
Atom  34S    basis set group =>   3
Atom  35H    basis set group =>   5
Atom  36H    basis set group =>   5
Atom  37H    basis set group =>   5
Atom  38H    basis set group =>   5
Atom  39H    basis set group =>   5
Atom  40H    basis set group =>   5
Atom  41H    basis set group =>   5
Atom  42H    basis set group =>   5
Atom  43H    basis set group =>   5
Atom  44H    basis set group =>   5
Atom  45H    basis set group =>   5
Atom  46H    basis set group =>   5
Atom  47H    basis set group =>   5
Atom  48H    basis set group =>   5
Atom  49H    basis set group =>   5
Atom  50H    basis set group =>   5
Atom  51H    basis set group =>   5
Atom  52H    basis set group =>   5
Atom  53H    basis set group =>   5
Atom  54H    basis set group =>   5
Atom  55H    basis set group =>   5
------------------------------------------------------------------------------
                             ORCA STARTUP CALCULATIONS
                           -- RI-GTO INTEGRALS CHOSEN --
------------------------------------------------------------------------------
------------------------------------------------------------------------------
                   ___                                                        
                  /   \      - P O W E R E D   B Y -                         
                 /     \                                                     
                 |  |  |   _    _      __       _____    __    __             
                 |  |  |  | |  | |    /  \     |  _  \  |  |  /  |          
                  \  \/   | |  | |   /    \    | | | |  |  | /  /          
                 / \  \   | |__| |  /  /\  \   | |_| |  |  |/  /          
                |  |  |   |  __  | /  /__\  \  |    /   |      \           
                |  |  |   | |  | | |   __   |  |    \   |  |\   \          
                \     /   | |  | | |  |  |  |  | |\  \  |  | \   \       
                 \___/    |_|  |_| |__|  |__|  |_| \__\ |__|  \__/        
                                                                              
                      - O R C A' S   B I G   F R I E N D -                    
                                      &                                       
                       - I N T E G R A L  F E E D E R -                       
                                                                              
 v1 FN, 2020, v2 2021, v3 2022-2024                                           
------------------------------------------------------------------------------


----------------------
SHARK INTEGRAL PACKAGE
----------------------

Number of atoms                             ...     56
Number of basis functions                   ...    540
Number of shells                            ...    256
Maximum angular momentum                    ...      2
Integral batch strategy                     ... SHARK/LIBINT Hybrid
RI-J (if used) integral strategy            ... SPLIT-RIJ (Revised 2003 algorithm where possible)
Printlevel                                  ...      1
Contraction scheme used                     ... SEGMENTED contraction
Prescreening option                         ... SCHWARTZ
   Thresh                                   ... 1.000e-10
   Tcut                                     ... 1.000e-11
   Tpresel                                  ... 1.000e-11 
Coulomb Range Separation                    ... NOT USED
Exchange Range Separation                   ... NOT USED
Multipole approximations                    ... NOT USED
Finite Nucleus Model                        ... NOT USED
CABS basis                                  ... NOT available
Auxiliary Coulomb fitting basis             ... AVAILABLE
   # of basis functions in Aux-J            ...   1950
   # of shells in Aux-J                     ...    634
   Maximum angular momentum in Aux-J        ...      4
Auxiliary J/K fitting basis                 ... NOT available
Auxiliary Correlation fitting basis         ... NOT available
Auxiliary 'external' fitting basis          ... NOT available

Checking pre-screening integrals            ... done (  0.0 sec) Dimension = 256
Check shell pair data                       ... done (  0.0 sec)
Shell pair information
Shell pair cut-off parameter TPreSel        ...   1.0e-11
Total number of shell pairs                 ...     32896
Shell pairs after pre-screening             ...     17776
Total number of primitive shell pairs       ...    201519
Primitive shell pairs kept                  ...     55235
          la=0 lb=0:   5589 shell pairs
          la=1 lb=0:   6356 shell pairs
          la=1 lb=1:   1803 shell pairs
          la=2 lb=0:   2353 shell pairs
          la=2 lb=1:   1416 shell pairs
          la=2 lb=2:    259 shell pairs

Calculating one electron integrals          ... done (  0.3 sec)
Calculating RI/J V-Matrix + Cholesky decomp.... done (  0.5 sec)
Calculating Nuclear repulsion               ... done (  0.0 sec) ENN=   3936.359862404432 Eh

Diagonalization of the overlap matrix:
Smallest eigenvalue                        ... 3.519e-04
Time for diagonalization                   ...    0.048 sec
Threshold for overlap eigenvalues          ... 1.000e-07
Number of eigenvalues below threshold      ... 0
Time for construction of square roots      ...    0.037 sec
Total time needed                          ...    0.096 sec

-------------------
DFT GRID GENERATION
-------------------

General Integration Accuracy     IntAcc      ... 4.388
Radial Grid Type                 RadialGrid  ... OptM3 with GC (2021)
Angular Grid (max. ang.)         AngularGrid ... 4 (Lebedev-302)
Angular grid pruning method      GridPruning ... 4 (adaptive)
Weight generation scheme         WeightScheme... mBecke (2022)
Basis function cutoff            BFCut       ... 1.0000e-10
Integration weight cutoff        WCut        ... 1.0000e-14
Partially contracted basis set               ... off
Rotationally invariant grid construction     ... off
Angular grids for H and He will be reduced by one unit

Total number of grid points                  ...   278118
Total number of batches                      ...     4374
Average number of points per batch           ...       63
Average number of grid points per atom       ...     4966

--------------------
COSX GRID GENERATION
--------------------

GRIDX 1
-------
General Integration Accuracy     IntAcc      ... 3.816
Radial Grid Type                 RadialGrid  ... OptM3 with GC (2021)
Angular Grid (max. ang.)         AngularGrid ... 1 (Lebedev-50)
Angular grid pruning method      GridPruning ... 4 (adaptive)
Weight generation scheme         WeightScheme... mBecke (2022)
Basis function cutoff            BFCut       ... 1.0000e-10
Integration weight cutoff        WCut        ... 1.0000e-14
Partially contracted basis set               ... on
Rotationally invariant grid construction     ... off
Angular grids for H and He will be reduced by one unit

Total number of grid points                  ...    37270
Total number of batches                      ...      321
Average number of points per batch           ...      116
Average number of grid points per atom       ...      666
UseSFitting                                  ... on

GRIDX 2
-------
General Integration Accuracy     IntAcc      ... 4.020
Radial Grid Type                 RadialGrid  ... OptM3 with GC (2021)
Angular Grid (max. ang.)         AngularGrid ... 2 (Lebedev-110)
Angular grid pruning method      GridPruning ... 4 (adaptive)
Weight generation scheme         WeightScheme... mBecke (2022)
Basis function cutoff            BFCut       ... 1.0000e-10
Integration weight cutoff        WCut        ... 1.0000e-14
Partially contracted basis set               ... on
Rotationally invariant grid construction     ... off
Angular grids for H and He will be reduced by one unit

Total number of grid points                  ...    76822
Total number of batches                      ...      628
Average number of points per batch           ...      122
Average number of grid points per atom       ...     1372
UseSFitting                                  ... on

GRIDX 3
-------
General Integration Accuracy     IntAcc      ... 4.338
Radial Grid Type                 RadialGrid  ... OptM3 with GC (2021)
Angular Grid (max. ang.)         AngularGrid ... 3 (Lebedev-194)
Angular grid pruning method      GridPruning ... 4 (adaptive)
Weight generation scheme         WeightScheme... mBecke (2022)
Basis function cutoff            BFCut       ... 1.0000e-10
Integration weight cutoff        WCut        ... 1.0000e-14
Partially contracted basis set               ... on
Rotationally invariant grid construction     ... off
Angular grids for H and He will be reduced by one unit

Total number of grid points                  ...   169000
Total number of batches                      ...     1351
Average number of points per batch           ...      125
Average number of grid points per atom       ...     3018
UseSFitting                                  ... on
Initializing property integral containers    ... done (  0.0 sec)

SHARK setup successfully completed in  13.5 seconds

Maximum memory used throughout the entire STARTUP-calculation: 122.0 MB
-------------------------------------------------------------------------------
                                 ORCA GUESS
                   Start orbitals & Density for SCF / CASSCF
-------------------------------------------------------------------------------

------------
SCF SETTINGS
------------
Hamiltonian:
 Density Functional     Method          .... DFT(GTOs)
 Exchange Functional    Exchange        .... B88
   X-Alpha parameter    XAlpha          ....  0.666667
   Becke's b parameter  XBeta           ....  0.004200
 Correlation Functional Correlation     .... LYP
 LDA part of GGA corr.  LDAOpt          .... VWN-5
 Gradients option       PostSCFGGA      .... off
 Hybrid DFT is turned on
   Fraction HF Exchange ScalHFX         ....  0.200000
   Scaling of DF-GGA-X  ScalDFX         ....  0.720000
   Scaling of DF-GGA-C  ScalDFC         ....  0.810000
   Scaling of DF-LDA-C  ScalLDAC        ....  1.000000
   Perturbative correction              ....  0.000000
   NL short-range parameter             ....  4.800000
 RI-approximation to the Coulomb term is turned on
   Number of AuxJ basis functions       .... 1950
   RIJ-COSX (HFX calculated with COS-X)).... on


General Settings:
 Integral files         IntName         .... /home/nmrbox/aojoawo/Documents/ERDOS/inputs/CHEMBL3687359
 Hartree-Fock type      HFTyp           .... RHF
 Total Charge           Charge          ....    0
 Multiplicity           Mult            ....    1
 Number of Electrons    NEL             ....  262
 Basis Dimension        Dim             ....  540
 Nuclear Repulsion      ENuc            ....   3936.3598624044 Eh

Convergence Acceleration:
 AO-DIIS                CNVDIIS         .... on
   Start iteration      DIISMaxIt       ....    12
   Startup error        DIISStart       ....  0.200000
   # of expansion vecs  DIISMaxEq       ....     5
   Bias factor          DIISBfac        ....   1.050
   Max. coefficient     DIISMaxC        ....  10.000
 MO-DIIS                CNVKDIIS        .... off
 Trust-Rad. Augm. Hess. CNVTRAH         .... auto
   Auto Start mean grad. ratio tolernc. ....  1.125000
   Auto Start start iteration           ....    50
   Auto Start num. interpolation iter.  ....    10
   Max. Number of Micro iterations      ....    24
   Max. Number of Macro iterations      .... Maxiter - #DIIS iter
   Number of Davidson start vectors     ....     2
   Converg. threshold    (grad. norm)   ....   5.000e-05
   Grad. Scal. Fac. for Micro threshold ....   0.100
   Minimum threshold for Micro iter.    ....   1.000e-02
   NR start threshold (gradient norm)   ....   1.000e-04
   Initial trust radius                 ....   0.400
   Minimum AH scaling param. (alpha)    ....   1.000
   Maximum AH scaling param. (alpha)    .... 1000.000
   Quad. conv. algorithm                .... NR
   White noise on init. David. guess    .... on
   Maximum white noise                  ....   0.010
   Pseudo random numbers                .... off
   Inactive MOs                         .... canonical
   Orbital update algorithm             .... Taylor
   Preconditioner                       .... Diag
   Full preconditioner red. dimension   ....   250
 SOSCF                  CNVSOSCF        .... on
   Start iteration      SOSCFMaxIt      ....   150
   Startup grad/error   SOSCFStart      ....  0.003300
   Hessian update       SOSCFHessUp     .... L-BFGS
 Level Shifting         CNVShift        .... on
   Level shift para.    LevelShift      ....    0.2500
   Turn off err/grad.   ShiftErr        ....    0.0010
 Zerner damping         CNVZerner       .... off
 Static damping         CNVDamp         .... on
   Fraction old density DampFac         ....    0.7000
   Max. Damping (<1)    DampMax         ....    0.9800
   Min. Damping (>=0)   DampMin         ....    0.0000
   Turn off err/grad.   DampErr         ....    0.1000

SCF Procedure:
 Maximum # iterations   MaxIter         ....   125
 SCF integral mode      SCFMode         .... Direct
   Integral package                     .... SHARK and LIBINT hybrid scheme
 Reset frequency        DirectResetFreq ....    20
 Integral Threshold     Thresh          ....  1.000e-10 Eh
 Primitive CutOff       TCut            ....  1.000e-11 Eh

Convergence Tolerance:
 Convergence Check Mode ConvCheckMode   .... Total+1el-Energy
 Convergence forced     ConvForced      .... 0
 Energy Change          TolE            ....  1.000e-06 Eh
 1-El. energy change                    ....  1.000e-03 Eh
 Orbital Gradient       TolG            ....  5.000e-05
 Orbital Rotation angle TolX            ....  5.000e-05
 DIIS Error             TolErr          ....  1.000e-06

------------------------------
INITIAL GUESS: MODEL POTENTIAL
------------------------------
Loading Hartree-Fock densities                     ... done
Calculating cut-offs                               ... done
Initializing the effective Hamiltonian             ... done
Setting up the integral package (SHARK)            ... done
Starting the Coulomb interaction                   ... done (   3.4 sec)
Making the grid                                    ... done (   1.6 sec)
Mapping shells                                     ... done
Starting the XC term evaluation                    ... done (   1.2 sec)
  promolecular density results
     # of electrons  =    262.015724680
     EX              =   -242.551815203
     EC              =     -9.233861782
     EX+EC           =   -251.785676985
Transforming the Hamiltonian                       ... done (   0.0 sec)
Diagonalizing the Hamiltonian                      ... done (   0.1 sec)
Back transforming the eigenvectors                 ... done (   0.0 sec)
Now organizing SCF variables                       ... done
                      ------------------
                      INITIAL GUESS DONE (   6.3 sec)
                      ------------------
             **** ENERGY FILE WAS UPDATED (/home/nmrbox/aojoawo/Documents/ERDOS/inputs/CHEMBL3687359.en.tmp) ****
Finished Guess after   6.7 sec
Maximum memory used throughout the entire GUESS-calculation: 67.4 MB

-------------------------------------------------------------------------------------------
                                      ORCA LEAN-SCF
                              memory conserving SCF solver
-------------------------------------------------------------------------------------------

----------------------------------------D-I-I-S--------------------------------------------
Iteration    Energy (Eh)           Delta-E    RMSDP     MaxDP     DIISErr   Damp  Time(sec)
-------------------------------------------------------------------------------------------
               ***  Starting incremental Fock matrix formation  ***
    1    -2262.8034784584651788     0.00e+00  2.59e-03  1.89e-01  2.94e-01  0.700  69.8
Warning: op=0 Small HOMO/LUMO gap (   0.099) - skipping pre-diagonalization
         Will do a full diagonalization
    2    -2263.3084302007500810    -5.05e-01  1.51e-03  6.64e-02  9.55e-02  0.700  31.6
                               ***Turning on AO-DIIS***
    3    -2263.4847201034217505    -1.76e-01  6.10e-04  2.68e-02  4.10e-02  0.700  30.4
    4    -2263.5944501202648098    -1.10e-01  1.08e-03  6.79e-02  1.86e-02  0.000  27.2
    5    -2263.8418319388920281    -2.47e-01  2.48e-04  1.36e-02  7.73e-03  0.000  29.4
                              *** Initializing SOSCF ***
---------------------------------------S-O-S-C-F--------------------------------------
Iteration    Energy (Eh)           Delta-E    RMSDP     MaxDP     MaxGrad    Time(sec)
--------------------------------------------------------------------------------------
    6    -2263.8436478220992285    -1.82e-03  9.22e-05  3.88e-03  3.25e-03    26.0
               *** Restarting incremental Fock matrix formation ***
    7    -2263.8437861661586794    -1.38e-04  8.44e-05  4.16e-03  5.48e-04    70.5
    8    -2263.8436933577377204     9.28e-05  5.37e-05  2.79e-03  1.71e-03    40.6
    9    -2263.8438345500308060    -1.41e-04  1.30e-05  5.82e-04  1.02e-04    38.1
   10    -2263.8438321880239528     2.36e-06  8.02e-06  3.97e-04  2.27e-04    30.9
   11    -2263.8438355685138959    -3.38e-06  3.25e-06  2.15e-04  4.14e-05    29.6
   12    -2263.8438355071612023     6.14e-08  1.98e-06  1.26e-04  6.93e-05    22.3
                 **** Energy Check signals convergence ****

               *****************************************************
               *                     SUCCESS                       *
               *           SCF CONVERGED AFTER  12 CYCLES          *
               *****************************************************

Recomputing exchange energy using gridx3       ... done (  127.151 sec)
Old exchange energy                            :    -49.025299560 Eh
New exchange energy                            :    -49.025262035 Eh
Exchange energy change after final integration :      0.000037525 Eh
Total energy after final integration           :  -2263.843797982 Eh
             **** ENERGY FILE WAS UPDATED (/home/nmrbox/aojoawo/Documents/ERDOS/inputs/CHEMBL3687359.en.tmp) ****

----------------
TOTAL SCF ENERGY
----------------

Total Energy       :      -2263.84379798212285 Eh          -61602.32154 eV

Components:
Nuclear Repulsion  :       3936.35986240443162 Eh          107113.79742 eV
Electronic Energy  :      -6200.20369791159283 Eh         -168716.11998 eV
One Electron Energy:     -10930.94182579061271 Eh         -297446.04894 eV
Two Electron Energy:       4730.73812787901988 Eh          128729.92896 eV

Virial components:
Potential Energy   :      -4516.72790171553606 Eh         -122906.41465 eV
Kinetic Energy     :       2252.88410373341276 Eh           61304.09310 eV
Virial Ratio       :          2.00486473948240

DFT components:
N(Alpha)           :      131.000101598382 electrons
N(Beta)            :      131.000101598382 electrons
N(Total)           :      262.000203196764 electrons
E(X)               :     -194.805294297063 Eh       
E(C)               :      -10.847179636274 Eh       
E(XC)              :     -205.652473933337 Eh       

---------------
SCF CONVERGENCE
---------------

  Last Energy change         ...   -6.1353e-08  Tolerance :   1.0000e-06
  Last MAX-Density change    ...    1.2602e-04  Tolerance :   1.0000e-05
  Last RMS-Density change    ...    1.9801e-06  Tolerance :   1.0000e-06
  Last DIIS Error            ...    3.2452e-03  Tolerance :   1.0000e-06
  Last Orbital Gradient      ...    6.9329e-05  Tolerance :   5.0000e-05
  Last Orbital Rotation      ...    1.3021e-04  Tolerance :   5.0000e-05


----------------
ORBITAL ENERGIES
----------------

  NO   OCC          E(Eh)            E(eV) 
   0   2.0000     -89.093245     -2424.3505 
   1   2.0000     -88.878806     -2418.5153 
   2   2.0000     -19.197367      -522.3869 
   3   2.0000     -19.139117      -520.8018 
   4   2.0000     -19.122300      -520.3442 
   5   2.0000     -19.115715      -520.1651 
   6   2.0000     -14.366353      -390.9283 
   7   2.0000     -14.334497      -390.0615 
   8   2.0000     -14.309775      -389.3888 
   9   2.0000     -10.336439      -281.2688 
  10   2.0000     -10.263644      -279.2879 
  11   2.0000     -10.240644      -278.6621 
  12   2.0000     -10.238866      -278.6137 
  13   2.0000     -10.232323      -278.4357 
  14   2.0000     -10.229907      -278.3699 
  15   2.0000     -10.229664      -278.3633 
  16   2.0000     -10.219457      -278.0856 
  17   2.0000     -10.219174      -278.0779 
  18   2.0000     -10.217630      -278.0358 
  19   2.0000     -10.217578      -278.0344 
  20   2.0000     -10.217252      -278.0256 
  21   2.0000     -10.213956      -277.9359 
  22   2.0000     -10.206981      -277.7461 
  23   2.0000     -10.205229      -277.6984 
  24   2.0000     -10.204385      -277.6754 
  25   2.0000     -10.203591      -277.6538 
  26   2.0000     -10.202633      -277.6278 
  27   2.0000     -10.194172      -277.3975 
  28   2.0000     -10.194084      -277.3951 
  29   2.0000     -10.193461      -277.3782 
  30   2.0000     -10.186437      -277.1870 
  31   2.0000     -10.180908      -277.0366 
  32   2.0000     -10.179149      -276.9887 
  33   2.0000     -10.172006      -276.7943 
  34   2.0000     -10.169642      -276.7300 
  35   2.0000      -8.128709      -221.1934 
  36   2.0000      -7.957356      -216.5307 
  37   2.0000      -6.093878      -165.8228 
  38   2.0000      -6.091852      -165.7677 
  39   2.0000      -6.091180      -165.7494 
  40   2.0000      -5.920263      -161.0985 
  41   2.0000      -5.916469      -160.9953 
  42   2.0000      -5.914035      -160.9291 
  43   2.0000      -1.081483       -29.4286 
  44   2.0000      -1.076926       -29.3046 
  45   2.0000      -0.996109       -27.1055 
  46   2.0000      -0.964183       -26.2367 
  47   2.0000      -0.954536       -25.9742 
  48   2.0000      -0.950333       -25.8599 
  49   2.0000      -0.914951       -24.8971 
  50   2.0000      -0.889456       -24.2033 
  51   2.0000      -0.871018       -23.7016 
  52   2.0000      -0.835509       -22.7354 
  53   2.0000      -0.814629       -22.1672 
  54   2.0000      -0.806743       -21.9526 
  55   2.0000      -0.800784       -21.7904 
  56   2.0000      -0.783210       -21.3122 
  57   2.0000      -0.775925       -21.1140 
  58   2.0000      -0.766789       -20.8654 
  59   2.0000      -0.748767       -20.3750 
  60   2.0000      -0.734480       -19.9862 
  61   2.0000      -0.715268       -19.4634 
  62   2.0000      -0.711214       -19.3531 
  63   2.0000      -0.695226       -18.9181 
  64   2.0000      -0.668053       -18.1787 
  65   2.0000      -0.654042       -17.7974 
  66   2.0000      -0.650570       -17.7029 
  67   2.0000      -0.637801       -17.3554 
  68   2.0000      -0.619760       -16.8645 
  69   2.0000      -0.603233       -16.4148 
  70   2.0000      -0.597877       -16.2691 
  71   2.0000      -0.595583       -16.2066 
  72   2.0000      -0.573788       -15.6136 
  73   2.0000      -0.562647       -15.3104 
  74   2.0000      -0.548740       -14.9320 
  75   2.0000      -0.544056       -14.8045 
  76   2.0000      -0.536801       -14.6071 
  77   2.0000      -0.509206       -13.8562 
  78   2.0000      -0.506253       -13.7759 
  79   2.0000      -0.492647       -13.4056 
  80   2.0000      -0.483926       -13.1683 
  81   2.0000      -0.480820       -13.0838 
  82   2.0000      -0.476792       -12.9742 
  83   2.0000      -0.469948       -12.7879 
  84   2.0000      -0.466150       -12.6846 
  85   2.0000      -0.462055       -12.5732 
  86   2.0000      -0.461085       -12.5468 
  87   2.0000      -0.456589       -12.4244 
  88   2.0000      -0.450650       -12.2628 
  89   2.0000      -0.447948       -12.1893 
  90   2.0000      -0.443719       -12.0742 
  91   2.0000      -0.441057       -12.0018 
  92   2.0000      -0.436337       -11.8733 
  93   2.0000      -0.435501       -11.8506 
  94   2.0000      -0.426368       -11.6021 
  95   2.0000      -0.419464       -11.4142 
  96   2.0000      -0.415594       -11.3089 
  97   2.0000      -0.413500       -11.2519 
  98   2.0000      -0.409438       -11.1414 
  99   2.0000      -0.405172       -11.0253 
 100   2.0000      -0.398142       -10.8340 
 101   2.0000      -0.392924       -10.6920 
 102   2.0000      -0.390875       -10.6363 
 103   2.0000      -0.388510       -10.5719 
 104   2.0000      -0.384732       -10.4691 
 105   2.0000      -0.381432       -10.3793 
 106   2.0000      -0.376252       -10.2383 
 107   2.0000      -0.375203       -10.2098 
 108   2.0000      -0.368787       -10.0352 
 109   2.0000      -0.360813        -9.8182 
 110   2.0000      -0.359107        -9.7718 
 111   2.0000      -0.345402        -9.3989 
 112   2.0000      -0.330240        -8.9863 
 113   2.0000      -0.325748        -8.8641 
 114   2.0000      -0.320947        -8.7334 
 115   2.0000      -0.314372        -8.5545 
 116   2.0000      -0.301939        -8.2162 
 117   2.0000      -0.297708        -8.1010 
 118   2.0000      -0.290435        -7.9031 
 119   2.0000      -0.287425        -7.8212 
 120   2.0000      -0.284309        -7.7364 
 121   2.0000      -0.278548        -7.5797 
 122   2.0000      -0.276253        -7.5172 
 123   2.0000      -0.275289        -7.4910 
 124   2.0000      -0.263292        -7.1645 
 125   2.0000      -0.255033        -6.9398 
 126   2.0000      -0.252860        -6.8807 
 127   2.0000      -0.247064        -6.7230 
 128   2.0000      -0.231018        -6.2863 
 129   2.0000      -0.217055        -5.9064 
 130   2.0000      -0.208988        -5.6868 
 131   0.0000      -0.082633        -2.2486 
 132   0.0000      -0.068458        -1.8628 
 133   0.0000      -0.038434        -1.0458 
 134   0.0000      -0.029251        -0.7960 
 135   0.0000      -0.019286        -0.5248 
 136   0.0000       0.004971         0.1353 
 137   0.0000       0.010135         0.2758 
 138   0.0000       0.015877         0.4320 
 139   0.0000       0.037336         1.0160 
 140   0.0000       0.040176         1.0932 
 141   0.0000       0.041496         1.1292 
*Only the first 10 virtual orbitals were printed.

                    ********************************
                    * MULLIKEN POPULATION ANALYSIS *
                    ********************************

-----------------------
MULLIKEN ATOMIC CHARGES
-----------------------
   0 C :   -0.498089
   1 C :    0.067302
   2 N :   -0.408385
   3 C :    0.250393
   4 C :   -0.163999
   5 C :    0.141832
   6 C :   -0.232931
   7 N :   -0.600465
   8 C :    0.268508
   9 N :   -0.354566
  10 C :   -0.060038
  11 C :    0.136018
  12 C :   -0.202357
  13 C :   -0.126611
  14 C :   -0.120051
  15 C :   -0.200477
  16 C :    0.119690
  17 C :    0.106115
  18 C :   -0.540274
  19 S :    1.209906
  20 O :   -0.543077
  21 O :   -0.517169
  22 C :   -0.128414
  23 C :   -0.150376
  24 C :   -0.140537
  25 C :    0.081039
  26 C :    0.527231
  27 O :   -0.443940
  28 O :   -0.624793
  29 C :   -0.151344
  30 C :   -0.145289
  31 C :   -0.144790
  32 C :   -0.172875
  33 C :   -0.122241
  34 S :    0.213917
  35 H :    0.179006
  36 H :    0.191025
  37 H :    0.163709
  38 H :    0.136850
  39 H :    0.161060
  40 H :    0.173309
  41 H :    0.157715
  42 H :    0.142898
  43 H :    0.138689
  44 H :    0.139939
  45 H :    0.139989
  46 H :    0.164776
  47 H :    0.170808
  48 H :    0.167780
  49 H :    0.188664
  50 H :    0.180849
  51 H :    0.433676
  52 H :    0.172486
  53 H :    0.186185
  54 H :    0.144360
  55 H :    0.137363
Sum of atomic charges:    0.0000000

--------------------------------
MULLIKEN REDUCED ORBITAL CHARGES
--------------------------------
  0 C s       :     3.313935  s :     3.313935
      pz      :     1.073948  p :     3.150126
      px      :     1.036099
      py      :     1.040078
      dz2     :     0.004426  d :     0.034029
      dxz     :     0.007434
      dyz     :     0.008372
      dx2y2   :     0.004041
      dxy     :     0.009755

  1 C s       :     3.158992  s :     3.158992
      pz      :     0.874545  p :     2.713701
      px      :     0.911503
      py      :     0.927653
      dz2     :     0.013973  d :     0.060005
      dxz     :     0.012636
      dyz     :     0.010956
      dx2y2   :     0.010744
      dxy     :     0.011696

  2 N s       :     3.709186  s :     3.709186
      pz      :     1.399004  p :     3.659543
      px      :     1.043144
      py      :     1.217395
      dz2     :     0.007265  d :     0.039656
      dxz     :     0.010918
      dyz     :     0.008031
      dx2y2   :     0.007206
      dxy     :     0.006236

  3 C s       :     3.039656  s :     3.039656
      pz      :     0.872232  p :     2.648361
      px      :     0.892535
      py      :     0.883594
      dz2     :     0.012561  d :     0.061590
      dxz     :     0.012624
      dyz     :     0.011225
      dx2y2   :     0.012900
      dxy     :     0.012281

  4 C s       :     3.198246  s :     3.198246
      pz      :     0.956351  p :     2.930648
      px      :     0.993709
      py      :     0.980587
      dz2     :     0.007404  d :     0.035106
      dxz     :     0.007678
      dyz     :     0.006679
      dx2y2   :     0.007288
      dxy     :     0.006056

  5 C s       :     3.140457  s :     3.140457
      pz      :     0.864739  p :     2.678381
      px      :     0.876241
      py      :     0.937400
      dz2     :     0.008424  d :     0.039330
      dxz     :     0.009581
      dyz     :     0.006914
      dx2y2   :     0.007220
      dxy     :     0.007192

  6 C s       :     3.248145  s :     3.248145
      pz      :     0.975506  p :     2.929086
      px      :     0.869701
      py      :     1.083880
      dz2     :     0.013296  d :     0.055699
      dxz     :     0.014001
      dyz     :     0.006696
      dx2y2   :     0.015972
      dxy     :     0.005734

  7 N s       :     3.590733  s :     3.590733
      pz      :     1.525794  p :     3.976957
      px      :     1.367396
      py      :     1.083767
      dz2     :     0.005134  d :     0.032775
      dxz     :     0.005109
      dyz     :     0.005512
      dx2y2   :     0.009171
      dxy     :     0.007848

  8 C s       :     3.069561  s :     3.069561
      pz      :     0.802139  p :     2.587225
      px      :     0.919474
      py      :     0.865613
      dz2     :     0.019955  d :     0.074707
      dxz     :     0.015824
      dyz     :     0.019794
      dx2y2   :     0.008584
      dxy     :     0.010550

  9 N s       :     3.695868  s :     3.695868
      pz      :     1.116478  p :     3.623280
      px      :     1.321493
      py      :     1.185309
      dz2     :     0.010050  d :     0.035418
      dxz     :     0.007343
      dyz     :     0.005437
      dx2y2   :     0.006137
      dxy     :     0.006452

 10 C s       :     3.167060  s :     3.167060
      pz      :     0.961197  p :     2.839056
      px      :     0.949234
      py      :     0.928625
      dz2     :     0.016003  d :     0.053922
      dxz     :     0.008711
      dyz     :     0.010813
      dx2y2   :     0.008877
      dxy     :     0.009519

 11 C s       :     3.139182  s :     3.139182
      pz      :     0.859826  p :     2.682984
      px      :     0.904628
      py      :     0.918530
      dz2     :     0.010327  d :     0.041816
      dxz     :     0.009238
      dyz     :     0.009240
      dx2y2   :     0.006713
      dxy     :     0.006298

 12 C s       :     3.212102  s :     3.212102
      pz      :     0.992071  p :     2.954020
      px      :     0.977934
      py      :     0.984014
      dz2     :     0.010955  d :     0.036236
      dxz     :     0.006535
      dyz     :     0.006525
      dx2y2   :     0.006464
      dxy     :     0.005757

 13 C s       :     3.194103  s :     3.194103
      pz      :     0.938062  p :     2.896094
      px      :     0.974800
      py      :     0.983232
      dz2     :     0.008719  d :     0.036414
      dxz     :     0.008903
      dyz     :     0.009002
      dx2y2   :     0.003571
      dxy     :     0.006219

 14 C s       :     3.196472  s :     3.196472
      pz      :     0.937638  p :     2.886983
      px      :     0.978654
      py      :     0.970692
      dz2     :     0.008816  d :     0.036596
      dxz     :     0.009351
      dyz     :     0.008660
      dx2y2   :     0.003690
      dxy     :     0.006079

 15 C s       :     3.209722  s :     3.209722
      pz      :     0.983567  p :     2.955240
      px      :     0.991841
      py      :     0.979832
      dz2     :     0.010896  d :     0.035516
      dxz     :     0.006724
      dyz     :     0.006165
      dx2y2   :     0.006083
      dxy     :     0.005648

 16 C s       :     3.137461  s :     3.137461
      pz      :     0.877151  p :     2.701433
      px      :     0.915690
      py      :     0.908591
      dz2     :     0.010434  d :     0.041416
      dxz     :     0.008720
      dyz     :     0.008864
      dx2y2   :     0.007006
      dxy     :     0.006393

 17 C s       :     3.183199  s :     3.183199
      pz      :     0.845333  p :     2.670972
      px      :     0.906117
      py      :     0.919522
      dz2     :     0.009057  d :     0.039714
      dxz     :     0.008798
      dyz     :     0.009665
      dx2y2   :     0.006603
      dxy     :     0.005590

 18 C s       :     3.318259  s :     3.318259
      pz      :     1.017626  p :     3.187825
      px      :     1.088878
      py      :     1.081322
      dz2     :     0.008555  d :     0.034189
      dxz     :     0.003896
      dyz     :     0.009186
      dx2y2   :     0.007007
      dxy     :     0.005545

 19 S s       :     5.217717  s :     5.217717
      pz      :     2.996147  p :     9.034525
      px      :     3.052081
      py      :     2.986297
      dz2     :     0.132948  d :     0.537852
      dxz     :     0.111477
      dyz     :     0.110425
      dx2y2   :     0.115398
      dxy     :     0.067603

 20 O s       :     3.923203  s :     3.923203
      pz      :     1.647215  p :     4.592961
      px      :     1.517107
      py      :     1.428639
      dz2     :     0.003806  d :     0.026914
      dxz     :     0.004426
      dyz     :     0.004991
      dx2y2   :     0.006839
      dxy     :     0.006851

 21 O s       :     3.926379  s :     3.926379
      pz      :     1.230967  p :     4.563869
      px      :     1.693277
      py      :     1.639625
      dz2     :     0.010146  d :     0.026921
      dxz     :     0.007607
      dyz     :     0.008086
      dx2y2   :     0.000450
      dxy     :     0.000632

 22 C s       :     3.226023  s :     3.226023
      pz      :     0.980311  p :     2.863777
      px      :     0.856814
      py      :     1.026652
      dz2     :     0.009293  d :     0.038614
      dxz     :     0.010169
      dyz     :     0.005380
      dx2y2   :     0.008215
      dxy     :     0.005557

 23 C s       :     3.210832  s :     3.210832
      pz      :     0.945859  p :     2.903671
      px      :     0.998405
      py      :     0.959406
      dz2     :     0.007226  d :     0.035874
      dxz     :     0.010999
      dyz     :     0.005230
      dx2y2   :     0.006138
      dxy     :     0.006280

 24 C s       :     3.215541  s :     3.215541
      pz      :     0.994158  p :     2.889396
      px      :     0.937380
      py      :     0.957859
      dz2     :     0.007207  d :     0.035599
      dxz     :     0.009541
      dyz     :     0.005358
      dx2y2   :     0.006377
      dxy     :     0.007116

 25 C s       :     3.166072  s :     3.166072
      pz      :     0.886300  p :     2.714488
      px      :     0.864896
      py      :     0.963292
      dz2     :     0.008913  d :     0.038401
      dxz     :     0.010003
      dyz     :     0.005647
      dx2y2   :     0.008194
      dxy     :     0.005644

 26 C s       :     2.998164  s :     2.998164
      pz      :     0.763101  p :     2.364614
      px      :     0.826066
      py      :     0.775446
      dz2     :     0.023416  d :     0.109992
      dxz     :     0.035175
      dyz     :     0.016970
      dx2y2   :     0.014980
      dxy     :     0.019451

 27 O s       :     3.878315  s :     3.878315
      pz      :     1.364353  p :     4.539996
      px      :     1.776925
      py      :     1.398718
      dz2     :     0.008946  d :     0.025629
      dxz     :     0.004586
      dyz     :     0.007404
      dx2y2   :     0.002624
      dxy     :     0.002069

 28 O s       :     3.872858  s :     3.872858
      pz      :     1.717361  p :     4.731060
      px      :     1.247523
      py      :     1.766176
      dz2     :     0.003160  d :     0.020876
      dxz     :     0.006936
      dyz     :     0.003172
      dx2y2   :     0.005039
      dxy     :     0.002569

 29 C s       :     3.212765  s :     3.212765
      pz      :     0.975029  p :     2.902918
      px      :     0.962506
      py      :     0.965383
      dz2     :     0.007052  d :     0.035662
      dxz     :     0.010981
      dyz     :     0.005203
      dx2y2   :     0.005867
      dxy     :     0.006558

 30 C s       :     3.205599  s :     3.205599
      pz      :     1.005800  p :     2.903721
      px      :     0.927282
      py      :     0.970639
      dz2     :     0.007046  d :     0.035969
      dxz     :     0.009718
      dyz     :     0.005620
      dx2y2   :     0.006421
      dxy     :     0.007164

 31 C s       :     3.199922  s :     3.199922
      pz      :     0.957172  p :     2.909424
      px      :     0.959002
      py      :     0.993251
      dz2     :     0.007497  d :     0.035443
      dxz     :     0.008363
      dyz     :     0.007226
      dx2y2   :     0.004765
      dxy     :     0.007593

 32 C s       :     3.192813  s :     3.192813
      pz      :     0.991614  p :     2.943543
      px      :     0.973557
      py      :     0.978372
      dz2     :     0.007473  d :     0.036518
      dxz     :     0.008543
      dyz     :     0.006581
      dx2y2   :     0.007158
      dxy     :     0.006763

 33 C s       :     3.185257  s :     3.185257
      pz      :     1.013095  p :     2.893028
      px      :     0.872421
      py      :     1.007513
      dz2     :     0.009825  d :     0.043956
      dxz     :     0.008013
      dyz     :     0.008534
      dx2y2   :     0.009341
      dxy     :     0.008243

 34 S s       :     5.804873  s :     5.804873
      pz      :     3.334461  p :     9.880179
      px      :     3.256896
      py      :     3.288823
      dz2     :     0.020564  d :     0.101031
      dxz     :     0.015908
      dyz     :     0.024682
      dx2y2   :     0.023112
      dxy     :     0.016763

 35 H s       :     0.820994  s :     0.820994

 36 H s       :     0.808975  s :     0.808975

 37 H s       :     0.836291  s :     0.836291

 38 H s       :     0.863150  s :     0.863150

 39 H s       :     0.838940  s :     0.838940

 40 H s       :     0.826691  s :     0.826691

 41 H s       :     0.842285  s :     0.842285

 42 H s       :     0.857102  s :     0.857102

 43 H s       :     0.861311  s :     0.861311

 44 H s       :     0.860061  s :     0.860061

 45 H s       :     0.860011  s :     0.860011

 46 H s       :     0.835224  s :     0.835224

 47 H s       :     0.829192  s :     0.829192

 48 H s       :     0.832220  s :     0.832220

 49 H s       :     0.811336  s :     0.811336

 50 H s       :     0.819151  s :     0.819151

 51 H s       :     0.566324  s :     0.566324

 52 H s       :     0.827514  s :     0.827514

 53 H s       :     0.813815  s :     0.813815

 54 H s       :     0.855640  s :     0.855640

 55 H s       :     0.862637  s :     0.862637



                     *******************************
                     * LOEWDIN POPULATION ANALYSIS *
                     *******************************

----------------------
LOEWDIN ATOMIC CHARGES
----------------------
   0 C :   -0.357614
   1 C :   -0.115458
   2 N :   -0.161362
   3 C :   -0.017846
   4 C :   -0.110190
   5 C :   -0.036140
   6 C :   -0.140015
   7 N :   -0.282523
   8 C :    0.016312
   9 N :   -0.114036
  10 C :   -0.059563
  11 C :   -0.030296
  12 C :   -0.110826
  13 C :   -0.125277
  14 C :   -0.116543
  15 C :   -0.124696
  16 C :   -0.009587
  17 C :   -0.017322
  18 C :   -0.361089
  19 S :    1.267739
  20 O :   -0.569518
  21 O :   -0.553871
  22 C :   -0.172397
  23 C :   -0.105310
  24 C :   -0.087318
  25 C :   -0.041694
  26 C :    0.180054
  27 O :   -0.260439
  28 O :   -0.336398
  29 C :   -0.101945
  30 C :   -0.105140
  31 C :   -0.123111
  32 C :   -0.131880
  33 C :   -0.184499
  34 S :    0.364208
  35 H :    0.148197
  36 H :    0.155968
  37 H :    0.140553
  38 H :    0.142477
  39 H :    0.129153
  40 H :    0.144396
  41 H :    0.139791
  42 H :    0.138913
  43 H :    0.136696
  44 H :    0.137518
  45 H :    0.139182
  46 H :    0.138807
  47 H :    0.139936
  48 H :    0.139890
  49 H :    0.162266
  50 H :    0.160431
  51 H :    0.349409
  52 H :    0.154425
  53 H :    0.159398
  54 H :    0.140999
  55 H :    0.137184

-------------------------------
LOEWDIN REDUCED ORBITAL CHARGES
-------------------------------
  0 C s       :     2.971383  s :     2.971383
      pz      :     1.126228  p :     3.318501
      px      :     1.092431
      py      :     1.099842
      dz2     :     0.008019  d :     0.067730
      dxz     :     0.014606
      dyz     :     0.016248
      dx2y2   :     0.008781
      dxy     :     0.020075

  1 C s       :     2.933937  s :     2.933937
      pz      :     1.007125  p :     3.042724
      px      :     1.024604
      py      :     1.010995
      dz2     :     0.033307  d :     0.138798
      dxz     :     0.031054
      dyz     :     0.026334
      dx2y2   :     0.022697
      dxy     :     0.025406

  2 N s       :     3.257232  s :     3.257232
      pz      :     1.445146  p :     3.818399
      px      :     1.130315
      py      :     1.242938
      dz2     :     0.011900  d :     0.085731
      dxz     :     0.026262
      dyz     :     0.014169
      dx2y2   :     0.018364
      dxy     :     0.015037

  3 C s       :     2.839952  s :     2.839952
      pz      :     1.022692  p :     3.023756
      px      :     1.018534
      py      :     0.982529
      dz2     :     0.032975  d :     0.154139
      dxz     :     0.032666
      dyz     :     0.028632
      dx2y2   :     0.028625
      dxy     :     0.031242

  4 C s       :     2.918566  s :     2.918566
      pz      :     1.057118  p :     3.109989
      px      :     1.033286
      py      :     1.019585
      dz2     :     0.015927  d :     0.081635
      dxz     :     0.018778
      dyz     :     0.013993
      dx2y2   :     0.016682
      dxy     :     0.016255

  5 C s       :     2.882334  s :     2.882334
      pz      :     1.035280  p :     3.055802
      px      :     1.002160
      py      :     1.018361
      dz2     :     0.021232  d :     0.098005
      dxz     :     0.024098
      dyz     :     0.018488
      dx2y2   :     0.017025
      dxy     :     0.017161

  6 C s       :     2.922656  s :     2.922656
      pz      :     1.030437  p :     3.099059
      px      :     0.959856
      py      :     1.108766
      dz2     :     0.027167  d :     0.118300
      dxz     :     0.031635
      dyz     :     0.013161
      dx2y2   :     0.033909
      dxy     :     0.012429

  7 N s       :     3.170984  s :     3.170984
      pz      :     1.519942  p :     4.028016
      px      :     1.356787
      py      :     1.151287
      dz2     :     0.012079  d :     0.083523
      dxz     :     0.010944
      dyz     :     0.014698
      dx2y2   :     0.024705
      dxy     :     0.021096

  8 C s       :     2.849715  s :     2.849715
      pz      :     0.998730  p :     2.955413
      px      :     0.996665
      py      :     0.960018
      dz2     :     0.048799  d :     0.178560
      dxz     :     0.038201
      dyz     :     0.047800
      dx2y2   :     0.019457
      dxy     :     0.024302

  9 N s       :     3.239943  s :     3.239943
      pz      :     1.228945  p :     3.794133
      px      :     1.333082
      py      :     1.232106
      dz2     :     0.025608  d :     0.079959
      dxz     :     0.016823
      dyz     :     0.015154
      dx2y2   :     0.009664
      dxy     :     0.012711

 10 C s       :     2.913270  s :     2.913270
      pz      :     1.058472  p :     3.022750
      px      :     0.986773
      py      :     0.977504
      dz2     :     0.034509  d :     0.123542
      dxz     :     0.019630
      dyz     :     0.025458
      dx2y2   :     0.018485
      dxy     :     0.025460

 11 C s       :     2.859127  s :     2.859127
      pz      :     1.045140  p :     3.062310
      px      :     1.010062
      py      :     1.007109
      dz2     :     0.027639  d :     0.108858
      dxz     :     0.024822
      dyz     :     0.024978
      dx2y2   :     0.014777
      dxy     :     0.016642

 12 C s       :     2.916370  s :     2.916370
      pz      :     1.069808  p :     3.109965
      px      :     1.022763
      py      :     1.017395
      dz2     :     0.023497  d :     0.084491
      dxz     :     0.015868
      dyz     :     0.015317
      dx2y2   :     0.014154
      dxy     :     0.015655

 13 C s       :     2.917054  s :     2.917054
      pz      :     1.065896  p :     3.122318
      px      :     1.029654
      py      :     1.026768
      dz2     :     0.022996  d :     0.085905
      dxz     :     0.022480
      dyz     :     0.020573
      dx2y2   :     0.007315
      dxy     :     0.012541

 14 C s       :     2.918355  s :     2.918355
      pz      :     1.066359  p :     3.112118
      px      :     1.025028
      py      :     1.020730
      dz2     :     0.023112  d :     0.086071
      dxz     :     0.021451
      dyz     :     0.021830
      dx2y2   :     0.007489
      dxy     :     0.012188

 15 C s       :     2.917334  s :     2.917334
      pz      :     1.072366  p :     3.124972
      px      :     1.026422
      py      :     1.026184
      dz2     :     0.023162  d :     0.082390
      dxz     :     0.015846
      dyz     :     0.015008
      dx2y2   :     0.013206
      dxy     :     0.015167

 16 C s       :     2.856337  s :     2.856337
      pz      :     1.037618  p :     3.047074
      px      :     1.005707
      py      :     1.003749
      dz2     :     0.027811  d :     0.106176
      dxz     :     0.023385
      dyz     :     0.023776
      dx2y2   :     0.015269
      dxy     :     0.015934

 17 C s       :     2.890196  s :     2.890196
      pz      :     1.027259  p :     3.029351
      px      :     0.993921
      py      :     1.008171
      dz2     :     0.023515  d :     0.097775
      dxz     :     0.022021
      dyz     :     0.023246
      dx2y2   :     0.014242
      dxy     :     0.014752

 18 C s       :     2.972549  s :     2.972549
      pz      :     1.061002  p :     3.322093
      px      :     1.132015
      py      :     1.129076
      dz2     :     0.017883  d :     0.066448
      dxz     :     0.008113
      dyz     :     0.018144
      dx2y2   :     0.012402
      dxy     :     0.009906

 19 S s       :     5.102649  s :     5.102649
      pz      :     2.978448  p :     8.949444
      px      :     3.012854
      py      :     2.958141
      dz2     :     0.174161  d :     0.680168
      dxz     :     0.136464
      dyz     :     0.135885
      dx2y2   :     0.147311
      dxy     :     0.086347

 20 O s       :     3.711118  s :     3.711118
      pz      :     1.690552  p :     4.802645
      px      :     1.591356
      py      :     1.520737
      dz2     :     0.006531  d :     0.055755
      dxz     :     0.010211
      dyz     :     0.011692
      dx2y2   :     0.009415
      dxy     :     0.017906

 21 O s       :     3.715002  s :     3.715002
      pz      :     1.389085  p :     4.782844
      px      :     1.718898
      py      :     1.674861
      dz2     :     0.030273  d :     0.056024
      dxz     :     0.011067
      dyz     :     0.013163
[...]
      dyz     :     0.014419
      dx2y2   :     0.020443
      dxy     :     0.013904

 26 C s       :     2.864025  s :     2.864025
      pz      :     0.918907  p :     2.704015
      px      :     0.943771
      py      :     0.841338
      dz2     :     0.051851  d :     0.251907
      dxz     :     0.082031
      dyz     :     0.041417
      dx2y2   :     0.033107
      dxy     :     0.043500

 27 O s       :     3.593207  s :     3.593207
      pz      :     1.427899  p :     4.617322
      px      :     1.772531
      py      :     1.416892
      dz2     :     0.016067  d :     0.049910
      dxz     :     0.008885
      dyz     :     0.017124
      dx2y2   :     0.004088
      dxy     :     0.003746

 28 O s       :     3.541431  s :     3.541431
      pz      :     1.719302  p :     4.753300
      px      :     1.277604
      py      :     1.756394
      dz2     :     0.005452  d :     0.041667
      dxz     :     0.014426
      dyz     :     0.004981
      dx2y2   :     0.009978
      dxy     :     0.006830

 29 C s       :     2.920675  s :     2.920675
      pz      :     1.038764  p :     3.097920
      px      :     1.076106
      py      :     0.983051
      dz2     :     0.017092  d :     0.083349
      dxz     :     0.026926
      dyz     :     0.011192
      dx2y2   :     0.014087
      dxy     :     0.014052

 30 C s       :     2.918656  s :     2.918656
      pz      :     1.055977  p :     3.101125
      px      :     1.058219
      py      :     0.986928
      dz2     :     0.015940  d :     0.085360
      dxz     :     0.024784
      dyz     :     0.009560
      dx2y2   :     0.018114
      dxy     :     0.016961

 31 C s       :     2.919036  s :     2.919036
      pz      :     1.042179  p :     3.121785
      px      :     1.041166
      py      :     1.038440
      dz2     :     0.018012  d :     0.082290
      dxz     :     0.021929
      dyz     :     0.015414
      dx2y2   :     0.011135
      dxy     :     0.015802

 32 C s       :     2.908890  s :     2.908890
      pz      :     1.057493  p :     3.136418
      px      :     1.049083
      py      :     1.029842
      dz2     :     0.016691  d :     0.086572
      dxz     :     0.020033
      dyz     :     0.014377
      dx2y2   :     0.017463
      dxy     :     0.018008

 33 C s       :     2.902668  s :     2.902668
      pz      :     1.072479  p :     3.170128
      px      :     1.029400
      py      :     1.068249
      dz2     :     0.024979  d :     0.111703
      dxz     :     0.021277
      dyz     :     0.022587
      dx2y2   :     0.021878
      dxy     :     0.020981

 34 S s       :     5.522673  s :     5.522673
      pz      :     3.394922  p :     9.994247
      px      :     3.298208
      py      :     3.301117
      dz2     :     0.023564  d :     0.118873
      dxz     :     0.017940
      dyz     :     0.030237
      dx2y2   :     0.027296
      dxy     :     0.019836

 35 H s       :     0.851803  s :     0.851803

 36 H s       :     0.844032  s :     0.844032

 37 H s       :     0.859447  s :     0.859447

 38 H s       :     0.857523  s :     0.857523

 39 H s       :     0.870847  s :     0.870847

 40 H s       :     0.855604  s :     0.855604

 41 H s       :     0.860209  s :     0.860209

 42 H s       :     0.861087  s :     0.861087

 43 H s       :     0.863304  s :     0.863304

 44 H s       :     0.862482  s :     0.862482

 45 H s       :     0.860818  s :     0.860818

 46 H s       :     0.861193  s :     0.861193

 47 H s       :     0.860064  s :     0.860064

 48 H s       :     0.860110  s :     0.860110

 49 H s       :     0.837734  s :     0.837734

 50 H s       :     0.839569  s :     0.839569

 51 H s       :     0.650591  s :     0.650591

 52 H s       :     0.845575  s :     0.845575

 53 H s       :     0.840602  s :     0.840602

 54 H s       :     0.859001  s :     0.859001

 55 H s       :     0.862816  s :     0.862816



                      *****************************
                      * MAYER POPULATION ANALYSIS *
                      *****************************

  NA   - Mulliken gross atomic population
  ZA   - Total nuclear charge
  QA   - Mulliken gross atomic charge
  VA   - Mayer's total valence
  BVA  - Mayer's bonded valence
  FA   - Mayer's free valence

  ATOM       NA         ZA         QA         VA         BVA        FA
  0 C      6.4981     6.0000    -0.4981     3.8192     3.8192     0.0000
  1 C      5.9327     6.0000     0.0673     3.8749     3.8749    -0.0000
  2 N      7.4084     7.0000    -0.4084     2.9596     2.9596     0.0000
  3 C      5.7496     6.0000     0.2504     4.0515     4.0515     0.0000
  4 C      6.1640     6.0000    -0.1640     3.8910     3.8910     0.0000
  5 C      5.8582     6.0000     0.1418     3.9011     3.9011     0.0000
  6 C      6.2329     6.0000    -0.2329     3.8288     3.8288     0.0000
  7 N      7.6005     7.0000    -0.6005     2.7771     2.7771     0.0000
  8 C      5.7315     6.0000     0.2685     3.8765     3.8765     0.0000
  9 N      7.3546     7.0000    -0.3546     2.9752     2.9752     0.0000
 10 C      6.0600     6.0000    -0.0600     3.8566     3.8566    -0.0000
 11 C      5.8640     6.0000     0.1360     3.9469     3.9469    -0.0000
 12 C      6.2024     6.0000    -0.2024     3.8997     3.8997     0.0000
 13 C      6.1266     6.0000    -0.1266     3.9265     3.9265     0.0000
 14 C      6.1201     6.0000    -0.1201     3.9259     3.9259     0.0000
 15 C      6.2005     6.0000    -0.2005     3.8738     3.8738    -0.0000
 16 C      5.8803     6.0000     0.1197     3.9926     3.9926    -0.0000
 17 C      5.8939     6.0000     0.1061     3.8522     3.8522    -0.0000
 18 C      6.5403     6.0000    -0.5403     3.8272     3.8272    -0.0000
 19 S     14.7901    16.0000     1.2099     5.0757     5.0757    -0.0000
 20 O      8.5431     8.0000    -0.5431     1.8836     1.8836    -0.0000
 21 O      8.5172     8.0000    -0.5172     1.9270     1.9270     0.0000
 22 C      6.1284     6.0000    -0.1284     3.8354     3.8354     0.0000
 23 C      6.1504     6.0000    -0.1504     3.9118     3.9118     0.0000
 24 C      6.1405     6.0000    -0.1405     3.8914     3.8914     0.0000
 25 C      5.9190     6.0000     0.0810     3.9243     3.9243    -0.0000
 26 C      5.4728     6.0000     0.5272     3.9527     3.9527     0.0000
 27 O      8.4439     8.0000    -0.4439     2.0677     2.0677     0.0000
 28 O      8.6248     8.0000    -0.6248     1.8670     1.8670    -0.0000
 29 C      6.1513     6.0000    -0.1513     3.8698     3.8698    -0.0000
 30 C      6.1453     6.0000    -0.1453     3.9201     3.9201     0.0000
 31 C      6.1448     6.0000    -0.1448     3.9018     3.9018     0.0000
 32 C      6.1729     6.0000    -0.1729     3.9292     3.9292    -0.0000
 33 C      6.1222     6.0000    -0.1222     3.8500     3.8500     0.0000
 34 S     15.7861    16.0000     0.2139     2.3811     2.3811     0.0000
 35 H      0.8210     1.0000     0.1790     0.9256     0.9256    -0.0000
 36 H      0.8090     1.0000     0.1910     0.9320     0.9320     0.0000
 37 H      0.8363     1.0000     0.1637     0.9325     0.9325     0.0000
 38 H      0.8631     1.0000     0.1369     0.9455     0.9455     0.0000
 39 H      0.8389     1.0000     0.1611     0.9335     0.9335    -0.0000
 40 H      0.8267     1.0000     0.1733     0.9299     0.9299     0.0000
 41 H      0.8423     1.0000     0.1577     0.9324     0.9324     0.0000
 42 H      0.8571     1.0000     0.1429     0.9363     0.9363    -0.0000
 43 H      0.8613     1.0000     0.1387     0.9362     0.9362    -0.0000
 44 H      0.8601     1.0000     0.1399     0.9361     0.9361     0.0000
 45 H      0.8600     1.0000     0.1400     0.9418     0.9418    -0.0000
 46 H      0.8352     1.0000     0.1648     0.9290     0.9290     0.0000
 47 H      0.8292     1.0000     0.1708     0.9389     0.9389    -0.0000
 48 H      0.8322     1.0000     0.1678     0.9324     0.9324     0.0000
 49 H      0.8113     1.0000     0.1887     0.9368     0.9368    -0.0000
 50 H      0.8192     1.0000     0.1808     0.9385     0.9385     0.0000
 51 H      0.5663     1.0000     0.4337     0.7958     0.7958    -0.0000
 52 H      0.8275     1.0000     0.1725     0.9364     0.9364    -0.0000
 53 H      0.8138     1.0000     0.1862     0.9356     0.9356     0.0000
 54 H      0.8556     1.0000     0.1444     0.9502     0.9502     0.0000
 55 H      0.8626     1.0000     0.1374     0.9371     0.9371    -0.0000

  Mayer bond orders larger than 0.100000
B(  0-C ,  1-C ) :   1.0038 B(  0-C , 35-H ) :   0.9299 B(  0-C , 36-H ) :   0.9344 
B(  0-C , 37-H ) :   0.9377 B(  1-C ,  2-N ) :   1.5879 B(  1-C , 34-S ) :   1.1164 
B(  2-N ,  3-C ) :   1.2002 B(  3-C ,  4-C ) :   1.3339 B(  3-C , 33-C ) :   1.3121 
B(  4-C ,  5-C ) :   1.4553 B(  4-C , 38-H ) :   0.9118 B(  5-C ,  6-C ) :   0.9636 
B(  5-C , 31-C ) :   1.3664 B(  6-C ,  7-N ) :   0.9072 B(  6-C , 39-H ) :   0.9249 
B(  6-C , 40-H ) :   0.9191 B(  7-N ,  8-C ) :   0.9021 B(  7-N , 19-S ) :   0.8031 
B(  8-C ,  9-N ) :   1.2889 B(  8-C , 17-C ) :   1.4255 B(  9-N , 10-C ) :   1.4961 
B( 10-C , 11-C ) :   1.2290 B( 10-C , 17-C ) :   0.1018 B( 10-C , 41-H ) :   0.9256 
B( 11-C , 12-C ) :   1.2843 B( 11-C , 16-C ) :   1.2911 B( 12-C , 13-C ) :   1.5116 
B( 12-C , 15-C ) :   0.1067 B( 12-C , 42-H ) :   0.9227 B( 13-C , 14-C ) :   1.3544 
B( 13-C , 43-H ) :   0.9288 B( 14-C , 15-C ) :   1.5074 B( 14-C , 44-H ) :   0.9286 
B( 15-C , 16-C ) :   1.2948 B( 15-C , 45-H ) :   0.9165 B( 16-C , 17-C ) :   1.2613 
B( 17-C , 18-C ) :   1.0023 B( 18-C , 46-H ) :   0.9267 B( 18-C , 47-H ) :   0.9293 
B( 18-C , 48-H ) :   0.9257 B( 19-S , 20-O ) :   1.6100 B( 19-S , 21-O ) :   1.6897 
B( 19-S , 22-C ) :   0.8084 B( 22-C , 23-C ) :   1.3876 B( 22-C , 30-C ) :   1.3883 
B( 23-C , 24-C ) :   1.4170 B( 23-C , 49-H ) :   0.9080 B( 24-C , 25-C ) :   1.4011 
B( 24-C , 50-H ) :   0.9096 B( 25-C , 26-C ) :   1.0086 B( 25-C , 29-C ) :   1.3815 
B( 26-C , 27-O ) :   1.8632 B( 26-C , 28-O ) :   1.0230 B( 28-O , 51-H ) :   0.7422 
B( 29-C , 30-C ) :   1.4175 B( 29-C , 52-H ) :   0.9151 B( 30-C , 53-H ) :   0.9083 
B( 31-C , 32-C ) :   1.4841 B( 31-C , 54-H ) :   0.9131 B( 32-C , 33-C ) :   1.3332 
B( 32-C , 55-H ) :   0.9258 B( 33-C , 34-S ) :   1.0552 

-------
TIMINGS
-------

Total SCF time: 0 days 0 hours 9 min 34 sec 

Total time                  ....     574.266 sec
Sum of individual times     ....     573.898 sec  ( 99.9%)

SCF preparation             ....       0.421 sec  (  0.1%)
Fock matrix formation       ....     570.660 sec  ( 99.4%)
  Startup                   ....       0.118 sec  (  0.0% of F)
  Split-RI-J                ....      75.121 sec  ( 13.2% of F)
  Chain of spheres X        ....     448.336 sec  ( 78.6% of F)
  XC integration            ....      46.059 sec  (  8.1% of F)
    XC Preparation          ....       0.000 sec  (  0.0% of XC)
    Basis function eval.    ....      17.511 sec  ( 38.0% of XC)
    Density eval.           ....      11.691 sec  ( 25.4% of XC)
    XC-Functional eval.     ....       2.074 sec  (  4.5% of XC)
    XC-Potential eval.      ....      12.890 sec  ( 28.0% of XC)
Diagonalization             ....       0.000 sec  (  0.0%)
Density matrix formation    ....       0.502 sec  (  0.1%)
Total Energy calculation    ....       0.093 sec  (  0.0%)
Population analysis         ....       0.077 sec  (  0.0%)
Orbital Transformation      ....       0.249 sec  (  0.0%)
Orbital Orthonormalization  ....       0.000 sec  (  0.0%)
DIIS solution               ....       1.077 sec  (  0.2%)
SOSCF solution              ....       0.820 sec  (  0.1%)
Finished LeanSCF after 574.5 sec

Maximum memory used throughout the entire LEANSCF-calculation: 95.7 MB

-------------------------   --------------------
FINAL SINGLE POINT ENERGY     -2263.843797982123
-------------------------   --------------------


------------------------------------------------------------------------------
                              ORCA PROPERTY CALCULATIONS
------------------------------------------------------------------------------

GBWName                                 ... /home/nmrbox/aojoawo/Documents/ERDOS/inputs/CHEMBL3687359.gbw
Number of atoms                         ...     56
Number of basis functions               ...    540
Max core memory                         ...   1024 MB

Electric properties:
Dipole moment                           ... YES
Quadrupole moment                       ...  NO
Static polarizability (Dipole/Dipole)   ...  NO
Static polarizability (Dipole/Quad.)    ...  NO
Static polarizability (Quad./Quad.)     ...  NO
Static polarizability (Velocity)        ...  NO

Atomic electric properties:
Dipole moment                           ...  NO
Quadrupole moment                       ...  NO
Static polarizability                   ...  NO

Choice of electric origin               ... Center of mass
Position of electric origin             ...     0.369747    -0.619689     0.263085

General magnetic properties:
Magnetizability                         ...  NO

EPR properties:
g-Tensor (aka g-matrix)                 ...  NO
Zero-Field splitting spin-orbit         ...  NO
Zero-field splitting spin-spin          ...  NO
Hyperfine couplings                     ...  NO (   0 nuclei)
Quadrupole couplings                    ...  NO (   0 nuclei)
Contact density                         ...  NO (   0 nuclei)

NMR properties:
Chemical shifts                         ...  NO (   0 nuclei)
Spin-rotation constants                 ...  NO (   0 nuclei)
Spin-spin couplings                     ...  NO (   0 nuclei,    0 pairs)

Choice of magnetic origin               ... GIAO
Position of magnetic origin             ...     0.000000     0.000000     0.000000

Properties with geometric perturbations:
SCF Hessian                             ...  NO
IR spectrum                             ...  NO
VCD spectrum                            ...  NO
X-ray spectroscopy properties:
SCF XES/XAS/RIXS spectra                ...  NO


-------------
DIPOLE MOMENT
-------------

Method             : SCF
Type of density    : Electron Density
Multiplicity       :   1
Irrep              :   0
Energy             : -2263.8437979821228510 Eh
Relativity type    : 
Basis              : AO
                                X                 Y                 Z
Electronic contribution:      2.050466040      -9.138428566       6.140983311
Nuclear contribution   :     -3.871609486      11.776053871      -6.419177370
                        -----------------------------------------
Total Dipole Moment    :     -1.821143446       2.637625304      -0.278194059
                        -----------------------------------------
Magnitude (a.u.)       :      3.217300519
Magnitude (Debye)      :      8.177728026



--------------------
Rotational spectrum 
--------------------
 
Rotational constants in cm-1:             0.005349             0.001942             0.001533 
Rotational constants in MHz :           160.361462            58.225981            45.961457 

Dipole components along the rotational axes: 
x,y,z [a.u.] :    -2.385650     1.914779    -0.996654 
x,y,z [Debye]:    -6.063841     4.866981    -2.533292 

 

Dipole moment calculation done in   0.0 sec 

Maximum memory used throughout the entire PROP-calculation: 47.0 MB

--------------------------------
SUGGESTED CITATIONS FOR THIS RUN
--------------------------------

Below you find a list of papers that are relevant to this ORCA run
We neither can nor want to force you to cite these papers, but we appreciate if you do
You receive ORCA, which is the product of decades of hard work by many enthusiastic individuals, for free
The only thing we kindly ask in return is that you cite our papers,
We deeply appreciate it, if you show your appreciation for ORCA by not just citing the generic ORCA reference.

Please note that relegating all ORCA citations to the supporting information does *not* help us.
SI sections are not indexed - citations you put there will not count into any citation statistics
But we need these citations in order to attract the funding resources that allow us to do what we are doing

Therefore, if you are a happy ORCA user, please consider citing a few of the papers listed below in the main body of your paper

In addition to the list printed below, the program has created the file /home/nmrbox/aojoawo/Documents/ERDOS/inputs/CHEMBL3687359.bibtex that contains the list in bibtex format
You can import this file easily into all common literature databanks and citation aid programs


List of essential papers. We consider these as the minimum necessary citations

  1. Neese,F.
     Software update: the ORCA program system, version 5.0
     WIRES Comput. Molec. Sci., 2022 12(1)e1606
     doi.org/10.1002/wcms.1606

List of papers to cite with high priority. The work reported in these papers was absolutely
necessary for this run to complete.
Our perspective: the developers of density functionals and basis sets usually get cited in chemistry papers
Good! But without the algorithms to do something with them, the functionals or basis sets would not do anything.
Hence, in our opinion, the algorithm design and method developments papers are equally worthy of getting cited

  1. Neese,F.
     An improvement of the resolution of the identity approximation for the formation of the Coulomb matrix
     J. Comp. Chem., 2003 24(14)1740-1747
     doi.org/10.1002/jcc.10318
  2. Neese,F.; Wennmohs,F.; Hansen,A.; Becker,U.
     Efficient, approximate and parallel Hartree-Fock and hybrid DFT calculations. A 'chain-of-spheres' algorithm for the Hartree-Fock exchange
     Chem. Phys., 2009 356(1-3)98-109
     doi.org/10.1016/j.chemphys.2008.10.036
  3. Helmich-Paris,B.; de Souza,B.; Neese,F.; Izsák,R.
     An improved chain of spheres for exchange algorithm
     J. Chem. Phys., 2021 155 104109
     doi.org/doi: 10.1063/5.0058766.
  4. Neese,F.
     The SHARK Integral Generation and Digestion System
     J. Comp. Chem., 2022  1-16
     doi.org/10.1002/jcc.26942

List of suggested additional citations. These are papers that are important in the 'surrounding' of 
of this run, or papers that preceded the highly important papers. If you like your results we are grateful for a citation.

  1. Izsak,R.; Neese,F.
     An overlap fitted chain of spheres exchange method
     J. Chem. Phys., 2011 135 144105
     doi.org/10.1063/1.3646921
  2. Izsak,R.; Hansen,A.; Neese,F.
     The resolution of identity and chain of spheres approximations for the LPNO-CCSD singles Fock term
     Molec. Phys., 2012 110 2413-2417
     doi.org/10.1080/00268976.2012.687466
  3. Neese,F.
     The ORCA program system
     WIRES Comput. Molec. Sci., 2012 2(1)73-78
     doi.org/10.1002/wcms.81
  4. Izsak,R.; Neese,F.; Klopper,W.
     Robust fitting techniques in the chain of spheres approximation to the Fock exchange: The role of the complementary space
     J. Chem. Phys., 2013 139 
     doi.org/10.1063/1.4819264
  5. Neese,F.
     Software update: the ORCA program system, version 4.0
     WIRES Comput. Molec. Sci., 2018 8(1)1-6
     doi.org/10.1002/wcms.1327
  6. Neese,F.; Wennmohs,F.; Becker,U.; Riplinger,C.
     The ORCA quantum chemistry program package
     J. Chem. Phys., 2020 152 Art. No. L224108
     doi.org/10.1063/5.0004608

List of optional additional citations

  1. Neese,F.
     Approximate second-order SCF convergence for spin unrestricted wavefunctions
     Chem. Phys. Lett., 2000 325(1-3)93-98
     doi.org/10.1016/s0009-2614(00)00662-x

Timings for individual modules:

Sum of individual times          ...      595.147 sec (=   9.919 min)
Startup calculation              ...       13.583 sec (=   0.226 min)   2.3 %
SCF iterations                   ...      581.336 sec (=   9.689 min)  97.7 %
Property calculations            ...        0.227 sec (=   0.004 min)   0.0 %
                             ****ORCA TERMINATED NORMALLY****
TOTAL RUN TIME: 0 days 0 hours 9 minutes 55 seconds 867 msec
