
                                 *****************
                                 * O   R   C   A *
                                 *****************

                                            #,                                       
                                            ###                                      
                                            ####                                     
                                            #####                                    
                                            ######                                   
                                           ########,                                 
                                     ,,################,,,,,                         
                               ,,#################################,,                 
                          ,,##########################################,,             
                       ,#########################################, ''#####,          
                    ,#############################################,,   '####,        
                  ,##################################################,,,,####,       
                ,###########''''           ''''###############################       
              ,#####''   ,,,,##########,,,,          '''####'''          '####       
            ,##' ,,,,###########################,,,                        '##       
           ' ,,###''''                  '''############,,,                           
         ,,##''                                '''############,,,,        ,,,,,,###''
      ,#''                                            '''#######################'''  
     '                                                          ''''####''''         
             ,#######,   #######,   ,#######,      ##                                
            ,#'     '#,  ##    ##  ,#'     '#,    #''#        ,####,   ,####,        
            ##       ##  ##   ,#'  ##            #'  '#       #'       #'  '#        
            ##       ##  #######   ##           ,######,      #####,   #    #        
            '#,     ,#'  ##    ##  '#,     ,#' ,#      #,     #,   #   #,  ,#        
             '#######'   ##     ##  '#######'  #'      '#     '####' # '####'        



                #########################################################
                #                        -***-                          #
                #          Department of theory and spectroscopy        #
                #                                                       #
                #                      Frank Neese                      #
                #                                                       #
                #     Directorship, Architecture, Infrastructure        #
                #                    SHARK, DRIVERS                     #
                #        Core code/Algorithms in most modules           #
                #                                                       #
                #        Max Planck Institute fuer Kohlenforschung      #
                #                Kaiser Wilhelm Platz 1                 #
                #                 D-45470 Muelheim/Ruhr                 #
                #                      Germany                          #
                #                                                       #
                #                  All rights reserved                  #
                #                        -***-                          #
                #########################################################


                         Program Version 6.0.0  -   RELEASE  -


 With contributions from (in alphabetic order):
   Daniel Aravena         : Magnetic Suceptibility
   Michael Atanasov       : Ab Initio Ligand Field Theory (pilot matlab implementation)
   Alexander A. Auer      : GIAO ZORA, VPT2 properties, NMR spectrum
   Ute Becker             : All parallelization in ORCA, NUMFREQ, NUMCALC
   Giovanni Bistoni       : ED, misc. LED, open-shell LED, HFLD
   Martin Brehm           : Molecular dynamics
   Dmytro Bykov           : pre 5.0 version of the SCF Hessian
   Marcos Casanova-Páez   : Triplet and SCS-CIS(D). UHF-(DLPNO)-IP/EA/STEOM-CCSD. UHF-CVS-IP/STEOM-CCSD
   Vijay G. Chilkuri      : MRCI spin determinant printing, contributions to CSF-ICE
   Pauline Colinet        : FMM embedding
   Dipayan Datta          : RHF DLPNO-CCSD density
   Achintya Kumar Dutta   : EOM-CC, STEOM-CC
   Nicolas Foglia         : Exact transition moments, OPA infrastructure, MCD improvements
   Dmitry Ganyushin       : Spin-Orbit,Spin-Spin,Magnetic field MRCI
   Miquel Garcia          : C-PCM and meta-GGA Hessian, CCSD/C-PCM, Gaussian charge scheme
   Tiago L. C. Gouveia    : GS-ROHF, GS-ROCIS
   Yang Guo               : DLPNO-NEVPT2, F12-NEVPT2, CIM, IAO-localization
   Andreas Hansen         : Spin unrestricted coupled pair/coupled cluster methods
   Ingolf Harden          : AUTO-CI MPn and infrastructure 
   Benjamin Helmich-Paris : MC-RPA, TRAH-(SCF,CASSCF), AVAS, COSX integrals, SCF dyn. polar.
   Lee Huntington         : MR-EOM, pCC
   Robert Izsak           : Overlap fitted RIJCOSX, COSX-SCS-MP3, EOM
   Riya Kayal             : Wick's Theorem for AUTO-CI, AUTO-CI UHF-CCSDT
   Emily Kempfer          : AUTO-CI, RHF CISDT and CCSDT
   Christian Kollmar      : KDIIS, OOCD, Brueckner-CCSD(T), CCSD density, CASPT2, CASPT2-K, improved NEVPT2
   Axel Koslowski         : Symmetry handling
   Simone Kossmann        : Meta GGA functionals, TD-DFT gradient, OOMP2, (MP2 Hessian; deprecated post 5.0)
   Lucas Lang             : DCDCAS
   Marvin Lechner         : AUTO-CI (C++ implementation), FIC-MRCC
   Spencer Leger          : CASSCF response
   Dagmar Lenk            : GEPOL surface, SMD, ORCA-2-JSON
   Dimitrios Liakos       : Extrapolation schemes; Compound Job, initial MDCI parallelization
   Dimitrios Manganas     : Further ROCIS development; embedding schemes. LFT, Crystal Embedding
   Dimitrios Pantazis     : SARC Basis sets
   Anastasios Papadopoulos: AUTO-CI, single reference methods and gradients
   Taras Petrenko         : pre 6.0 DFT Hessian and TD-DFT gradient, (ASA, deprecated), ECA, 1-Electron XAS/XES, NRVS
   Peter Pinski           : DLPNO-MP2, DLPNO-MP2 Gradient
   Christoph Reimann      : Effective Core Potentials
   Marius Retegan         : Local ZFS, SOC
   Christoph Riplinger    : Optimizer, TS searches, QM/MM, DLPNO-CCSD(T), (RO)-DLPNO pert. Triples
   Michael Roemelt        : Original ROCIS implementation
   Masaaki Saitow         : Open-shell DLPNO-CCSD energy and density
   Barbara Sandhoefer     : DKH picture change effects
   Kantharuban Sivalingam : CASSCF convergence/infrastructure, NEVPT2 and variants, FIC-MRCI
   Bernardo de Souza      : ESD, SOC TD-DFT
   Georgi Stoychev        : AutoAux, RI-MP2 NMR, DLPNO-MP2 response, X2C
   Van Anh Tran           : RI-MP2 g-tensors
   Willem Van den Heuvel  : Paramagnetic NMR
   Zikuan Wang            : NOTCH, Electric field optimization 
   Frank Wennmohs         : Technical directorship and infrastructure
   Hang Xu                : AUTO-CI-Response properties 


 We gratefully acknowledge several colleagues who have allowed us to
 interface, adapt or use parts of their codes:
   Stefan Grimme, W. Hujo, H. Kruse, P. Pracht,  : VdW corrections, initial TS optimization,
                  C. Bannwarth, S. Ehlert,         DFT functionals, gCP, sTDA/sTD-DF
                  L. Wittmann, M. Mueller
   Ed Valeev, F. Pavosevic, A. Kumar             : LibInt (2-el integral package), F12 methods
   Garnet Chan, S. Sharma, J. Yang, R. Olivares  : DMRG
   Ulf Ekstrom                                   : XCFun DFT Library
   Mihaly Kallay                                 : mrcc  (arbitrary order and MRCC methods)
   Frank Weinhold                                : gennbo (NPA and NBO analysis)
   Simon Mueller                                 : openCOSMO-RS
   Christopher J. Cramer and Donald G. Truhlar   : smd solvation model
   Lars Goerigk                                  : TD-DFT with DH, B97 family of functionals
   V. Asgeirsson, H. Jonsson                     : NEB implementation
   FAccTs GmbH                                   : IRC, NEB, NEB-TS, DLPNO-Multilevel, CI-OPT
                                                   MM, QMMM, 2- and 3-layer-ONIOM, Crystal-QMMM,
                                                   LR-CPCM, SF, NACMEs, symmetry and pop. for TD-DFT,
                                                   nearIR, NL-DFT gradient (VV10), updates on ESD,
                                                   ML-optimized integration grids, MBIS, APM,
                                                   GOAT, DOCKER, SOLVATOR, interface openCOSMO-RS
   S Lehtola, MJT Oliveira, MAL Marques          : LibXC Library
   Liviu Ungur et al                             : ANISO software


 Your calculation uses the libint2 library for the computation of 2-el integrals
 For citations please refer to: http://libint.valeyev.net

 Your ORCA version has been built with support for libXC version: 6.2.2
 For citations please refer to: https://libxc.gitlab.io

 This ORCA versions uses:
   CBLAS   interface :  Fast vector & matrix operations
   LAPACKE interface :  Fast linear algebra routines
   SCALAPACK package :  Parallel linear algebra routines
   Shared memory     :  Shared parallel matrices
   BLAS/LAPACK       :  OpenBLAS 0.3.27  USE64BITINT DYNAMIC_ARCH NO_AFFINITY SkylakeX SINGLE_THREADED
        Core in use  :  SkylakeX
   Copyright (c) 2011-2014, The OpenBLAS Project


Warning: RI is on but no J-basis has been assigned. Assigning Def2/J (nothing to worry about!)
================================================================================

----- Orbital basis set information -----
Your calculation utilizes the basis: 6-31G*
   H-He, Li-Ne : W. J. Hehre, R. Ditchfield and J.A. Pople, J. Chem. Phys. 56, 2257 (1972).
                 Note: He and Ne are unpublished basis sets taken from the Gaussian program.
                 Note: Li and B from J. D. Dill and J. A. Pople, J. Chem. Phys. 62, 2921 (1975).
   Na - Ar     : M. M. Francl, W. J. Pietro, W. J. Hehre, J. S. Binkley, M. S. Gordon, 
                 D. J. DeFrees and J. A. Pople, J. Chem. Phys. 77, 3654 (1982).
   K - Zn      : V. A. Rassolov, J. A. Pople, M. A. Ratner, and T. L. Windus, J. Chem. Phys. 109, 1223 (1998).

----- AuxJ basis set information -----
Your calculation utilizes the auxiliary basis: def2/J
   F. Weigend, Phys. Chem. Chem. Phys. 8, 1057 (2006).

================================================================================
                                        WARNINGS
                       Please study these warnings very carefully!
================================================================================


================================================================================
                                       INPUT FILE
================================================================================
NAME = /home/nmrbox/aojoawo/Documents/ERDOS/inputs/CHEMBL4785621.inp
|  1> ! B3LYP 6-31G* SP
|  2> 
|  3> * xyz 0 1
|  4> C 3.9526 -2.0313 -2.6169
|  5> O 3.1063 -1.9026 -1.4812
|  6> C 3.5708 -1.4711 -0.2335
|  7> N 4.8897 -1.1787 -0.0494
|  8> C 5.3763 -0.7791 1.1553
|  9> C 4.5209 -0.6670 2.2523
| 10> C 3.1657 -0.9594 2.0945
| 11> C 2.6759 -1.3484 0.8417
| 12> C 1.2447 -1.6471 0.6709
| 13> O 0.8056 -2.7417 1.1168
| 14> N 0.3513 -0.7161 0.0128
| 15> C -0.8234 -1.2957 -0.6950
| 16> C -1.1092 -0.6886 -2.0903
| 17> C -2.6152 -0.3663 -2.1419
| 18> C -3.0826 -0.5924 -0.7531
| 19> C -4.3660 -0.3526 -0.2550
| 20> F -5.3322 0.1689 -1.0509
| 21> C -4.6400 -0.6602 1.0860
| 22> C -3.6380 -1.2164 1.9023
| 23> Cl -3.9853 -1.6010 3.5772
| 24> C -2.3577 -1.4578 1.3797
| 25> C -2.0959 -1.1107 0.0500
| 26> C 0.6053 0.7415 0.2052
| 27> C 1.5224 1.3134 -0.8539
| 28> N 2.0649 2.6243 -0.6919
| 29> O 1.8346 0.6407 -1.8720
| 30> C -0.6616 1.5588 0.4213
| 31> C -1.2394 2.3477 -0.5955
| 32> C -2.4207 3.0566 -0.3579
| 33> C -3.0335 2.9998 0.8951
| 34> C -2.4600 2.2430 1.9179
| 35> C -1.2789 1.5330 1.6863
| 36> H 4.7553 -2.7707 -2.4113
| 37> H 4.4022 -1.0474 -2.8687
| 38> H 3.3517 -2.3830 -3.4804
| 39> H 6.4290 -0.5546 1.2626
| 40> H 4.9045 -0.3554 3.2152
| 41> H 2.4966 -0.8695 2.9416
| 42> H -0.6846 -2.3908 -0.8408
| 43> H -0.5363 0.2321 -2.2821
| 44> H -0.8451 -1.4155 -2.8894
| 45> H -3.1420 -1.0594 -2.8325
| 46> H -2.7930 0.6865 -2.4496
| 47> H -5.6271 -0.4736 1.4889
| 48> H -1.5827 -1.8845 2.0018
| 49> H 1.1770 0.8652 1.1519
| 50> H 1.8320 3.1966 0.1498
| 51> H 2.7032 3.0238 -1.4151
| 52> H -0.7858 2.4189 -1.5743
| 53> H -2.8625 3.6497 -1.1480
| 54> H -3.9507 3.5453 1.0744
| 55> H -2.9345 2.2000 2.8896
| 56> H -0.8548 0.9427 2.4894
| 57> *
| 58> 
| 59>                          ****END OF INPUT****
================================================================================

                       ****************************
                       * Single Point Calculation *
                       ****************************

---------------------------------
CARTESIAN COORDINATES (ANGSTROEM)
---------------------------------
  C      3.952600   -2.031300   -2.616900
  O      3.106300   -1.902600   -1.481200
  C      3.570800   -1.471100   -0.233500
  N      4.889700   -1.178700   -0.049400
  C      5.376300   -0.779100    1.155300
  C      4.520900   -0.667000    2.252300
  C      3.165700   -0.959400    2.094500
  C      2.675900   -1.348400    0.841700
  C      1.244700   -1.647100    0.670900
  O      0.805600   -2.741700    1.116800
  N      0.351300   -0.716100    0.012800
  C     -0.823400   -1.295700   -0.695000
  C     -1.109200   -0.688600   -2.090300
  C     -2.615200   -0.366300   -2.141900
  C     -3.082600   -0.592400   -0.753100
  C     -4.366000   -0.352600   -0.255000
  F     -5.332200    0.168900   -1.050900
  C     -4.640000   -0.660200    1.086000
  C     -3.638000   -1.216400    1.902300
  Cl    -3.985300   -1.601000    3.577200
  C     -2.357700   -1.457800    1.379700
  C     -2.095900   -1.110700    0.050000
  C      0.605300    0.741500    0.205200
  C      1.522400    1.313400   -0.853900
  N      2.064900    2.624300   -0.691900
  O      1.834600    0.640700   -1.872000
  C     -0.661600    1.558800    0.421300
  C     -1.239400    2.347700   -0.595500
  C     -2.420700    3.056600   -0.357900
  C     -3.033500    2.999800    0.895100
  C     -2.460000    2.243000    1.917900
  C     -1.278900    1.533000    1.686300
  H      4.755300   -2.770700   -2.411300
  H      4.402200   -1.047400   -2.868700
  H      3.351700   -2.383000   -3.480400
  H      6.429000   -0.554600    1.262600
  H      4.904500   -0.355400    3.215200
  H      2.496600   -0.869500    2.941600
  H     -0.684600   -2.390800   -0.840800
  H     -0.536300    0.232100   -2.282100
  H     -0.845100   -1.415500   -2.889400
  H     -3.142000   -1.059400   -2.832500
  H     -2.793000    0.686500   -2.449600
  H     -5.627100   -0.473600    1.488900
  H     -1.582700   -1.884500    2.001800
  H      1.177000    0.865200    1.151900
  H      1.832000    3.196600    0.149800
  H      2.703200    3.023800   -1.415100
  H     -0.785800    2.418900   -1.574300
  H     -2.862500    3.649700   -1.148000
  H     -3.950700    3.545300    1.074400
  H     -2.934500    2.200000    2.889600
  H     -0.854800    0.942700    2.489400

----------------------------
CARTESIAN COORDINATES (A.U.)
----------------------------
  NO LB      ZA    FRAG     MASS         X           Y           Z
   0 C     6.0000    0    12.011    7.469332   -3.838601   -4.945224
   1 O     8.0000    0    15.999    5.870056   -3.595393   -2.799062
   2 C     6.0000    0    12.011    6.747834   -2.779976   -0.441251
   3 N     7.0000    0    14.007    9.240194   -2.227420   -0.093352
   4 C     6.0000    0    12.011   10.159735   -1.472286    2.183201
   5 C     6.0000    0    12.011    8.543263   -1.260447    4.256230
   6 C     6.0000    0    12.011    5.982306   -1.813003    3.958031
   7 C     6.0000    0    12.011    5.056718   -2.548107    1.590582
   8 C     6.0000    0    12.011    2.352142   -3.112568    1.267817
   9 O     8.0000    0    15.999    1.522363   -5.181062    2.110446
  10 N     7.0000    0    14.007    0.663861   -1.353233    0.024188
  11 C     6.0000    0    12.011   -1.556000   -2.448518   -1.313360
  12 C     6.0000    0    12.011   -2.096084   -1.301265   -3.950095
  13 C     6.0000    0    12.011   -4.942012   -0.692207   -4.047604
  14 C     6.0000    0    12.011   -5.825270   -1.119474   -1.423153
  15 C     6.0000    0    12.011   -8.250544   -0.666317   -0.481880
  16 F     9.0000    0    18.998  -10.076398    0.319175   -1.985913
  17 C     6.0000    0    12.011   -8.768329   -1.247597    2.052243
  18 C     6.0000    0    12.011   -6.874824   -2.298663    3.594826
  19 Cl   17.0000    0    35.453   -7.531126   -3.025452    6.759928
  20 C     6.0000    0    12.011   -4.455407   -2.754843    2.607255
  21 C     6.0000    0    12.011   -3.960677   -2.098919    0.094486
  22 C     6.0000    0    12.011    1.143851    1.401232    0.387772
  23 C     6.0000    0    12.011    2.876919    2.481966   -1.613637
  24 N     7.0000    0    14.007    3.902095    4.959208   -1.307502
  25 O     8.0000    0    15.999    3.466892    1.210748   -3.537567
  26 C     6.0000    0    12.011   -1.250243    2.945705    0.796142
  27 C     6.0000    0    12.011   -2.342127    4.436510   -1.125332
  28 C     6.0000    0    12.011   -4.574460    5.776137   -0.676333
  29 C     6.0000    0    12.011   -5.732484    5.668800    1.691494
  30 C     6.0000    0    12.011   -4.648726    4.238656    3.624306
  31 C     6.0000    0    12.011   -2.416771    2.896950    3.186645
  32 H     1.0000    0     1.008    8.986215   -5.235864   -4.556697
  33 H     1.0000    0     1.008    8.318952   -1.979299   -5.421057
  34 H     1.0000    0     1.008    6.333795   -4.503217   -6.577003
  35 H     1.0000    0     1.008   12.149049   -1.048042    2.385968
  36 H     1.0000    0     1.008    9.268162   -0.671609    6.075847
  37 H     1.0000    0     1.008    4.717890   -1.643117    5.558818
  38 H     1.0000    0     1.008   -1.293707   -4.517957   -1.588882
  39 H     1.0000    0     1.008   -1.013460    0.438605   -4.312544
  40 H     1.0000    0     1.008   -1.597008   -2.674907   -5.460175
  41 H     1.0000    0     1.008   -5.937520   -2.001976   -5.352649
  42 H     1.0000    0     1.008   -5.278005    1.297297   -4.629073
  43 H     1.0000    0     1.008  -10.633678   -0.894974    2.813613
  44 H     1.0000    0     1.008   -2.990870   -3.561189    3.782854
  45 H     1.0000    0     1.008    2.224208    1.634991    2.176776
  46 H     1.0000    0     1.008    3.461978    6.040699    0.283081
  47 H     1.0000    0     1.008    5.108308    5.714154   -2.674151
  48 H     1.0000    0     1.008   -1.484947    4.571059   -2.974996
  49 H     1.0000    0     1.008   -5.409341    6.896933   -2.169406
  50 H     1.0000    0     1.008   -7.465741    6.699646    2.030322
  51 H     1.0000    0     1.008   -5.545401    4.157397    5.460553
  52 H     1.0000    0     1.008   -1.615338    1.781445    4.704284

--------------------------------
INTERNAL COORDINATES (ANGSTROEM)
--------------------------------
 C      0   0   0     0.000000000000     0.00000000     0.00000000
 O      1   0   0     1.422182080466     0.00000000     0.00000000
 C      2   1   0     1.399538420337   122.84197506     0.00000000
 N      3   2   1     1.363410349088   120.50154543   358.54807224
 C      4   3   2     1.359324026860   121.93793741   181.13123010
 C      5   4   3     1.395594701194   120.05514221     0.47080171
 C      6   5   4     1.395337106222   119.31237361   359.53548221
 C      7   6   5     1.400261718394   119.94224376   359.40763110
 C      8   7   6     1.471980900012   120.01910180   180.47681206
 O      9   8   7     1.260866678123   118.27696471   284.46089158
 N      9   8   7     1.448454407291   121.46628633   104.30983666
 C     11   9   8     1.488904661152   116.89842428   150.97122616
 C     12  11   9     1.548261651014   114.92383642   223.70040960
 C     13  12  11     1.540965882166   107.01343119   227.82150770
 C     14  13  12     1.482683179240   104.17156693     8.31904378
 C     15  14  13     1.397398729783   126.67187329   175.55364830
 F     16  15  14     1.356083146418   120.74100390   358.30317277
 C     16  15  14     1.402845237366   118.84814098   178.33504369
 C     18  16  15     1.407021012636   120.14359768   359.18529687
 Cl    19  18  16     1.753232574418   119.99257806   180.06971029
 C     19  18  16     1.403763801357   120.09941062     0.39744470
 C     15  14  13     1.373747207458   112.25321427   354.45905522
 C     11   9   8     1.492022627174   117.66709620   325.30564413
 C     23  11   9     1.513220020354   112.46614203    90.67645605
 N     24  23  11     1.427938745185   119.85508267   191.29868696
 O     24  23  11     1.259572046371   120.93702389    10.14653461
 C     23  11   9     1.523060770291   113.63610163   221.53547080
 C     27  23  11     1.410708435503   122.58266405   257.44924485
 C     28  27  23     1.398020979814   120.47463167   178.52607217
 C     29  28  27     1.395979613032   120.18810397     0.61105911
 C     30  29  28     1.395624709583   119.96543724     0.56458043
 C     31  30  29     1.397403223841   120.09106338   359.47279070
 H      1   2   3     1.110545366025   110.03088854    60.77207997
 H      1   2   3     1.110676645113   109.98410198   299.65834139
 H      1   2   3     1.109236651937   109.14616367   180.26259461
 H      5   4   3     1.081707368007   119.82121422   180.07505126
 H      6   5   4     1.082321546492   120.34483211   179.60490403
 H      7   6   5     1.083215227921   119.61031341   180.28686111
 H     12  11   9     1.113448287977   110.28940798   344.59810710
 H     13  12  11     1.101222112019   112.87782740   347.89509859
 H     13  12  11     1.112067097796   110.33050856   107.96356490
 H     14  13  12     1.111230943594   110.71181410   250.43464556
 H     14  13  12     1.111161540911   111.33521109   127.65742377
 H     18  16  15     1.082365178671   119.74589492   179.55460786
 H     21  19  18     1.081529611245   120.48149762   179.95958803
 H     23  11   9     1.112826792452   107.80351203   336.60358433
 H     25  24  23     1.044140119907   120.65674773   359.72746096
 H     25  24  23     1.044052383743   120.32904860   179.61418148
 H     28  27  23     1.081143764723   121.16661511   358.67081657
 H     29  28  27     1.082225882152   119.91834627   180.72346659
 H     30  29  28     1.082115788629   120.01896000   180.33186774
 H     31  30  29     1.082220005359   119.95992446   179.92554885
 H     32  31  30     1.083182583870   119.00826417   180.65769439

---------------------------
INTERNAL COORDINATES (A.U.)
---------------------------
 C      0   0   0     0.000000000000     0.00000000     0.00000000
 O      1   0   0     2.687534644652     0.00000000     0.00000000
 C      2   1   0     2.644744328338   122.84197506     0.00000000
 N      3   2   1     2.576472167930   120.50154543   358.54807224
 C      4   3   2     2.568750138025   121.93793741   181.13123010
 C      5   4   3     2.637291779208   120.05514221     0.47080171
 C      6   5   4     2.636804995258   119.31237361   359.53548221
 C      7   6   5     2.646111163579   119.94224376   359.40763110
 C      8   7   6     2.781640775386   120.01910180   180.47681206
 O      9   8   7     2.382692713039   118.27696471   284.46089158
 N      9   8   7     2.737182147251   121.46628633   104.30983666
 C     11   9   8     2.813622049096   116.89842428   150.97122616
 C     12  11   9     2.925790504069   114.92383642   223.70040960
 C     13  12  11     2.912003499010   107.01343119   227.82150770
 C     14  13  12     2.801865152134   104.17156693     8.31904378
 C     15  14  13     2.640700899180   126.67187329   175.55364830
 F     16  15  14     2.562625761557   120.74100390   358.30317277
 C     16  15  14     2.650993306897   118.84814098   178.33504369
 C     18  16  15     2.658884378555   120.14359768   359.18529687
 Cl    19  18  16     3.313129414720   119.99257806   180.06971029
 C     19  18  16     2.652729141277   120.09941062     0.39744470
 C     15  14  13     2.596005999336   112.25321427   354.45905522
 C     11   9   8     2.819514150973   117.66709620   325.30564413
 C     23  11   9     2.859571418836   112.46614203    90.67645605
 N     24  23  11     2.698413164414   119.85508267   191.29868696
 O     24  23  11     2.380246213585   120.93702389    10.14653461
 C     23  11   9     2.878167741169   113.63610163   221.53547080
 C     27  23  11     2.665852597914   122.58266405   257.44924485
 C     28  27  23     2.641876781325   120.47463167   178.52607217
 C     29  28  27     2.638019157167   120.18810397     0.61105911
 C     30  29  28     2.637348486846   119.96543724     0.56458043
 C     31  30  29     2.640709391717   120.09106338   359.47279070
 H      1   2   3     2.098626601083   110.03088854    60.77207997
 H      1   2   3     2.098874682606   109.98410198   299.65834139
 H      1   2   3     2.096153489868   109.14616367   180.26259461
 H      5   4   3     2.044130682577   119.82121422   180.07505126
 H      6   5   4     2.045291311711   120.34483211   179.60490403
 H      7   6   5     2.046980124864   119.61031341   180.28686111
 H     12  11   9     2.104112328561   110.28940798   344.59810710
 H     13  12  11     2.081008204335   112.87782740   347.89509859
 H     13  12  11     2.101502257379   110.33050856   107.96356490
 H     14  13  12     2.099922154931   110.71181410   250.43464556
 H     14  13  12     2.099791002868   111.33521109   127.65742377
 H     18  16  15     2.045373764581   119.74589492   179.55460786
 H     21  19  18     2.043794770980   120.48149762   179.95958803
 H     23  11   9     2.102937872225   107.80351203   336.60358433
 H     25  24  23     1.973138872064   120.65674773   359.72746096
 H     25  24  23     1.972973074742   120.32904860   179.61418148
 H     28  27  23     2.043065626724   121.16661511   358.67081657
 H     29  28  27     2.045110532309   119.91834627   180.72346659
 H     30  29  28     2.044902485701   120.01896000   180.33186774
 H     31  30  29     2.045099426780   119.95992446   179.92554885
 H     32  31  30     2.046918436548   119.00826417   180.65769439

---------------------
BASIS SET INFORMATION
---------------------
There are 6 groups of distinct atoms

 Group   1 Type C   : 10s4p1d contracted to 3s2p1d pattern {631/31/1}
 Group   2 Type O   : 10s4p1d contracted to 3s2p1d pattern {631/31/1}
 Group   3 Type N   : 10s4p1d contracted to 3s2p1d pattern {631/31/1}
 Group   4 Type F   : 10s4p1d contracted to 3s2p1d pattern {631/31/1}
 Group   5 Type Cl  : 16s10p1d contracted to 4s3p1d pattern {6631/631/1}
 Group   6 Type H   : 4s contracted to 2s pattern {31}

Atom   0C    basis set group =>   1
Atom   1O    basis set group =>   2
Atom   2C    basis set group =>   1
Atom   3N    basis set group =>   3
Atom   4C    basis set group =>   1
Atom   5C    basis set group =>   1
Atom   6C    basis set group =>   1
Atom   7C    basis set group =>   1
Atom   8C    basis set group =>   1
Atom   9O    basis set group =>   2
Atom  10N    basis set group =>   3
Atom  11C    basis set group =>   1
Atom  12C    basis set group =>   1
Atom  13C    basis set group =>   1
Atom  14C    basis set group =>   1
Atom  15C    basis set group =>   1
Atom  16F    basis set group =>   4
Atom  17C    basis set group =>   1
Atom  18C    basis set group =>   1
Atom  19Cl   basis set group =>   5
Atom  20C    basis set group =>   1
Atom  21C    basis set group =>   1
Atom  22C    basis set group =>   1
Atom  23C    basis set group =>   1
Atom  24N    basis set group =>   3
Atom  25O    basis set group =>   2
Atom  26C    basis set group =>   1
Atom  27C    basis set group =>   1
Atom  28C    basis set group =>   1
Atom  29C    basis set group =>   1
Atom  30C    basis set group =>   1
Atom  31C    basis set group =>   1
Atom  32H    basis set group =>   6
Atom  33H    basis set group =>   6
Atom  34H    basis set group =>   6
Atom  35H    basis set group =>   6
Atom  36H    basis set group =>   6
Atom  37H    basis set group =>   6
Atom  38H    basis set group =>   6
Atom  39H    basis set group =>   6
Atom  40H    basis set group =>   6
Atom  41H    basis set group =>   6
Atom  42H    basis set group =>   6
Atom  43H    basis set group =>   6
Atom  44H    basis set group =>   6
Atom  45H    basis set group =>   6
Atom  46H    basis set group =>   6
Atom  47H    basis set group =>   6
Atom  48H    basis set group =>   6
Atom  49H    basis set group =>   6
Atom  50H    basis set group =>   6
Atom  51H    basis set group =>   6
Atom  52H    basis set group =>   6
---------------------------------
AUXILIARY/J BASIS SET INFORMATION
---------------------------------
There are 6 groups of distinct atoms

 Group   1 Type C   : 12s5p4d2f1g contracted to 6s4p3d1f1g pattern {711111/2111/211/2/1}
 Group   2 Type O   : 12s5p4d2f1g contracted to 6s4p3d1f1g pattern {711111/2111/211/2/1}
 Group   3 Type N   : 12s5p4d2f1g contracted to 6s4p3d1f1g pattern {711111/2111/211/2/1}
 Group   4 Type F   : 12s5p4d2f1g contracted to 6s4p3d1f1g pattern {711111/2111/211/2/1}
 Group   5 Type Cl  : 14s5p5d2f1g contracted to 8s4p3d1f1g pattern {71111111/2111/311/2/1}
 Group   6 Type H   : 5s2p1d contracted to 3s1p1d pattern {311/2/1}

Atom   0C    basis set group =>   1
Atom   1O    basis set group =>   2
Atom   2C    basis set group =>   1
Atom   3N    basis set group =>   3
Atom   4C    basis set group =>   1
Atom   5C    basis set group =>   1
Atom   6C    basis set group =>   1
Atom   7C    basis set group =>   1
Atom   8C    basis set group =>   1
Atom   9O    basis set group =>   2
Atom  10N    basis set group =>   3
Atom  11C    basis set group =>   1
Atom  12C    basis set group =>   1
Atom  13C    basis set group =>   1
Atom  14C    basis set group =>   1
Atom  15C    basis set group =>   1
Atom  16F    basis set group =>   4
Atom  17C    basis set group =>   1
Atom  18C    basis set group =>   1
Atom  19Cl   basis set group =>   5
Atom  20C    basis set group =>   1
Atom  21C    basis set group =>   1
Atom  22C    basis set group =>   1
Atom  23C    basis set group =>   1
Atom  24N    basis set group =>   3
Atom  25O    basis set group =>   2
Atom  26C    basis set group =>   1
Atom  27C    basis set group =>   1
Atom  28C    basis set group =>   1
Atom  29C    basis set group =>   1
Atom  30C    basis set group =>   1
Atom  31C    basis set group =>   1
Atom  32H    basis set group =>   6
Atom  33H    basis set group =>   6
Atom  34H    basis set group =>   6
Atom  35H    basis set group =>   6
Atom  36H    basis set group =>   6
Atom  37H    basis set group =>   6
Atom  38H    basis set group =>   6
Atom  39H    basis set group =>   6
Atom  40H    basis set group =>   6
Atom  41H    basis set group =>   6
Atom  42H    basis set group =>   6
Atom  43H    basis set group =>   6
Atom  44H    basis set group =>   6
Atom  45H    basis set group =>   6
Atom  46H    basis set group =>   6
Atom  47H    basis set group =>   6
Atom  48H    basis set group =>   6
Atom  49H    basis set group =>   6
Atom  50H    basis set group =>   6
Atom  51H    basis set group =>   6
Atom  52H    basis set group =>   6
------------------------------------------------------------------------------
                             ORCA STARTUP CALCULATIONS
                           -- RI-GTO INTEGRALS CHOSEN --
------------------------------------------------------------------------------
------------------------------------------------------------------------------
                   ___                                                        
                  /   \      - P O W E R E D   B Y -                         
                 /     \                                                     
                 |  |  |   _    _      __       _____    __    __             
                 |  |  |  | |  | |    /  \     |  _  \  |  |  /  |          
                  \  \/   | |  | |   /    \    | | | |  |  | /  /          
                 / \  \   | |__| |  /  /\  \   | |_| |  |  |/  /          
                |  |  |   |  __  | /  /__\  \  |    /   |      \           
                |  |  |   | |  | | |   __   |  |    \   |  |\   \          
                \     /   | |  | | |  |  |  |  | |\  \  |  | \   \       
                 \___/    |_|  |_| |__|  |__|  |_| \__\ |__|  \__/        
                                                                              
                      - O R C A' S   B I G   F R I E N D -                    
                                      &                                       
                       - I N T E G R A L  F E E D E R -                       
                                                                              
 v1 FN, 2020, v2 2021, v3 2022-2024                                           
------------------------------------------------------------------------------


----------------------
SHARK INTEGRAL PACKAGE
----------------------

Number of atoms                             ...     53
Number of basis functions                   ...    494
Number of shells                            ...    236
Maximum angular momentum                    ...      2
Integral batch strategy                     ... SHARK/LIBINT Hybrid
RI-J (if used) integral strategy            ... SPLIT-RIJ (Revised 2003 algorithm where possible)
Printlevel                                  ...      1
Contraction scheme used                     ... SEGMENTED contraction
Prescreening option                         ... SCHWARTZ
   Thresh                                   ... 1.000e-10
   Tcut                                     ... 1.000e-11
   Tpresel                                  ... 1.000e-11 
Coulomb Range Separation                    ... NOT USED
Exchange Range Separation                   ... NOT USED
Multipole approximations                    ... NOT USED
Finite Nucleus Model                        ... NOT USED
CABS basis                                  ... NOT available
Auxiliary Coulomb fitting basis             ... AVAILABLE
   # of basis functions in Aux-J            ...   1801
   # of shells in Aux-J                     ...    587
   Maximum angular momentum in Aux-J        ...      4
Auxiliary J/K fitting basis                 ... NOT available
Auxiliary Correlation fitting basis         ... NOT available
Auxiliary 'external' fitting basis          ... NOT available

Checking pre-screening integrals            ... done (  0.0 sec) Dimension = 236
Check shell pair data                       ... done (  0.0 sec)
Shell pair information
Shell pair cut-off parameter TPreSel        ...   1.0e-11
Total number of shell pairs                 ...     27966
Shell pairs after pre-screening             ...     18865
Total number of primitive shell pairs       ...    166941
Primitive shell pairs kept                  ...     56717
          la=0 lb=0:   6130 shell pairs
          la=1 lb=0:   6632 shell pairs
          la=1 lb=1:   1771 shell pairs
          la=2 lb=0:   2549 shell pairs
          la=2 lb=1:   1490 shell pairs
          la=2 lb=2:    293 shell pairs

Calculating one electron integrals          ... done (  0.3 sec)
Calculating RI/J V-Matrix + Cholesky decomp.... done (  0.4 sec)
Calculating Nuclear repulsion               ... done (  0.0 sec) ENN=   3536.176402637765 Eh

Diagonalization of the overlap matrix:
Smallest eigenvalue                        ... 4.285e-04
Time for diagonalization                   ...    0.039 sec
Threshold for overlap eigenvalues          ... 1.000e-07
Number of eigenvalues below threshold      ... 0
Time for construction of square roots      ...    0.039 sec
Total time needed                          ...    0.090 sec

-------------------
DFT GRID GENERATION
-------------------

General Integration Accuracy     IntAcc      ... 4.388
Radial Grid Type                 RadialGrid  ... OptM3 with GC (2021)
Angular Grid (max. ang.)         AngularGrid ... 4 (Lebedev-302)
Angular grid pruning method      GridPruning ... 4 (adaptive)
Weight generation scheme         WeightScheme... mBecke (2022)
Basis function cutoff            BFCut       ... 1.0000e-10
Integration weight cutoff        WCut        ... 1.0000e-14
Partially contracted basis set               ... off
Rotationally invariant grid construction     ... off
Angular grids for H and He will be reduced by one unit

Total number of grid points                  ...   257815
Total number of batches                      ...     4057
Average number of points per batch           ...       63
Average number of grid points per atom       ...     4864

--------------------
COSX GRID GENERATION
--------------------

GRIDX 1
-------
General Integration Accuracy     IntAcc      ... 3.816
Radial Grid Type                 RadialGrid  ... OptM3 with GC (2021)
Angular Grid (max. ang.)         AngularGrid ... 1 (Lebedev-50)
Angular grid pruning method      GridPruning ... 4 (adaptive)
Weight generation scheme         WeightScheme... mBecke (2022)
Basis function cutoff            BFCut       ... 1.0000e-10
Integration weight cutoff        WCut        ... 1.0000e-14
Partially contracted basis set               ... on
Rotationally invariant grid construction     ... off
Angular grids for H and He will be reduced by one unit

Total number of grid points                  ...    33698
Total number of batches                      ...      295
Average number of points per batch           ...      114
Average number of grid points per atom       ...      636
UseSFitting                                  ... on

GRIDX 2
-------
General Integration Accuracy     IntAcc      ... 4.020
Radial Grid Type                 RadialGrid  ... OptM3 with GC (2021)
Angular Grid (max. ang.)         AngularGrid ... 2 (Lebedev-110)
Angular grid pruning method      GridPruning ... 4 (adaptive)
Weight generation scheme         WeightScheme... mBecke (2022)
Basis function cutoff            BFCut       ... 1.0000e-10
Integration weight cutoff        WCut        ... 1.0000e-14
Partially contracted basis set               ... on
Rotationally invariant grid construction     ... off
Angular grids for H and He will be reduced by one unit

Total number of grid points                  ...    70729
Total number of batches                      ...      581
Average number of points per batch           ...      121
Average number of grid points per atom       ...     1335
UseSFitting                                  ... on

GRIDX 3
-------
General Integration Accuracy     IntAcc      ... 4.338
Radial Grid Type                 RadialGrid  ... OptM3 with GC (2021)
Angular Grid (max. ang.)         AngularGrid ... 3 (Lebedev-194)
Angular grid pruning method      GridPruning ... 4 (adaptive)
Weight generation scheme         WeightScheme... mBecke (2022)
Basis function cutoff            BFCut       ... 1.0000e-10
Integration weight cutoff        WCut        ... 1.0000e-14
Partially contracted basis set               ... on
Rotationally invariant grid construction     ... off
Angular grids for H and He will be reduced by one unit

Total number of grid points                  ...   154778
Total number of batches                      ...     1237
Average number of points per batch           ...      125
Average number of grid points per atom       ...     2920
UseSFitting                                  ... on
Initializing property integral containers    ... done (  0.0 sec)

SHARK setup successfully completed in  15.1 seconds

Maximum memory used throughout the entire STARTUP-calculation: 118.0 MB
-------------------------------------------------------------------------------
                                 ORCA GUESS
                   Start orbitals & Density for SCF / CASSCF
-------------------------------------------------------------------------------

------------
SCF SETTINGS
------------
Hamiltonian:
 Density Functional     Method          .... DFT(GTOs)
 Exchange Functional    Exchange        .... B88
   X-Alpha parameter    XAlpha          ....  0.666667
   Becke's b parameter  XBeta           ....  0.004200
 Correlation Functional Correlation     .... LYP
 LDA part of GGA corr.  LDAOpt          .... VWN-5
 Gradients option       PostSCFGGA      .... off
 Hybrid DFT is turned on
   Fraction HF Exchange ScalHFX         ....  0.200000
   Scaling of DF-GGA-X  ScalDFX         ....  0.720000
   Scaling of DF-GGA-C  ScalDFC         ....  0.810000
   Scaling of DF-LDA-C  ScalLDAC        ....  1.000000
   Perturbative correction              ....  0.000000
   NL short-range parameter             ....  4.800000
 RI-approximation to the Coulomb term is turned on
   Number of AuxJ basis functions       .... 1801
   RIJ-COSX (HFX calculated with COS-X)).... on


General Settings:
 Integral files         IntName         .... /home/nmrbox/aojoawo/Documents/ERDOS/inputs/CHEMBL4785621
 Hartree-Fock type      HFTyp           .... RHF
 Total Charge           Charge          ....    0
 Multiplicity           Mult            ....    1
 Number of Electrons    NEL             ....  236
 Basis Dimension        Dim             ....  494
 Nuclear Repulsion      ENuc            ....   3536.1764026378 Eh

Convergence Acceleration:
 AO-DIIS                CNVDIIS         .... on
   Start iteration      DIISMaxIt       ....    12
   Startup error        DIISStart       ....  0.200000
   # of expansion vecs  DIISMaxEq       ....     5
   Bias factor          DIISBfac        ....   1.050
   Max. coefficient     DIISMaxC        ....  10.000
 MO-DIIS                CNVKDIIS        .... off
 Trust-Rad. Augm. Hess. CNVTRAH         .... auto
   Auto Start mean grad. ratio tolernc. ....  1.125000
   Auto Start start iteration           ....    50
   Auto Start num. interpolation iter.  ....    10
   Max. Number of Micro iterations      ....    24
   Max. Number of Macro iterations      .... Maxiter - #DIIS iter
   Number of Davidson start vectors     ....     2
   Converg. threshold    (grad. norm)   ....   5.000e-05
   Grad. Scal. Fac. for Micro threshold ....   0.100
   Minimum threshold for Micro iter.    ....   1.000e-02
   NR start threshold (gradient norm)   ....   1.000e-04
   Initial trust radius                 ....   0.400
   Minimum AH scaling param. (alpha)    ....   1.000
   Maximum AH scaling param. (alpha)    .... 1000.000
   Quad. conv. algorithm                .... NR
   White noise on init. David. guess    .... on
   Maximum white noise                  ....   0.010
   Pseudo random numbers                .... off
   Inactive MOs                         .... canonical
   Orbital update algorithm             .... Taylor
   Preconditioner                       .... Diag
   Full preconditioner red. dimension   ....   250
 SOSCF                  CNVSOSCF        .... on
   Start iteration      SOSCFMaxIt      ....   150
   Startup grad/error   SOSCFStart      ....  0.003300
   Hessian update       SOSCFHessUp     .... L-BFGS
 Level Shifting         CNVShift        .... on
   Level shift para.    LevelShift      ....    0.2500
   Turn off err/grad.   ShiftErr        ....    0.0010
 Zerner damping         CNVZerner       .... off
 Static damping         CNVDamp         .... on
   Fraction old density DampFac         ....    0.7000
   Max. Damping (<1)    DampMax         ....    0.9800
   Min. Damping (>=0)   DampMin         ....    0.0000
   Turn off err/grad.   DampErr         ....    0.1000

SCF Procedure:
 Maximum # iterations   MaxIter         ....   125
 SCF integral mode      SCFMode         .... Direct
   Integral package                     .... SHARK and LIBINT hybrid scheme
 Reset frequency        DirectResetFreq ....    20
 Integral Threshold     Thresh          ....  1.000e-10 Eh
 Primitive CutOff       TCut            ....  1.000e-11 Eh

Convergence Tolerance:
 Convergence Check Mode ConvCheckMode   .... Total+1el-Energy
 Convergence forced     ConvForced      .... 0
 Energy Change          TolE            ....  1.000e-06 Eh
 1-El. energy change                    ....  1.000e-03 Eh
 Orbital Gradient       TolG            ....  5.000e-05
 Orbital Rotation angle TolX            ....  5.000e-05
 DIIS Error             TolErr          ....  1.000e-06

------------------------------
INITIAL GUESS: MODEL POTENTIAL
------------------------------
Loading Hartree-Fock densities                     ... done
Calculating cut-offs                               ... done
Initializing the effective Hamiltonian             ... done
Setting up the integral package (SHARK)            ... done
Starting the Coulomb interaction                   ... done (   4.8 sec)
Making the grid                                    ... done (   1.8 sec)
Mapping shells                                     ... done
Starting the XC term evaluation                    ... done (   1.6 sec)
  promolecular density results
     # of electrons  =    235.993681244
     EX              =   -211.454359826
     EC              =     -8.241029320
     EX+EC           =   -219.695389147
Transforming the Hamiltonian                       ... done (   0.0 sec)
Diagonalizing the Hamiltonian                      ... done (   0.0 sec)
Back transforming the eigenvectors                 ... done (   0.0 sec)
Now organizing SCF variables                       ... done
                      ------------------
                      INITIAL GUESS DONE (   8.3 sec)
                      ------------------
             **** ENERGY FILE WAS UPDATED (/home/nmrbox/aojoawo/Documents/ERDOS/inputs/CHEMBL4785621.en.tmp) ****
Finished Guess after   8.7 sec
Maximum memory used throughout the entire GUESS-calculation: 66.0 MB

-------------------------------------------------------------------------------------------
                                      ORCA LEAN-SCF
                              memory conserving SCF solver
-------------------------------------------------------------------------------------------

----------------------------------------D-I-I-S--------------------------------------------
Iteration    Energy (Eh)           Delta-E    RMSDP     MaxDP     DIISErr   Damp  Time(sec)
-------------------------------------------------------------------------------------------
               ***  Starting incremental Fock matrix formation  ***
    1    -1875.4706244801295725     0.00e+00  2.09e-03  1.04e-01  2.76e-01  0.700  82.3
    2    -1875.8239522188164301    -3.53e-01  1.37e-03  5.61e-02  1.04e-01  0.700  36.6
                               ***Turning on AO-DIIS***
    3    -1875.9537603771264003    -1.30e-01  5.79e-04  1.74e-02  4.03e-02  0.700  35.7
    4    -1876.0355864689622649    -8.18e-02  1.02e-03  3.06e-02  1.65e-02  0.000  32.4
    5    -1876.2172403041017787    -1.82e-01  2.33e-04  8.55e-03  6.85e-03  0.000  34.6
                              *** Initializing SOSCF ***
---------------------------------------S-O-S-C-F--------------------------------------
Iteration    Energy (Eh)           Delta-E    RMSDP     MaxDP     MaxGrad    Time(sec)
--------------------------------------------------------------------------------------
    6    -1876.2185752670579859    -1.33e-03  7.48e-05  2.73e-03  2.99e-03    29.9
               *** Restarting incremental Fock matrix formation ***
    7    -1876.2186015433767352    -2.63e-05  6.14e-05  3.70e-03  3.77e-04    83.7
    8    -1876.2185550743602107     4.65e-05  3.65e-05  2.95e-03  1.20e-03    47.4
    9    -1876.2186194937135042    -6.44e-05  9.39e-06  4.40e-04  5.03e-05    41.8
   10    -1876.2186184686665911     1.03e-06  5.71e-06  3.09e-04  1.12e-04    33.0
   11    -1876.2186198388594676    -1.37e-06  2.34e-06  8.79e-05  1.97e-05    28.5
   12    -1876.2186198972835882    -5.84e-08  1.45e-06  6.13e-05  2.47e-05    24.3
                 **** Energy Check signals convergence ****

               *****************************************************
               *                     SUCCESS                       *
               *           SCF CONVERGED AFTER  12 CYCLES          *
               *****************************************************

Recomputing exchange energy using gridx3       ... done (  142.538 sec)
Old exchange energy                            :    -42.792686009 Eh
New exchange energy                            :    -42.792715615 Eh
Exchange energy change after final integration :     -0.000029606 Eh
Total energy after final integration           :  -1876.218649503 Eh
             **** ENERGY FILE WAS UPDATED (/home/nmrbox/aojoawo/Documents/ERDOS/inputs/CHEMBL4785621.en.tmp) ****

----------------
TOTAL SCF ENERGY
----------------

Total Energy       :      -1876.21864950319264 Eh          -51054.50501 eV

Components:
Nuclear Repulsion  :       3536.17640263776548 Eh           96224.25186 eV
Electronic Energy  :      -5412.39502253504907 Eh         -147278.75607 eV
One Electron Energy:      -9604.66062848587171 Eh         -261356.10279 eV
Two Electron Energy:       4192.26560595082265 Eh          114077.34672 eV

Virial components:
Potential Energy   :      -3742.56372244690101 Eh         -101840.33635 eV
Kinetic Energy     :       1866.34507294370860 Eh           50785.83134 eV
Virial Ratio       :          2.00529032744406

DFT components:
N(Alpha)           :      117.999700172527 electrons
N(Beta)            :      117.999700172527 electrons
N(Total)           :      235.999400345055 electrons
E(X)               :     -170.023958209736 Eh       
E(C)               :       -9.683316248018 Eh       
E(XC)              :     -179.707274457753 Eh       

---------------
SCF CONVERGENCE
---------------

  Last Energy change         ...    5.8424e-08  Tolerance :   1.0000e-06
  Last MAX-Density change    ...    6.1263e-05  Tolerance :   1.0000e-05
  Last RMS-Density change    ...    1.4461e-06  Tolerance :   1.0000e-06
  Last DIIS Error            ...    2.9894e-03  Tolerance :   1.0000e-06
  Last Orbital Gradient      ...    2.4673e-05  Tolerance :   5.0000e-05
  Last Orbital Rotation      ...    3.0741e-05  Tolerance :   5.0000e-05


----------------
ORBITAL ENERGIES
----------------

  NO   OCC          E(Eh)            E(eV) 
   0   2.0000    -101.523111     -2762.5843 
   1   2.0000     -24.699832      -672.1166 
   2   2.0000     -19.166527      -521.5477 
   3   2.0000     -19.118732      -520.2471 
   4   2.0000     -19.116890      -520.1970 
   5   2.0000     -14.361292      -390.7906 
   6   2.0000     -14.356843      -390.6696 
   7   2.0000     -14.328347      -389.8942 
   8   2.0000     -10.297465      -280.2083 
   9   2.0000     -10.291252      -280.0392 
  10   2.0000     -10.285483      -279.8822 
  11   2.0000     -10.266717      -279.3716 
  12   2.0000     -10.250981      -278.9434 
  13   2.0000     -10.241771      -278.6928 
  14   2.0000     -10.225185      -278.2414 
  15   2.0000     -10.221605      -278.1440 
  16   2.0000     -10.221371      -278.1376 
  17   2.0000     -10.208632      -277.7910 
  18   2.0000     -10.208504      -277.7875 
  19   2.0000     -10.205677      -277.7106 
  20   2.0000     -10.194380      -277.4032 
  21   2.0000     -10.194170      -277.3975 
  22   2.0000     -10.191742      -277.3314 
  23   2.0000     -10.191305      -277.3195 
  24   2.0000     -10.191044      -277.3124 
  25   2.0000     -10.190798      -277.3057 
  26   2.0000     -10.189503      -277.2705 
  27   2.0000     -10.183333      -277.1026 
  28   2.0000     -10.182345      -277.0757 
  29   2.0000     -10.181027      -277.0398 
  30   2.0000     -10.177760      -276.9509 
  31   2.0000     -10.171568      -276.7824 
  32   2.0000      -9.454880      -257.2804 
  33   2.0000      -7.217874      -196.4083 
  34   2.0000      -7.208528      -196.1540 
  35   2.0000      -7.208214      -196.1455 
  36   2.0000      -1.212039       -32.9812 
  37   2.0000      -1.047631       -28.5075 
  38   2.0000      -1.019442       -27.7404 
  39   2.0000      -1.012841       -27.5608 
  40   2.0000      -0.925222       -25.1766 
  41   2.0000      -0.922326       -25.0978 
  42   2.0000      -0.887124       -24.1399 
  43   2.0000      -0.883839       -24.0505 
  44   2.0000      -0.860624       -23.4188 
  45   2.0000      -0.852449       -23.1963 
  46   2.0000      -0.810101       -22.0440 
  47   2.0000      -0.796344       -21.6696 
  48   2.0000      -0.780511       -21.2388 
  49   2.0000      -0.772052       -21.0086 
  50   2.0000      -0.754169       -20.5220 
  51   2.0000      -0.750033       -20.4094 
  52   2.0000      -0.719173       -19.5697 
  53   2.0000      -0.706289       -19.2191 
  54   2.0000      -0.695060       -18.9136 
  55   2.0000      -0.685676       -18.6582 
  56   2.0000      -0.652802       -17.7637 
  57   2.0000      -0.619839       -16.8667 
  58   2.0000      -0.614950       -16.7336 
  59   2.0000      -0.611292       -16.6341 
  60   2.0000      -0.606803       -16.5119 
  61   2.0000      -0.587844       -15.9961 
  62   2.0000      -0.583427       -15.8759 
  63   2.0000      -0.578431       -15.7399 
  64   2.0000      -0.550540       -14.9810 
  65   2.0000      -0.535038       -14.5591 
  66   2.0000      -0.529619       -14.4117 
  67   2.0000      -0.527719       -14.3600 
  68   2.0000      -0.515405       -14.0249 
  69   2.0000      -0.509920       -13.8756 
  70   2.0000      -0.501779       -13.6541 
  71   2.0000      -0.496700       -13.5159 
  72   2.0000      -0.487312       -13.2604 
  73   2.0000      -0.478573       -13.0226 
  74   2.0000      -0.473932       -12.8964 
  75   2.0000      -0.469192       -12.7674 
  76   2.0000      -0.467155       -12.7119 
  77   2.0000      -0.453982       -12.3535 
  78   2.0000      -0.451816       -12.2945 
  79   2.0000      -0.446774       -12.1573 
  80   2.0000      -0.440234       -11.9794 
  81   2.0000      -0.434833       -11.8324 
  82   2.0000      -0.431011       -11.7284 
  83   2.0000      -0.428068       -11.6483 
  84   2.0000      -0.427292       -11.6272 
  85   2.0000      -0.417372       -11.3573 
  86   2.0000      -0.411714       -11.2033 
  87   2.0000      -0.405821       -11.0429 
  88   2.0000      -0.401301       -10.9200 
  89   2.0000      -0.396237       -10.7822 
  90   2.0000      -0.394642       -10.7387 
  91   2.0000      -0.390586       -10.6284 
  92   2.0000      -0.384911       -10.4740 
  93   2.0000      -0.376180       -10.2364 
  94   2.0000      -0.365791        -9.9537 
  95   2.0000      -0.364273        -9.9124 
  96   2.0000      -0.360795        -9.8177 
  97   2.0000      -0.356785        -9.7086 
  98   2.0000      -0.352871        -9.6021 
  99   2.0000      -0.347589        -9.4584 
 100   2.0000      -0.345006        -9.3881 
 101   2.0000      -0.340182        -9.2568 
 102   2.0000      -0.338465        -9.2101 
 103   2.0000      -0.322125        -8.7655 
 104   2.0000      -0.316314        -8.6073 
 105   2.0000      -0.306186        -8.3317 
 106   2.0000      -0.305699        -8.3185 
 107   2.0000      -0.289410        -7.8752 
 108   2.0000      -0.271921        -7.3993 
 109   2.0000      -0.266309        -7.2466 
 110   2.0000      -0.262261        -7.1365 
 111   2.0000      -0.256834        -6.9888 
 112   2.0000      -0.253445        -6.8966 
 113   2.0000      -0.245203        -6.6723 
 114   2.0000      -0.235459        -6.4072 
 115   2.0000      -0.230588        -6.2746 
 116   2.0000      -0.227221        -6.1830 
 117   2.0000      -0.223994        -6.0952 
 118   0.0000      -0.032394        -0.8815 
 119   0.0000      -0.025492        -0.6937 
 120   0.0000      -0.018223        -0.4959 
 121   0.0000      -0.011652        -0.3171 
 122   0.0000       0.001788         0.0486 
 123   0.0000       0.002835         0.0772 
 124   0.0000       0.005496         0.1495 
 125   0.0000       0.011157         0.3036 
 126   0.0000       0.037658         1.0247 
 127   0.0000       0.057753         1.5715 
 128   0.0000       0.082626         2.2484 
*Only the first 10 virtual orbitals were printed.

                    ********************************
                    * MULLIKEN POPULATION ANALYSIS *
                    ********************************

-----------------------
MULLIKEN ATOMIC CHARGES
-----------------------
   0 C :   -0.183513
   1 O :   -0.477302
   2 C :    0.499780
   3 N :   -0.435949
   4 C :    0.025693
   5 C :   -0.153839
   6 C :   -0.119651
   7 C :    0.013341
   8 C :    0.447110
   9 O :   -0.457862
  10 N :   -0.391539
  11 C :   -0.047266
  12 C :   -0.304769
  13 C :   -0.342643
  14 C :    0.030777
  15 C :    0.370274
  16 F :   -0.313667
  17 C :   -0.219130
  18 C :   -0.057667
  19 Cl:   -0.025384
  20 C :   -0.196782
  21 C :    0.142068
  22 C :   -0.156182
  23 C :    0.569148
  24 N :   -0.763898
  25 O :   -0.464754
  26 C :    0.122364
  27 C :   -0.173366
  28 C :   -0.133298
  29 C :   -0.119653
  30 C :   -0.121531
  31 C :   -0.158428
  32 H :    0.152155
  33 H :    0.161068
  34 H :    0.160260
  35 H :    0.151332
  36 H :    0.132787
  37 H :    0.151642
  38 H :    0.192098
  39 H :    0.169993
  40 H :    0.148461
  41 H :    0.156530
  42 H :    0.150196
  43 H :    0.152865
  44 H :    0.167974
  45 H :    0.165546
  46 H :    0.334855
  47 H :    0.352750
  48 H :    0.147701
  49 H :    0.135976
  50 H :    0.135597
  51 H :    0.142116
  52 H :    0.135614
Sum of atomic charges:    0.0000000

--------------------------------
MULLIKEN REDUCED ORBITAL CHARGES
--------------------------------
  0 C s       :     3.250746  s :     3.250746
      pz      :     0.827542  p :     2.874402
      px      :     0.953289
      py      :     1.093572
      dz2     :     0.013282  d :     0.058364
      dxz     :     0.017535
      dyz     :     0.008626
      dx2y2   :     0.005109
      dxy     :     0.013813

  1 O s       :     3.872325  s :     3.872325
      pz      :     1.208479  p :     4.578596
      px      :     1.621782
      py      :     1.748335
      dz2     :     0.005287  d :     0.026381
      dxz     :     0.009232
      dyz     :     0.005117
      dx2y2   :     0.003416
      dxy     :     0.003329

  2 C s       :     3.004267  s :     3.004267
      pz      :     0.709210  p :     2.410545
      px      :     0.800571
      py      :     0.900764
      dz2     :     0.020316  d :     0.085408
      dxz     :     0.027565
      dyz     :     0.014379
      dx2y2   :     0.011821
      dxy     :     0.011328

  3 N s       :     3.673478  s :     3.673478
      pz      :     1.354712  p :     3.728539
      px      :     1.204681
      py      :     1.169146
      dz2     :     0.009893  d :     0.033932
      dxz     :     0.005419
      dyz     :     0.005831
      dx2y2   :     0.007028
      dxy     :     0.005761

  4 C s       :     3.140682  s :     3.140682
      pz      :     0.881105  p :     2.779541
      px      :     0.967160
      py      :     0.931276
      dz2     :     0.017228  d :     0.054084
      dxz     :     0.015205
      dyz     :     0.009431
      dx2y2   :     0.007780
      dxy     :     0.004440

  5 C s       :     3.191058  s :     3.191058
      pz      :     0.976192  p :     2.928151
      px      :     0.926412
      py      :     1.025546
      dz2     :     0.009115  d :     0.034631
      dxz     :     0.011232
      dyz     :     0.003942
      dx2y2   :     0.005054
      dxy     :     0.005288

  6 C s       :     3.189975  s :     3.189975
      pz      :     0.961844  p :     2.892496
      px      :     0.967287
      py      :     0.963365
      dz2     :     0.008238  d :     0.037180
      dxz     :     0.013830
      dyz     :     0.004292
      dx2y2   :     0.005519
      dxy     :     0.005301

  7 C s       :     3.144702  s :     3.144702
      pz      :     0.901523  p :     2.804166
      px      :     0.866668
      py      :     1.035974
      dz2     :     0.009258  d :     0.037792
      dxz     :     0.011946
      dyz     :     0.005569
      dx2y2   :     0.006405
      dxy     :     0.004614

  8 C s       :     3.059243  s :     3.059243
      pz      :     0.796135  p :     2.393000
      px      :     0.833676
      py      :     0.763189
      dz2     :     0.012729  d :     0.100647
      dxz     :     0.010227
      dyz     :     0.019888
      dx2y2   :     0.025412
      dxy     :     0.032391

  9 O s       :     3.897252  s :     3.897252
      pz      :     1.410126  p :     4.535145
      px      :     1.730861
      py      :     1.394158
      dz2     :     0.003953  d :     0.025465
      dxz     :     0.001989
      dyz     :     0.007316
      dx2y2   :     0.006622
      dxy     :     0.005585

 10 N s       :     3.554485  s :     3.554485
      pz      :     1.491320  p :     3.805049
      px      :     1.264329
      py      :     1.049400
      dz2     :     0.004623  d :     0.032005
      dxz     :     0.004638
      dyz     :     0.005980
      dx2y2   :     0.008221
      dxy     :     0.008543

 11 C s       :     3.199671  s :     3.199671
      pz      :     0.916662  p :     2.788935
      px      :     0.837007
      py      :     1.035266
      dz2     :     0.012225  d :     0.058660
      dxz     :     0.015837
      dyz     :     0.006997
      dx2y2   :     0.015390
      dxy     :     0.008210

 12 C s       :     3.267174  s :     3.267174
      pz      :     0.980460  p :     2.999866
      px      :     0.946701
      py      :     1.072704
      dz2     :     0.008654  d :     0.037730
      dxz     :     0.005354
      dyz     :     0.008845
      dx2y2   :     0.006802
      dxy     :     0.008075

 13 C s       :     3.257103  s :     3.257103
      pz      :     1.007036  p :     3.044690
      px      :     0.969644
      py      :     1.068010
      dz2     :     0.008812  d :     0.040850
      dxz     :     0.008040
      dyz     :     0.008412
      dx2y2   :     0.008922
      dxy     :     0.006664

 14 C s       :     3.136567  s :     3.136567
      pz      :     0.890452  p :     2.790427
      px      :     0.895200
      py      :     1.004774
      dz2     :     0.009777  d :     0.042229
      dxz     :     0.012471
      dyz     :     0.006442
      dx2y2   :     0.007046
      dxy     :     0.006493

 15 C s       :     3.112272  s :     3.112272
      pz      :     0.768642  p :     2.445047
      px      :     0.750778
      py      :     0.925627
      dz2     :     0.016434  d :     0.072408
      dxz     :     0.021689
      dyz     :     0.011012
      dx2y2   :     0.011157
      dxy     :     0.012116

 16 F s       :     3.972146  s :     3.972146
      pz      :     1.774860  p :     5.324473
      px      :     1.709000
      py      :     1.840613
      dz2     :     0.002890  d :     0.017048
      dxz     :     0.004982
      dyz     :     0.002587
      dx2y2   :     0.003152
      dxy     :     0.003438

 17 C s       :     3.211546  s :     3.211546
      pz      :     0.950060  p :     2.974103
      px      :     0.984396
      py      :     1.039647
      dz2     :     0.008628  d :     0.033480
      dxz     :     0.009258
      dyz     :     0.005873
      dx2y2   :     0.006053
      dxy     :     0.003669

 18 C s       :     3.188651  s :     3.188651
      pz      :     0.803893  p :     2.820339
      px      :     0.983310
      py      :     1.033136
      dz2     :     0.013132  d :     0.048677
      dxz     :     0.013849
      dyz     :     0.007647
      dx2y2   :     0.006696
      dxy     :     0.007354

 19 Cls       :     5.926388  s :     5.926388
      pz      :     3.242448  p :    11.069363
      px      :     3.924692
      py      :     3.902222
      dz2     :     0.015496  d :     0.029633
      dxz     :     0.005367
      dyz     :     0.007576
      dx2y2   :     0.000493
      dxy     :     0.000701

 20 C s       :     3.212431  s :     3.212431
      pz      :     1.009249  p :     2.949228
      px      :     0.932670
      py      :     1.007309
      dz2     :     0.007660  d :     0.035123
      dxz     :     0.011495
      dyz     :     0.005865
      dx2y2   :     0.004674
      dxy     :     0.005430

 21 C s       :     3.132440  s :     3.132440
      pz      :     0.843659  p :     2.682601
      px      :     0.887517
      py      :     0.951426
      dz2     :     0.009955  d :     0.042891
      dxz     :     0.013830
      dyz     :     0.007066
      dx2y2   :     0.005836
      dxy     :     0.006203

 22 C s       :     3.225313  s :     3.225313
      pz      :     1.024296  p :     2.872989
      px      :     1.008258
      py      :     0.840435
      dz2     :     0.008610  d :     0.057879
      dxz     :     0.011785
      dyz     :     0.011357
      dx2y2   :     0.013813
      dxy     :     0.012314

 23 C s       :     3.020990  s :     3.020990
      pz      :     0.798632  p :     2.310689
      px      :     0.813542
      py      :     0.698515
      dz2     :     0.023319  d :     0.099173
      dxz     :     0.018418
      dyz     :     0.021786
      dx2y2   :     0.019149
      dxy     :     0.016501

 24 N s       :     3.610799  s :     3.610799
      pz      :     1.340685  p :     4.130782
      px      :     1.551575
      py      :     1.238521
      dz2     :     0.002958  d :     0.022317
      dxz     :     0.004194
      dyz     :     0.007839
      dx2y2   :     0.003132
      dxy     :     0.004194

 25 O s       :     3.899257  s :     3.899257
      pz      :     1.398905  p :     4.539668
      px      :     1.540100
      py      :     1.600663
      dz2     :     0.008095  d :     0.025829
      dxz     :     0.005198
      dyz     :     0.006782
      dx2y2   :     0.002383
      dxy     :     0.003371

 26 C s       :     3.134762  s :     3.134762
      pz      :     0.886100  p :     2.703406
      px      :     0.882245
      py      :     0.935061
      dz2     :     0.010037  d :     0.039468
      dxz     :     0.010414
      dyz     :     0.007874
      dx2y2   :     0.005010
      dxy     :     0.006134

 27 C s       :     3.203225  s :     3.203225
      pz      :     0.990203  p :     2.934178
      px      :     0.961319
      py      :     0.982656
      dz2     :     0.009233  d :     0.035963
      dxz     :     0.009979
      dyz     :     0.004980
      dx2y2   :     0.006343
      dxy     :     0.005428

 28 C s       :     3.190612  s :     3.190612
      pz      :     0.961762  p :     2.906524
      px      :     0.954273
      py      :     0.990490
      dz2     :     0.007810  d :     0.036162
      dxz     :     0.009589
      dyz     :     0.008176
      dx2y2   :     0.004847
      dxy     :     0.005740

 29 C s       :     3.187813  s :     3.187813
      pz      :     0.940534  p :     2.895511
      px      :     0.981288
      py      :     0.973688
      dz2     :     0.010223  d :     0.036329
      dxz     :     0.008581
      dyz     :     0.007070
      dx2y2   :     0.003873
      dxy     :     0.006581

 30 C s       :     3.188875  s :     3.188875
      pz      :     0.980909  p :     2.896546
      px      :     0.953507
      py      :     0.962130
      dz2     :     0.009552  d :     0.036110
      dxz     :     0.010008
      dyz     :     0.004976
      dx2y2   :     0.006052
      dxy     :     0.005522

 31 C s       :     3.205017  s :     3.205017
      pz      :     0.967449  p :     2.917337
      px      :     0.973880
      py      :     0.976008
      dz2     :     0.007790  d :     0.036074
      dxz     :     0.009618
      dyz     :     0.008145
      dx2y2   :     0.004853
      dxy     :     0.005669

 32 H s       :     0.847845  s :     0.847845

 33 H s       :     0.838932  s :     0.838932

 34 H s       :     0.839740  s :     0.839740

 35 H s       :     0.848668  s :     0.848668

 36 H s       :     0.867213  s :     0.867213

 37 H s       :     0.848358  s :     0.848358

 38 H s       :     0.807902  s :     0.807902

 39 H s       :     0.830007  s :     0.830007

 40 H s       :     0.851539  s :     0.851539

 41 H s       :     0.843470  s :     0.843470

 42 H s       :     0.849804  s :     0.849804

 43 H s       :     0.847135  s :     0.847135

 44 H s       :     0.832026  s :     0.832026

 45 H s       :     0.834454  s :     0.834454

 46 H s       :     0.665145  s :     0.665145

 47 H s       :     0.647250  s :     0.647250

 48 H s       :     0.852299  s :     0.852299

 49 H s       :     0.864024  s :     0.864024

 50 H s       :     0.864403  s :     0.864403

 51 H s       :     0.857884  s :     0.857884

 52 H s       :     0.864386  s :     0.864386



                     *******************************
                     * LOEWDIN POPULATION ANALYSIS *
                     *******************************

----------------------
LOEWDIN ATOMIC CHARGES
----------------------
   0 C :   -0.193703
   1 O :   -0.165626
   2 C :    0.138908
   3 N :   -0.160351
   4 C :   -0.058559
   5 C :   -0.167375
   6 C :   -0.093483
   7 C :   -0.071692
   8 C :    0.153742
   9 O :   -0.261715
  10 N :   -0.086135
  11 C :   -0.036738
  12 C :   -0.228693
  13 C :   -0.223634
  14 C :   -0.046747
  15 C :    0.118685
  16 F :   -0.101670
  17 C :   -0.168948
  18 C :   -0.088093
  19 Cl:    0.031487
  20 C :   -0.140121
  21 C :   -0.015199
  22 C :   -0.070040
  23 C :    0.128418
  24 N :   -0.401991
  25 O :   -0.275559
  26 C :   -0.035092
  27 C :   -0.131723
  28 C :   -0.130341
  29 C :   -0.120785
  30 C :   -0.121332
  31 C :   -0.114344
  32 H :    0.121412
  33 H :    0.126921
  34 H :    0.131330
  35 H :    0.136100
  36 H :    0.135728
  37 H :    0.143211
  38 H :    0.158898
  39 H :    0.138339
  40 H :    0.130322
  41 H :    0.133699
  42 H :    0.130169
  43 H :    0.148917
  44 H :    0.152411
  45 H :    0.150371
  46 H :    0.252536
  47 H :    0.266486
  48 H :    0.138626
  49 H :    0.134935
  50 H :    0.135125
  51 H :    0.138099
  52 H :    0.134816

-------------------------------
LOEWDIN REDUCED ORBITAL CHARGES
-------------------------------
  0 C s       :     2.980847  s :     2.980847
      pz      :     0.921555  p :     3.095993
      px      :     1.032429
      py      :     1.142009
      dz2     :     0.026519  d :     0.116863
      dxz     :     0.036849
      dyz     :     0.016803
      dx2y2   :     0.009669
      dxy     :     0.027023

  1 O s       :     3.468865  s :     3.468865
      pz      :     1.257506  p :     4.635666
      px      :     1.644123
      py      :     1.734037
      dz2     :     0.016531  d :     0.061096
      dxz     :     0.021299
      dyz     :     0.012826
      dx2y2   :     0.005169
      dxy     :     0.005272

  2 C s       :     2.847794  s :     2.847794
      pz      :     0.892459  p :     2.815900
      px      :     1.004917
      py      :     0.918524
      dz2     :     0.048165  d :     0.197398
      dxz     :     0.067467
      dyz     :     0.030189
      dx2y2   :     0.027773
      dxy     :     0.023803

  3 N s       :     3.239367  s :     3.239367
      pz      :     1.396159  p :     3.845614
      px      :     1.285970
      py      :     1.163484
      dz2     :     0.022281  d :     0.075371
      dxz     :     0.014280
      dyz     :     0.010616
      dx2y2   :     0.016282
      dxy     :     0.011913

  4 C s       :     2.915336  s :     2.915336
      pz      :     1.010846  p :     3.019046
      px      :     1.068315
      py      :     0.939885
      dz2     :     0.042787  d :     0.124177
      dxz     :     0.038689
      dyz     :     0.020827
      dx2y2   :     0.013604
      dxy     :     0.008269

  5 C s       :     2.922112  s :     2.922112
      pz      :     1.072029  p :     3.161636
      px      :     1.067333
      py      :     1.022274
      dz2     :     0.021661  d :     0.083627
      dxz     :     0.029302
      dyz     :     0.007272
      dx2y2   :     0.013483
      dxy     :     0.011909

  6 C s       :     2.918385  s :     2.918385
      pz      :     1.054197  p :     3.088002
      px      :     1.072282
      py      :     0.961523
      dz2     :     0.020142  d :     0.087095
      dxz     :     0.033019
      dyz     :     0.008915
      dx2y2   :     0.013085
      dxy     :     0.011935

  7 C s       :     2.874838  s :     2.874838
      pz      :     1.054813  p :     3.098840
      px      :     1.023910
      py      :     1.020118
      dz2     :     0.026362  d :     0.098014
      dxz     :     0.033065
      dyz     :     0.012246
      dx2y2   :     0.016223
      dxy     :     0.010119

  8 C s       :     2.864266  s :     2.864266
      pz      :     0.834814  p :     2.749631
      px      :     0.981453
      py      :     0.933365
      dz2     :     0.026154  d :     0.232362
      dxz     :     0.022705
      dyz     :     0.046439
      dx2y2   :     0.058699
      dxy     :     0.078364

  9 O s       :     3.592731  s :     3.592731
      pz      :     1.415739  p :     4.618575
      px      :     1.737770
      py      :     1.465067
      dz2     :     0.006926  d :     0.050409
      dxz     :     0.003446
      dyz     :     0.013605
      dx2y2   :     0.013654
      dxy     :     0.012778

 10 N s       :     3.129552  s :     3.129552
      pz      :     1.478538  p :     3.876971
      px      :     1.281502
      py      :     1.116932
      dz2     :     0.009518  d :     0.079611
      dxz     :     0.010324
      dyz     :     0.014985
      dx2y2   :     0.021515
      dxy     :     0.023269

 11 C s       :     2.881734  s :     2.881734
      pz      :     1.005704  p :     3.026229
      px      :     0.937664
      py      :     1.082861
      dz2     :     0.026790  d :     0.128775
      dxz     :     0.036170
      dyz     :     0.015029
      dx2y2   :     0.033197
      dxy     :     0.017588

 12 C s       :     2.944817  s :     2.944817
      pz      :     1.044603  p :     3.205000
      px      :     1.042657
      py      :     1.117740
      dz2     :     0.019423  d :     0.078876
      dxz     :     0.010668
      dyz     :     0.018005
      dx2y2   :     0.014691
      dxy     :     0.016090

 13 C s       :     2.925960  s :     2.925960
      pz      :     1.057604  p :     3.211424
      px      :     1.047855
      py      :     1.105964
      dz2     :     0.019899  d :     0.086249
      dxz     :     0.017407
      dyz     :     0.016894
      dx2y2   :     0.019236
      dxy     :     0.012812

 14 C s       :     2.867733  s :     2.867733
      pz      :     1.035560  p :     3.072342
      px      :     1.040596
      py      :     0.996186
      dz2     :     0.026089  d :     0.106672
      dxz     :     0.033951
      dyz     :     0.013588
      dx2y2   :     0.017627
      dxy     :     0.015418

 15 C s       :     2.862324  s :     2.862324
      pz      :     0.966994  p :     2.839384
      px      :     0.917488
      py      :     0.954902
      dz2     :     0.043358  d :     0.179606
      dxz     :     0.054186
      dyz     :     0.025762
      dx2y2   :     0.027753
      dxy     :     0.028547

 16 F s       :     3.734510  s :     3.734510
      pz      :     1.779297  p :     5.332699
      px      :     1.716371
      py      :     1.837031
      dz2     :     0.005755  d :     0.034462
      dxz     :     0.010123
      dyz     :     0.005208
      dx2y2   :     0.006368
      dxy     :     0.007008

 17 C s       :     2.924839  s :     2.924839
      pz      :     1.047791  p :     3.164451
      px      :     1.071811
      py      :     1.044849
      dz2     :     0.022912  d :     0.079658
      dxz     :     0.023982
      dyz     :     0.013891
      dx2y2   :     0.011349
      dxy     :     0.007524

 18 C s       :     2.915799  s :     2.915799
      pz      :     0.929123  p :     3.058613
      px      :     1.091742
      py      :     1.037748
      dz2     :     0.030975  d :     0.113681
      dxz     :     0.034557
      dyz     :     0.015703
      dx2y2   :     0.015961
      dxy     :     0.016484

 19 Cls       :     5.800185  s :     5.800185
      pz      :     3.319109  p :    11.135506
      px      :     3.918991
      py      :     3.897406
      dz2     :     0.017693  d :     0.032822
      dxz     :     0.005685
      dyz     :     0.008192
      dx2y2   :     0.000496
      dxy     :     0.000756

 20 C s       :     2.918130  s :     2.918130
      pz      :     1.066073  p :     3.138674
      px      :     1.053883
      py      :     1.018719
      dz2     :     0.019504  d :     0.083318
      dxz     :     0.029786
      dyz     :     0.012284
      dx2y2   :     0.010817
      dxy     :     0.010927

 21 C s       :     2.869254  s :     2.869254
      pz      :     1.043649  p :     3.036929
      px      :     1.025744
      py      :     0.967536
      dz2     :     0.026472  d :     0.109016
      dxz     :     0.037829
      dyz     :     0.016943
      dx2y2   :     0.014009
      dxy     :     0.013764

 22 C s       :     2.889659  s :     2.889659
      pz      :     1.072177  p :     3.052266
      px      :     1.053913
      py      :     0.926177
      dz2     :     0.018716  d :     0.128115
      dxz     :     0.026115
      dyz     :     0.024657
      dx2y2   :     0.030703
      dxy     :     0.027925

 23 C s       :     2.880287  s :     2.880287
      pz      :     0.963973  p :     2.761200
      px      :     0.876820
      py      :     0.920408
      dz2     :     0.052803  d :     0.230094
      dxz     :     0.041739
      dyz     :     0.054363
      dx2y2   :     0.045581
      dxy     :     0.035608

 24 N s       :     3.214690  s :     3.214690
      pz      :     1.336184  p :     4.138277
      px      :     1.535012
      py      :     1.267082
      dz2     :     0.007347  d :     0.049024
      dxz     :     0.006751
      dyz     :     0.016775
      dx2y2   :     0.008110
      dxy     :     0.010040

 25 O s       :     3.589763  s :     3.589763
      pz      :     1.464604  p :     4.634962
      px      :     1.541253
      py      :     1.629105
      dz2     :     0.014576  d :     0.050835
      dxz     :     0.009566
      dyz     :     0.016592
      dx2y2   :     0.004595
      dxy     :     0.005507

 26 C s       :     2.878557  s :     2.878557
      pz      :     1.063906  p :     3.057482
      px      :     0.993359
      py      :     1.000218
      dz2     :     0.027263  d :     0.099053
      dxz     :     0.026541
      dyz     :     0.019723
      dx2y2   :     0.011130
      dxy     :     0.014396

 27 C s       :     2.919824  s :     2.919824
      pz      :     1.062572  p :     3.128019
      px      :     1.046971
      py      :     1.018477
      dz2     :     0.020378  d :     0.083880
      dxz     :     0.022836
      dyz     :     0.012017
      dx2y2   :     0.014156
      dxy     :     0.014492

 28 C s       :     2.917262  s :     2.917262
      pz      :     1.066496  p :     3.127860
      px      :     1.044563
      py      :     1.016801
      dz2     :     0.019513  d :     0.085220
      dxz     :     0.024506
      dyz     :     0.016896
      dx2y2   :     0.011132
      dxy     :     0.013173

 29 C s       :     2.918218  s :     2.918218
      pz      :     1.063558  p :     3.117236
      px      :     1.045134
      py      :     1.008544
      dz2     :     0.026488  d :     0.085331
      dxz     :     0.021700
      dyz     :     0.017764
      dx2y2   :     0.007284
      dxy     :     0.012095

 30 C s       :     2.917622  s :     2.917622
      pz      :     1.068531  p :     3.118738
      px      :     1.041888
      py      :     1.008319
      dz2     :     0.021250  d :     0.084972
      dxz     :     0.023129
      dyz     :     0.012242
      dx2y2   :     0.013626
      dxy     :     0.014725

 31 C s       :     2.920221  s :     2.920221
      pz      :     1.055769  p :     3.109910
      px      :     1.044978
      py      :     1.009164
      dz2     :     0.019082  d :     0.084212
      dxz     :     0.024365
      dyz     :     0.016821
      dx2y2   :     0.011002
      dxy     :     0.012942

 32 H s       :     0.878588  s :     0.878588

 33 H s       :     0.873079  s :     0.873079

 34 H s       :     0.868670  s :     0.868670

 35 H s       :     0.863900  s :     0.863900

 36 H s       :     0.864272  s :     0.864272

 37 H s       :     0.856789  s :     0.856789

 38 H s       :     0.841102  s :     0.841102

 39 H s       :     0.861661  s :     0.861661

 40 H s       :     0.869678  s :     0.869678

 41 H s       :     0.866301  s :     0.866301

 42 H s       :     0.869831  s :     0.869831

 43 H s       :     0.851083  s :     0.851083

 44 H s       :     0.847589  s :     0.847589

 45 H s       :     0.849629  s :     0.849629

 46 H s       :     0.747464  s :     0.747464

 47 H s       :     0.733514  s :     0.733514

 48 H s       :     0.861374  s :     0.861374

 49 H s       :     0.865065  s :     0.865065

 50 H s       :     0.864875  s :     0.864875

 51 H s       :     0.861901  s :     0.861901

 52 H s       :     0.865184  s :     0.865184



                      *****************************
                      * MAYER POPULATION ANALYSIS *
                      *****************************

  NA   - Mulliken gross atomic population
  ZA   - Total nuclear charge
  QA   - Mulliken gross atomic charge
  VA   - Mayer's total valence
  BVA  - Mayer's bonded valence
  FA   - Mayer's free valence

  ATOM       NA         ZA         QA         VA         BVA        FA
  0 C      6.1835     6.0000    -0.1835     3.7613     3.7613    -0.0000
  1 O      8.4773     8.0000    -0.4773     2.0166     2.0166     0.0000
  2 C      5.5002     6.0000     0.4998     3.8604     3.8604    -0.0000
  3 N      7.4359     7.0000    -0.4359     2.9674     2.9674    -0.0000
  4 C      5.9743     6.0000     0.0257     3.9191     3.9191    -0.0000
  5 C      6.1538     6.0000    -0.1538     3.9200     3.9200     0.0000
  6 C      6.1197     6.0000    -0.1197     3.9398     3.9398    -0.0000
  7 C      5.9867     6.0000     0.0133     3.8521     3.8521     0.0000
  8 C      5.5529     6.0000     0.4471     3.8958     3.8958    -0.0000
  9 O      8.4579     8.0000    -0.4579     2.0419     2.0419    -0.0000
 10 N      7.3915     7.0000    -0.3915     3.0430     3.0430     0.0000
 11 C      6.0473     6.0000    -0.0473     3.8523     3.8523    -0.0000
 12 C      6.3048     6.0000    -0.3048     3.8175     3.8175    -0.0000
 13 C      6.3426     6.0000    -0.3426     3.8191     3.8191    -0.0000
 14 C      5.9692     6.0000     0.0308     3.8818     3.8818    -0.0000
 15 C      5.6297     6.0000     0.3703     3.7838     3.7838     0.0000
 16 F      9.3137     9.0000    -0.3137     1.0570     1.0570     0.0000
 17 C      6.2191     6.0000    -0.2191     3.8474     3.8474     0.0000
 18 C      6.0577     6.0000    -0.0577     3.9039     3.9039    -0.0000
 19 Cl    17.0254    17.0000    -0.0254     1.0879     1.0879     0.0000
 20 C      6.1968     6.0000    -0.1968     3.8693     3.8693    -0.0000
 21 C      5.8579     6.0000     0.1421     3.9725     3.9725    -0.0000
 22 C      6.1562     6.0000    -0.1562     3.8188     3.8188    -0.0000
 23 C      5.4309     6.0000     0.5691     3.8185     3.8185     0.0000
 24 N      7.7639     7.0000    -0.7639     2.8378     2.8378    -0.0000
 25 O      8.4648     8.0000    -0.4648     2.0586     2.0586     0.0000
 26 C      5.8776     6.0000     0.1224     3.9451     3.9451    -0.0000
 27 C      6.1734     6.0000    -0.1734     3.9222     3.9222     0.0000
 28 C      6.1333     6.0000    -0.1333     3.9442     3.9442     0.0000
 29 C      6.1197     6.0000    -0.1197     3.9501     3.9501     0.0000
 30 C      6.1215     6.0000    -0.1215     3.9483     3.9483     0.0000
 31 C      6.1584     6.0000    -0.1584     3.9313     3.9313     0.0000
 32 H      0.8478     1.0000     0.1522     0.9325     0.9325    -0.0000
 33 H      0.8389     1.0000     0.1611     0.9338     0.9338    -0.0000
 34 H      0.8397     1.0000     0.1603     0.9324     0.9324     0.0000
 35 H      0.8487     1.0000     0.1513     0.9313     0.9313    -0.0000
 36 H      0.8672     1.0000     0.1328     0.9390     0.9390     0.0000
 37 H      0.8484     1.0000     0.1516     0.9334     0.9334    -0.0000
 38 H      0.8079     1.0000     0.1921     0.9307     0.9307    -0.0000
 39 H      0.8300     1.0000     0.1700     0.9518     0.9518    -0.0000
 40 H      0.8515     1.0000     0.1485     0.9373     0.9373    -0.0000
 41 H      0.8435     1.0000     0.1565     0.9289     0.9289     0.0000
 42 H      0.8498     1.0000     0.1502     0.9383     0.9383     0.0000
 43 H      0.8471     1.0000     0.1529     0.9395     0.9395     0.0000
 44 H      0.8320     1.0000     0.1680     0.9500     0.9500     0.0000
 45 H      0.8345     1.0000     0.1655     0.9358     0.9358     0.0000
 46 H      0.6651     1.0000     0.3349     0.8612     0.8612    -0.0000
 47 H      0.6473     1.0000     0.3527     0.8572     0.8572     0.0000
 48 H      0.8523     1.0000     0.1477     0.9413     0.9413     0.0000
 49 H      0.8640     1.0000     0.1360     0.9362     0.9362     0.0000
 50 H      0.8644     1.0000     0.1356     0.9354     0.9354     0.0000
 51 H      0.8579     1.0000     0.1421     0.9356     0.9356     0.0000
 52 H      0.8644     1.0000     0.1356     0.9411     0.9411     0.0000

  Mayer bond orders larger than 0.100000
B(  0-C ,  1-O ) :   0.8933 B(  0-C , 32-H ) :   0.9358 B(  0-C , 33-H ) :   0.9345 
B(  0-C , 34-H ) :   0.9453 B(  1-O ,  2-C ) :   0.9973 B(  2-C ,  3-N ) :   1.3358 
B(  2-C ,  7-C ) :   1.3404 B(  3-N ,  4-C ) :   1.4108 B(  4-C ,  5-C ) :   1.4338 
B(  4-C , 35-H ) :   0.9297 B(  5-C ,  6-C ) :   1.4231 B(  5-C , 36-H ) :   0.9250 
B(  6-C ,  7-C ) :   1.4434 B(  6-C , 37-H ) :   0.9232 B(  7-C ,  8-C ) :   0.9006 
B(  8-C ,  9-O ) :   1.8075 B(  8-C , 10-N ) :   1.0588 B( 10-N , 11-C ) :   0.9250 
B( 10-N , 22-C ) :   0.9664 B( 11-C , 12-C ) :   0.9745 B( 11-C , 21-C ) :   0.9565 
B( 11-C , 38-H ) :   0.9077 B( 12-C , 13-C ) :   0.9699 B( 12-C , 39-H ) :   0.9203 
B( 12-C , 40-H ) :   0.9470 B( 13-C , 14-C ) :   0.9775 B( 13-C , 41-H ) :   0.9302 
B( 13-C , 42-H ) :   0.9308 B( 14-C , 15-C ) :   1.3139 B( 14-C , 21-C ) :   1.4622 
B( 15-C , 16-F ) :   0.9400 B( 15-C , 17-C ) :   1.3887 B( 17-C , 18-C ) :   1.3740 
B( 17-C , 43-H ) :   0.9164 B( 18-C , 19-Cl) :   1.0057 B( 18-C , 20-C ) :   1.3945 
B( 20-C , 21-C ) :   1.4120 B( 20-C , 44-H ) :   0.9028 B( 22-C , 23-C ) :   0.8836 
B( 22-C , 26-C ) :   0.9651 B( 22-C , 45-H ) :   0.8984 B( 23-C , 24-N ) :   1.0709 
B( 23-C , 25-O ) :   1.8297 B( 24-N , 46-H ) :   0.8284 B( 24-N , 47-H ) :   0.8223 
B( 26-C , 27-C ) :   1.4335 B( 26-C , 31-C ) :   1.4056 B( 27-C , 28-C ) :   1.4280 
B( 27-C , 48-H ) :   0.9131 B( 28-C , 29-C ) :   1.4548 B( 28-C , 49-H ) :   0.9284 
B( 29-C , 30-C ) :   1.4455 B( 29-C , 50-H ) :   0.9289 B( 30-C , 31-C ) :   1.4479 
B( 30-C , 51-H ) :   0.9265 B( 31-C , 52-H ) :   0.9231 

-------
TIMINGS
-------

Total SCF time: 0 days 0 hours 10 min 53 sec 

Total time                  ....     653.522 sec
Sum of individual times     ....     653.163 sec  ( 99.9%)

SCF preparation             ....       0.548 sec  (  0.1%)
Fock matrix formation       ....     650.137 sec  ( 99.5%)
  Startup                   ....       0.095 sec  (  0.0% of F)
  Split-RI-J                ....      84.377 sec  ( 13.0% of F)
  Chain of spheres X        ....     507.139 sec  ( 78.0% of F)
  XC integration            ....      57.486 sec  (  8.8% of F)
    XC Preparation          ....       0.000 sec  (  0.0% of XC)
    Basis function eval.    ....      22.331 sec  ( 38.8% of XC)
    Density eval.           ....      15.478 sec  ( 26.9% of XC)
    XC-Functional eval.     ....       2.310 sec  (  4.0% of XC)
    XC-Potential eval.      ....      15.253 sec  ( 26.5% of XC)
Diagonalization             ....       0.000 sec  (  0.0%)
Density matrix formation    ....       0.378 sec  (  0.1%)
Total Energy calculation    ....       0.090 sec  (  0.0%)
Population analysis         ....       0.082 sec  (  0.0%)
Orbital Transformation      ....       0.201 sec  (  0.0%)
Orbital Orthonormalization  ....       0.000 sec  (  0.0%)
DIIS solution               ....       0.983 sec  (  0.2%)
SOSCF solution              ....       0.743 sec  (  0.1%)
Finished LeanSCF after 653.6 sec

Maximum memory used throughout the entire LEANSCF-calculation: 95.7 MB

-------------------------   --------------------
FINAL SINGLE POINT ENERGY     -1876.218649503193
-------------------------   --------------------


------------------------------------------------------------------------------
                              ORCA PROPERTY CALCULATIONS
------------------------------------------------------------------------------

GBWName                                 ... /home/nmrbox/aojoawo/Documents/ERDOS/inputs/CHEMBL4785621.gbw
Number of atoms                         ...     53
Number of basis functions               ...    494
Max core memory                         ...   1024 MB

Electric properties:
Dipole moment                           ... YES
Quadrupole moment                       ...  NO
Static polarizability (Dipole/Dipole)   ...  NO
Static polarizability (Dipole/Quad.)    ...  NO
Static polarizability (Quad./Quad.)     ...  NO
Static polarizability (Velocity)        ...  NO

Atomic electric properties:
Dipole moment                           ...  NO
Quadrupole moment                       ...  NO
Static polarizability                   ...  NO

Choice of electric origin               ... Center of mass
Position of electric origin             ...    -0.637714    -0.466286     0.528546

General magnetic properties:
Magnetizability                         ...  NO

EPR properties:
g-Tensor (aka g-matrix)                 ...  NO
Zero-Field splitting spin-orbit         ...  NO
Zero-field splitting spin-spin          ...  NO
Hyperfine couplings                     ...  NO (   0 nuclei)
Quadrupole couplings                    ...  NO (   0 nuclei)
Contact density                         ...  NO (   0 nuclei)

NMR properties:
Chemical shifts                         ...  NO (   0 nuclei)
Spin-rotation constants                 ...  NO (   0 nuclei)
Spin-spin couplings                     ...  NO (   0 nuclei,    0 pairs)

Choice of magnetic origin               ... GIAO
Position of magnetic origin             ...     0.000000     0.000000     0.000000

Properties with geometric perturbations:
SCF Hessian                             ...  NO
IR spectrum                             ...  NO
VCD spectrum                            ...  NO
X-ray spectroscopy properties:
SCF XES/XAS/RIXS spectra                ...  NO


-------------
DIPOLE MOMENT
-------------

Method             : SCF
Type of density    : Electron Density
Multiplicity       :   1
Irrep              :   0
Energy             : -1876.2186495031926370 Eh
Relativity type    : 
Basis              : AO
                                X                 Y                 Z
Electronic contribution:    -20.673320829      -9.168724300      13.962618858
Nuclear contribution   :     21.433630101      11.466642389     -13.942971642
                        -----------------------------------------
Total Dipole Moment    :      0.760309272       2.297918089       0.019647216
                        -----------------------------------------
Magnitude (a.u.)       :      2.420513117
Magnitude (Debye)      :      6.152455399



--------------------
Rotational spectrum 
--------------------
 
Rotational constants in cm-1:             0.007592             0.003133             0.002906 
Rotational constants in MHz :           227.613904            93.938905            87.114855 

Dipole components along the rotational axes: 
x,y,z [a.u.] :     0.479612    -1.523972    -1.818341 
x,y,z [Debye]:     1.219077    -3.873629    -4.621857 

 

Dipole moment calculation done in   0.0 sec 

Maximum memory used throughout the entire PROP-calculation: 46.5 MB

--------------------------------
SUGGESTED CITATIONS FOR THIS RUN
--------------------------------

Below you find a list of papers that are relevant to this ORCA run
We neither can nor want to force you to cite these papers, but we appreciate if you do
You receive ORCA, which is the product of decades of hard work by many enthusiastic individuals, for free
The only thing we kindly ask in return is that you cite our papers,
We deeply appreciate it, if you show your appreciation for ORCA by not just citing the generic ORCA reference.

Please note that relegating all ORCA citations to the supporting information does *not* help us.
SI sections are not indexed - citations you put there will not count into any citation statistics
But we need these citations in order to attract the funding resources that allow us to do what we are doing

Therefore, if you are a happy ORCA user, please consider citing a few of the papers listed below in the main body of your paper

In addition to the list printed below, the program has created the file /home/nmrbox/aojoawo/Documents/ERDOS/inputs/CHEMBL4785621.bibtex that contains the list in bibtex format
You can import this file easily into all common literature databanks and citation aid programs


List of essential papers. We consider these as the minimum necessary citations

  1. Neese,F.
     Software update: the ORCA program system, version 5.0
     WIRES Comput. Molec. Sci., 2022 12(1)e1606
     doi.org/10.1002/wcms.1606

List of papers to cite with high priority. The work reported in these papers was absolutely
necessary for this run to complete.
Our perspective: the developers of density functionals and basis sets usually get cited in chemistry papers
Good! But without the algorithms to do something with them, the functionals or basis sets would not do anything.
Hence, in our opinion, the algorithm design and method developments papers are equally worthy of getting cited

  1. Neese,F.
     An improvement of the resolution of the identity approximation for the formation of the Coulomb matrix
     J. Comp. Chem., 2003 24(14)1740-1747
     doi.org/10.1002/jcc.10318
  2. Neese,F.; Wennmohs,F.; Hansen,A.; Becker,U.
     Efficient, approximate and parallel Hartree-Fock and hybrid DFT calculations. A 'chain-of-spheres' algorithm for the Hartree-Fock exchange
     Chem. Phys., 2009 356(1-3)98-109
     doi.org/10.1016/j.chemphys.2008.10.036
  3. Helmich-Paris,B.; de Souza,B.; Neese,F.; Izsák,R.
     An improved chain of spheres for exchange algorithm
     J. Chem. Phys., 2021 155 104109
     doi.org/doi: 10.1063/5.0058766.
  4. Neese,F.
     The SHARK Integral Generation and Digestion System
     J. Comp. Chem., 2022  1-16
     doi.org/10.1002/jcc.26942

List of suggested additional citations. These are papers that are important in the 'surrounding' of 
of this run, or papers that preceded the highly important papers. If you like your results we are grateful for a citation.

  1. Izsak,R.; Neese,F.
     An overlap fitted chain of spheres exchange method
     J. Chem. Phys., 2011 135 144105
     doi.org/10.1063/1.3646921
  2. Izsak,R.; Hansen,A.; Neese,F.
     The resolution of identity and chain of spheres approximations for the LPNO-CCSD singles Fock term
     Molec. Phys., 2012 110 2413-2417
     doi.org/10.1080/00268976.2012.687466
  3. Neese,F.
     The ORCA program system
     WIRES Comput. Molec. Sci., 2012 2(1)73-78
     doi.org/10.1002/wcms.81
  4. Izsak,R.; Neese,F.; Klopper,W.
     Robust fitting techniques in the chain of spheres approximation to the Fock exchange: The role of the complementary space
     J. Chem. Phys., 2013 139 
     doi.org/10.1063/1.4819264
  5. Neese,F.
     Software update: the ORCA program system, version 4.0
     WIRES Comput. Molec. Sci., 2018 8(1)1-6
     doi.org/10.1002/wcms.1327
  6. Neese,F.; Wennmohs,F.; Becker,U.; Riplinger,C.
     The ORCA quantum chemistry program package
     J. Chem. Phys., 2020 152 Art. No. L224108
     doi.org/10.1063/5.0004608

List of optional additional citations

  1. Neese,F.
     Approximate second-order SCF convergence for spin unrestricted wavefunctions
     Chem. Phys. Lett., 2000 325(1-3)93-98
     doi.org/10.1016/s0009-2614(00)00662-x

Timings for individual modules:

Sum of individual times          ...      677.774 sec (=  11.296 min)
Startup calculation              ...       15.167 sec (=   0.253 min)   2.2 %
SCF iterations                   ...      662.392 sec (=  11.040 min)  97.7 %
Property calculations            ...        0.215 sec (=   0.004 min)   0.0 %
                             ****ORCA TERMINATED NORMALLY****
TOTAL RUN TIME: 0 days 0 hours 11 minutes 18 seconds 630 msec
