
                                 *****************
                                 * O   R   C   A *
                                 *****************

                                            #,                                       
                                            ###                                      
                                            ####                                     
                                            #####                                    
                                            ######                                   
                                           ########,                                 
                                     ,,################,,,,,                         
                               ,,#################################,,                 
                          ,,##########################################,,             
                       ,#########################################, ''#####,          
                    ,#############################################,,   '####,        
                  ,##################################################,,,,####,       
                ,###########''''           ''''###############################       
              ,#####''   ,,,,##########,,,,          '''####'''          '####       
            ,##' ,,,,###########################,,,                        '##       
           ' ,,###''''                  '''############,,,                           
         ,,##''                                '''############,,,,        ,,,,,,###''
      ,#''                                            '''#######################'''  
     '                                                          ''''####''''         
             ,#######,   #######,   ,#######,      ##                                
            ,#'     '#,  ##    ##  ,#'     '#,    #''#        ,####,   ,####,        
            ##       ##  ##   ,#'  ##            #'  '#       #'       #'  '#        
            ##       ##  #######   ##           ,######,      #####,   #    #        
            '#,     ,#'  ##    ##  '#,     ,#' ,#      #,     #,   #   #,  ,#        
             '#######'   ##     ##  '#######'  #'      '#     '####' # '####'        



                #########################################################
                #                        -***-                          #
                #          Department of theory and spectroscopy        #
                #                                                       #
                #                      Frank Neese                      #
                #                                                       #
                #     Directorship, Architecture, Infrastructure        #
                #                    SHARK, DRIVERS                     #
                #        Core code/Algorithms in most modules           #
                #                                                       #
                #        Max Planck Institute fuer Kohlenforschung      #
                #                Kaiser Wilhelm Platz 1                 #
                #                 D-45470 Muelheim/Ruhr                 #
                #                      Germany                          #
                #                                                       #
                #                  All rights reserved                  #
                #                        -***-                          #
                #########################################################


                         Program Version 6.0.0  -   RELEASE  -


 With contributions from (in alphabetic order):
   Daniel Aravena         : Magnetic Suceptibility
   Michael Atanasov       : Ab Initio Ligand Field Theory (pilot matlab implementation)
   Alexander A. Auer      : GIAO ZORA, VPT2 properties, NMR spectrum
   Ute Becker             : All parallelization in ORCA, NUMFREQ, NUMCALC
   Giovanni Bistoni       : ED, misc. LED, open-shell LED, HFLD
   Martin Brehm           : Molecular dynamics
   Dmytro Bykov           : pre 5.0 version of the SCF Hessian
   Marcos Casanova-Páez   : Triplet and SCS-CIS(D). UHF-(DLPNO)-IP/EA/STEOM-CCSD. UHF-CVS-IP/STEOM-CCSD
   Vijay G. Chilkuri      : MRCI spin determinant printing, contributions to CSF-ICE
   Pauline Colinet        : FMM embedding
   Dipayan Datta          : RHF DLPNO-CCSD density
   Achintya Kumar Dutta   : EOM-CC, STEOM-CC
   Nicolas Foglia         : Exact transition moments, OPA infrastructure, MCD improvements
   Dmitry Ganyushin       : Spin-Orbit,Spin-Spin,Magnetic field MRCI
   Miquel Garcia          : C-PCM and meta-GGA Hessian, CCSD/C-PCM, Gaussian charge scheme
   Tiago L. C. Gouveia    : GS-ROHF, GS-ROCIS
   Yang Guo               : DLPNO-NEVPT2, F12-NEVPT2, CIM, IAO-localization
   Andreas Hansen         : Spin unrestricted coupled pair/coupled cluster methods
   Ingolf Harden          : AUTO-CI MPn and infrastructure 
   Benjamin Helmich-Paris : MC-RPA, TRAH-(SCF,CASSCF), AVAS, COSX integrals, SCF dyn. polar.
   Lee Huntington         : MR-EOM, pCC
   Robert Izsak           : Overlap fitted RIJCOSX, COSX-SCS-MP3, EOM
   Riya Kayal             : Wick's Theorem for AUTO-CI, AUTO-CI UHF-CCSDT
   Emily Kempfer          : AUTO-CI, RHF CISDT and CCSDT
   Christian Kollmar      : KDIIS, OOCD, Brueckner-CCSD(T), CCSD density, CASPT2, CASPT2-K, improved NEVPT2
   Axel Koslowski         : Symmetry handling
   Simone Kossmann        : Meta GGA functionals, TD-DFT gradient, OOMP2, (MP2 Hessian; deprecated post 5.0)
   Lucas Lang             : DCDCAS
   Marvin Lechner         : AUTO-CI (C++ implementation), FIC-MRCC
   Spencer Leger          : CASSCF response
   Dagmar Lenk            : GEPOL surface, SMD, ORCA-2-JSON
   Dimitrios Liakos       : Extrapolation schemes; Compound Job, initial MDCI parallelization
   Dimitrios Manganas     : Further ROCIS development; embedding schemes. LFT, Crystal Embedding
   Dimitrios Pantazis     : SARC Basis sets
   Anastasios Papadopoulos: AUTO-CI, single reference methods and gradients
   Taras Petrenko         : pre 6.0 DFT Hessian and TD-DFT gradient, (ASA, deprecated), ECA, 1-Electron XAS/XES, NRVS
   Peter Pinski           : DLPNO-MP2, DLPNO-MP2 Gradient
   Christoph Reimann      : Effective Core Potentials
   Marius Retegan         : Local ZFS, SOC
   Christoph Riplinger    : Optimizer, TS searches, QM/MM, DLPNO-CCSD(T), (RO)-DLPNO pert. Triples
   Michael Roemelt        : Original ROCIS implementation
   Masaaki Saitow         : Open-shell DLPNO-CCSD energy and density
   Barbara Sandhoefer     : DKH picture change effects
   Kantharuban Sivalingam : CASSCF convergence/infrastructure, NEVPT2 and variants, FIC-MRCI
   Bernardo de Souza      : ESD, SOC TD-DFT
   Georgi Stoychev        : AutoAux, RI-MP2 NMR, DLPNO-MP2 response, X2C
   Van Anh Tran           : RI-MP2 g-tensors
   Willem Van den Heuvel  : Paramagnetic NMR
   Zikuan Wang            : NOTCH, Electric field optimization 
   Frank Wennmohs         : Technical directorship and infrastructure
   Hang Xu                : AUTO-CI-Response properties 


 We gratefully acknowledge several colleagues who have allowed us to
 interface, adapt or use parts of their codes:
   Stefan Grimme, W. Hujo, H. Kruse, P. Pracht,  : VdW corrections, initial TS optimization,
                  C. Bannwarth, S. Ehlert,         DFT functionals, gCP, sTDA/sTD-DF
                  L. Wittmann, M. Mueller
   Ed Valeev, F. Pavosevic, A. Kumar             : LibInt (2-el integral package), F12 methods
   Garnet Chan, S. Sharma, J. Yang, R. Olivares  : DMRG
   Ulf Ekstrom                                   : XCFun DFT Library
   Mihaly Kallay                                 : mrcc  (arbitrary order and MRCC methods)
   Frank Weinhold                                : gennbo (NPA and NBO analysis)
   Simon Mueller                                 : openCOSMO-RS
   Christopher J. Cramer and Donald G. Truhlar   : smd solvation model
   Lars Goerigk                                  : TD-DFT with DH, B97 family of functionals
   V. Asgeirsson, H. Jonsson                     : NEB implementation
   FAccTs GmbH                                   : IRC, NEB, NEB-TS, DLPNO-Multilevel, CI-OPT
                                                   MM, QMMM, 2- and 3-layer-ONIOM, Crystal-QMMM,
                                                   LR-CPCM, SF, NACMEs, symmetry and pop. for TD-DFT,
                                                   nearIR, NL-DFT gradient (VV10), updates on ESD,
                                                   ML-optimized integration grids, MBIS, APM,
                                                   GOAT, DOCKER, SOLVATOR, interface openCOSMO-RS
   S Lehtola, MJT Oliveira, MAL Marques          : LibXC Library
   Liviu Ungur et al                             : ANISO software


 Your calculation uses the libint2 library for the computation of 2-el integrals
 For citations please refer to: http://libint.valeyev.net

 Your ORCA version has been built with support for libXC version: 6.2.2
 For citations please refer to: https://libxc.gitlab.io

 This ORCA versions uses:
   CBLAS   interface :  Fast vector & matrix operations
   LAPACKE interface :  Fast linear algebra routines
   SCALAPACK package :  Parallel linear algebra routines
   Shared memory     :  Shared parallel matrices
   BLAS/LAPACK       :  OpenBLAS 0.3.27  USE64BITINT DYNAMIC_ARCH NO_AFFINITY SkylakeX SINGLE_THREADED
        Core in use  :  SkylakeX
   Copyright (c) 2011-2014, The OpenBLAS Project


Warning: RI is on but no J-basis has been assigned. Assigning Def2/J (nothing to worry about!)
================================================================================

----- Orbital basis set information -----
Your calculation utilizes the basis: 6-31G*
   H-He, Li-Ne : W. J. Hehre, R. Ditchfield and J.A. Pople, J. Chem. Phys. 56, 2257 (1972).
                 Note: He and Ne are unpublished basis sets taken from the Gaussian program.
                 Note: Li and B from J. D. Dill and J. A. Pople, J. Chem. Phys. 62, 2921 (1975).
   Na - Ar     : M. M. Francl, W. J. Pietro, W. J. Hehre, J. S. Binkley, M. S. Gordon, 
                 D. J. DeFrees and J. A. Pople, J. Chem. Phys. 77, 3654 (1982).
   K - Zn      : V. A. Rassolov, J. A. Pople, M. A. Ratner, and T. L. Windus, J. Chem. Phys. 109, 1223 (1998).

----- AuxJ basis set information -----
Your calculation utilizes the auxiliary basis: def2/J
   F. Weigend, Phys. Chem. Chem. Phys. 8, 1057 (2006).

================================================================================
                                        WARNINGS
                       Please study these warnings very carefully!
================================================================================


================================================================================
                                       INPUT FILE
================================================================================
NAME = /home/nmrbox/aojoawo/Documents/ERDOS/inputs/CHEMBL3912738.inp
|  1> ! B3LYP 6-31G* SP
|  2> 
|  3> * xyz 0 1
|  4> C -7.2445 0.0759 -2.0180
|  5> N -6.3049 0.3148 -0.9084
|  6> C -5.1123 -0.3714 -0.8656
|  7> O -4.8292 -1.2197 -1.7558
|  8> C -4.2102 -0.1123 0.1712
|  9> C -2.9283 -0.6850 0.4133
| 10> C -2.3077 -1.7438 -0.4636
| 11> C -0.9484 -2.1602 0.0194
| 12> O -0.8396 -3.1965 0.7281
| 13> N 0.1979 -1.3504 -0.2906
| 14> C 1.5446 -1.6304 0.1207
| 15> N 2.5751 -0.8121 -0.1792
| 16> C 3.7639 -1.2710 0.3057
| 17> C 5.0276 -0.5164 0.0950
| 18> C 4.9804 0.8114 -0.3651
| 19> C 6.1557 1.5388 -0.5707
| 20> C 7.4096 0.9549 -0.3219
| 21> C 8.6909 1.7223 -0.5448
| 22> F 9.4265 1.7454 0.6265
| 23> F 9.4335 1.1005 -1.5322
| 24> F 8.4463 3.0282 -0.9338
| 25> C 7.4620 -0.3763 0.1271
| 26> F 8.6568 -0.9769 0.3614
| 27> C 6.2849 -1.1027 0.3330
| 28> C 3.6721 -2.4773 1.0086
| 29> S 2.0627 -2.9636 1.0072
| 30> N -2.2813 -0.1996 1.5138
| 31> S -3.2930 0.9388 2.1865
| 32> C -4.5586 0.8327 1.1081
| 33> N -5.7281 1.5253 1.0766
| 34> C -6.0102 2.5625 2.0793
| 35> C -6.5920 1.2820 0.0355
| 36> O -7.6569 1.9558 -0.0612
| 37> H -7.0107 0.7631 -2.8581
| 38> H -7.1872 -0.9734 -2.3784
| 39> H -8.2959 0.2359 -1.6967
| 40> H -2.9747 -2.6325 -0.4880
| 41> H -2.2138 -1.3527 -1.4990
| 42> H 0.0431 -0.4821 -0.8509
| 43> H 4.0317 1.2951 -0.5612
| 44> H 6.0768 2.5587 -0.9244
| 45> H 6.3699 -2.1284 0.6627
| 46> H 4.4754 -3.0119 1.4949
| 47> H -7.1033 2.7011 2.2197
| 48> H -5.5972 2.2789 3.0704
| 49> H -5.5594 3.5244 1.7566
| 50> *
| 51> 
| 52>                          ****END OF INPUT****
================================================================================

                       ****************************
                       * Single Point Calculation *
                       ****************************

---------------------------------
CARTESIAN COORDINATES (ANGSTROEM)
---------------------------------
  C     -7.244500    0.075900   -2.018000
  N     -6.304900    0.314800   -0.908400
  C     -5.112300   -0.371400   -0.865600
  O     -4.829200   -1.219700   -1.755800
  C     -4.210200   -0.112300    0.171200
  C     -2.928300   -0.685000    0.413300
  C     -2.307700   -1.743800   -0.463600
  C     -0.948400   -2.160200    0.019400
  O     -0.839600   -3.196500    0.728100
  N      0.197900   -1.350400   -0.290600
  C      1.544600   -1.630400    0.120700
  N      2.575100   -0.812100   -0.179200
  C      3.763900   -1.271000    0.305700
  C      5.027600   -0.516400    0.095000
  C      4.980400    0.811400   -0.365100
  C      6.155700    1.538800   -0.570700
  C      7.409600    0.954900   -0.321900
  C      8.690900    1.722300   -0.544800
  F      9.426500    1.745400    0.626500
  F      9.433500    1.100500   -1.532200
  F      8.446300    3.028200   -0.933800
  C      7.462000   -0.376300    0.127100
  F      8.656800   -0.976900    0.361400
  C      6.284900   -1.102700    0.333000
  C      3.672100   -2.477300    1.008600
  S      2.062700   -2.963600    1.007200
  N     -2.281300   -0.199600    1.513800
  S     -3.293000    0.938800    2.186500
  C     -4.558600    0.832700    1.108100
  N     -5.728100    1.525300    1.076600
  C     -6.010200    2.562500    2.079300
  C     -6.592000    1.282000    0.035500
  O     -7.656900    1.955800   -0.061200
  H     -7.010700    0.763100   -2.858100
  H     -7.187200   -0.973400   -2.378400
  H     -8.295900    0.235900   -1.696700
  H     -2.974700   -2.632500   -0.488000
  H     -2.213800   -1.352700   -1.499000
  H      0.043100   -0.482100   -0.850900
  H      4.031700    1.295100   -0.561200
  H      6.076800    2.558700   -0.924400
  H      6.369900   -2.128400    0.662700
  H      4.475400   -3.011900    1.494900
  H     -7.103300    2.701100    2.219700
  H     -5.597200    2.278900    3.070400
  H     -5.559400    3.524400    1.756600

----------------------------
CARTESIAN COORDINATES (A.U.)
----------------------------
  NO LB      ZA    FRAG     MASS         X           Y           Z
   0 C     6.0000    0    12.011  -13.690121    0.143430   -3.813467
   1 N     7.0000    0    14.007  -11.914534    0.594886   -1.716627
   2 C     6.0000    0    12.011   -9.660847   -0.701844   -1.635747
   3 O     8.0000    0    15.999   -9.125865   -2.304899   -3.317981
   4 C     6.0000    0    12.011   -7.956125   -0.212216    0.323521
   5 C     6.0000    0    12.011   -5.533685   -1.294462    0.781024
   6 C     6.0000    0    12.011   -4.360921   -3.295304   -0.876077
   7 C     6.0000    0    12.011   -1.792216   -4.082186    0.036661
   8 O     8.0000    0    15.999   -1.586614   -6.040510    1.375910
   9 N     7.0000    0    14.007    0.373977   -2.551886   -0.549154
  10 C     6.0000    0    12.011    2.918871   -3.081009    0.228090
  11 N     7.0000    0    14.007    4.866234   -1.534647   -0.338639
  12 C     6.0000    0    12.011    7.112740   -2.401842    0.577689
  13 C     6.0000    0    12.011    9.500787   -0.975855    0.179524
  14 C     6.0000    0    12.011    9.411592    1.533324   -0.689939
  15 C     6.0000    0    12.011   11.632587    2.907911   -1.078467
  16 C     6.0000    0    12.011   14.002115    1.804499   -0.608303
  17 C     6.0000    0    12.011   16.423421    3.254675   -1.029523
  18 F     9.0000    0    18.998   17.813503    3.298328    1.183913
  19 F     9.0000    0    18.998   17.826731    2.079644   -2.895438
  20 F     9.0000    0    18.998   15.961194    5.722469   -1.764626
  21 C     6.0000    0    12.011   14.101136   -0.711104    0.240184
  22 F     9.0000    0    18.998   16.358981   -1.846073    0.682947
  23 C     6.0000    0    12.011   11.876740   -2.083801    0.629279
  24 C     6.0000    0    12.011    6.939263   -4.681419    1.905978
  25 S    16.0000    0    32.060    3.897938   -5.600392    1.903332
  26 N     7.0000    0    14.007   -4.311032   -0.377189    2.860667
  27 S    16.0000    0    32.060   -6.222868    1.774075    4.131886
  28 C     6.0000    0    12.011   -8.614506    1.573575    2.094006
  29 N     7.0000    0    14.007  -10.824540    2.882399    2.034479
  30 C     6.0000    0    12.011  -11.357632    4.842423    3.929308
  31 C     6.0000    0    12.011  -12.457075    2.422629    0.067085
  32 O     8.0000    0    15.999  -14.469444    3.695926   -0.115651
  33 H     1.0000    0     1.008  -13.248303    1.442050   -5.401026
  34 H     1.0000    0     1.008  -13.581840   -1.839459   -4.494525
  35 H     1.0000    0     1.008  -15.676979    0.445786   -3.206298
  36 H     1.0000    0     1.008   -5.621368   -4.974704   -0.922186
  37 H     1.0000    0     1.008   -4.183476   -2.556233   -2.832699
  38 H     1.0000    0     1.008    0.081447   -0.911037   -1.607968
  39 H     1.0000    0     1.008    7.618809    2.447384   -1.060514
  40 H     1.0000    0     1.008   11.483488    4.835242   -1.746863
  41 H     1.0000    0     1.008   12.037367   -4.022093    1.252322
  42 H     1.0000    0     1.008    8.457280   -5.691666    2.824952
  43 H     1.0000    0     1.008  -13.423292    5.104339    4.194625
  44 H     1.0000    0     1.008  -10.577175    4.306497    5.802215
  45 H     1.0000    0     1.008  -10.505743    6.660151    3.319493

--------------------------------
INTERNAL COORDINATES (ANGSTROEM)
--------------------------------
 C      0   0   0     0.000000000000     0.00000000     0.00000000
 N      1   0   0     1.473476681186     0.00000000     0.00000000
 C      2   1   0     1.376588914673   119.67237341     0.00000000
 O      3   2   1     1.261829837973   120.50088746   358.73170907
 C      3   2   1     1.398524744150   119.30918352   178.27594003
 C      5   3   2     1.424733417170   129.18851849   180.47990269
 C      6   5   3     1.508361829933   123.61211639   359.28323434
 C      7   6   5     1.501457441954   112.34247849   179.61863234
 O      8   7   6     1.260163013265   119.15280446    97.15754085
 N      8   7   6     1.437316850941   119.76115863   279.36555279
 C     10   8   7     1.435677045857   125.19979534   179.39649205
 N     11  10   8     1.349624077290   122.29745949   181.49926563
 C     12  11  10     1.363437809363   112.49771943   180.16246910
 C     13  12  11     1.486860228804   121.32122163   180.37084892
 C     14  13  12     1.406048608690   119.80889606    13.11379814
 C     15  14  13     1.397394793893   120.76265410   180.03645599
 C     16  15  14     1.405384595049   120.53669612     0.05453232
 C     17  16  15     1.510071806240   121.31705688   179.68226503
 F     18  17  16     1.383323772658   109.55451500   123.42404326
 F     18  17  16     1.383130058960   109.41905788   242.93365505
 F     18  17  16     1.384386134718   111.77334664     3.21738963
 C     17  16  15     1.405859239042   118.89493196     0.49493000
 F     22  17  16     1.357631721050   120.45191093   179.18307105
 C     22  17  16     1.398433473570   120.49770017   359.47358848
 C     13  12  11     1.399162370849   114.30795806   359.81177688
 S     25  13  12     1.681266787277   108.16556333     0.16101538
 N      6   5   3     1.365768065961   114.85316392   179.10769364
 S     27   6   5     1.664937458285   106.30269382   359.93297011
 C      5   3   2     1.375568671496   117.95892163   359.69674804
 N     29   5   3     1.359565099581   123.50843623   359.90191846
 C     30  29   5     1.469956305473   120.57920799   182.61942974
 C     30  29   5     1.374557132316   117.90516665   358.67418054
 O     32  30  29     1.263870776622   119.54688125   183.51756738
 H      1   2   3     1.110258659052   109.58311039   271.14086001
 H      1   2   3     1.110946416350   111.37940597    32.03483576
 H      1   2   3     1.110979590272   111.24417846   150.28100943
 H      7   6   5     1.111427932886   109.09464818   300.83376573
 H      7   6   5     1.110778816867   109.24049657    58.88787381
 H     10   8   7     1.044913403111   117.75439083     0.09919285
 H     15  14  13     1.082798499260   120.69895835     0.47439573
 H     16  15  14     1.082370043007   118.50702697   180.07727076
 H     24  22  17     1.080734740813   118.14484105   178.99132923
 H     25  13  12     1.080544186972   127.14758903   181.40009004
 H     31  30  29     1.110760878857   111.29219676   205.76223183
 H     31  30  29     1.110530130163   110.92888180   324.22442779
 H     31  30  29     1.110228598082   109.58091771    84.93080445

---------------------------
INTERNAL COORDINATES (A.U.)
---------------------------
 C      0   0   0     0.000000000000     0.00000000     0.00000000
 N      1   0   0     2.784467392161     0.00000000     0.00000000
 C      2   1   0     2.601376047723   119.67237341     0.00000000
 O      3   2   1     2.384512821380   120.50088746   358.73170907
 C      3   2   1     2.642828757956   119.30918352   178.27594003
 C      5   3   2     2.692355972296   129.18851849   180.47990269
 C      6   5   3     2.850390769434   123.61211639   359.28323434
 C      7   6   5     2.837343367032   112.34247849   179.61863234
 O      8   7   6     2.381362979167   119.15280446    97.15754085
 N      8   7   6     2.716135215949   119.76115863   279.36555279
 C     10   8   7     2.713036433426   125.19979534   179.39649205
 N     11  10   8     2.550419889824   122.29745949   181.49926563
 C     12  11  10     2.576524060329   112.49771943   180.16246910
 C     13  12  11     2.809758631860   121.32122163   180.37084892
 C     14  13  12     2.657046801406   119.80889606    13.11379814
 C     15  14  13     2.640693461426   120.76265410   180.03645599
 C     16  15  14     2.655791997474   120.53669612     0.05453232
 C     17  16  15     2.853622156349   121.31705688   179.68226503
 F     18  17  16     2.614103084866   109.55451500   123.42404326
 F     18  17  16     2.613737019030   109.41905788   242.93365505
 F     18  17  16     2.616110658215   111.77334664     3.21738963
 C     17  16  15     2.656688944632   118.89493196     0.49493000
 F     22  17  16     2.565552143508   120.45191093   179.18307105
 C     22  17  16     2.642656281555   120.49770017   359.47358848
 C     13  12  11     2.644033697793   114.30795806   359.81177688
 S     25  13  12     3.177133786011   108.16556333     0.16101538
 N      6   5   3     2.580927607122   114.85316392   179.10769364
 S     27   6   5     3.146275826265   106.30269382   359.93297011
 C      5   3   2     2.599448067528   117.95892163   359.69674804
 N     29   5   3     2.569205699446   123.50843623   359.90191846
 C     30  29   5     2.777814846175   120.57920799   182.61942974
 C     30  29   5     2.597536535505   117.90516665   358.67418054
 O     32  30  29     2.388369636483   119.54688125   183.51756738
 H      1   2   3     2.098084803423   109.58311039   271.14086001
 H      1   2   3     2.099384476362   111.37940597    32.03483576
 H      1   2   3     2.099447165989   111.24417846   150.28100943
 H      7   6   5     2.100294410745   109.09464818   300.83376573
 H      7   6   5     2.099067759239   109.24049657    58.88787381
 H     10   8   7     1.974600165543   117.75439083     0.09919285
 H     15  14  13     2.046192621823   120.69895835     0.47439573
 H     16  15  14     2.045382956845   118.50702697   180.07727076
 H     24  22  17     2.042292683551   118.14484105   178.99132923
 H     25  13  12     2.041932588979   127.14758903   181.40009004
 H     31  30  29     2.099033861314   111.29219676   205.76223183
 H     31  30  29     2.098597809476   110.92888180   324.22442779
 H     31  30  29     2.098027996423   109.58091771    84.93080445

---------------------
BASIS SET INFORMATION
---------------------
There are 6 groups of distinct atoms

 Group   1 Type C   : 10s4p1d contracted to 3s2p1d pattern {631/31/1}
 Group   2 Type N   : 10s4p1d contracted to 3s2p1d pattern {631/31/1}
 Group   3 Type O   : 10s4p1d contracted to 3s2p1d pattern {631/31/1}
 Group   4 Type F   : 10s4p1d contracted to 3s2p1d pattern {631/31/1}
 Group   5 Type S   : 16s10p1d contracted to 4s3p1d pattern {6631/631/1}
 Group   6 Type H   : 4s contracted to 2s pattern {31}

Atom   0C    basis set group =>   1
Atom   1N    basis set group =>   2
Atom   2C    basis set group =>   1
Atom   3O    basis set group =>   3
Atom   4C    basis set group =>   1
Atom   5C    basis set group =>   1
Atom   6C    basis set group =>   1
Atom   7C    basis set group =>   1
Atom   8O    basis set group =>   3
Atom   9N    basis set group =>   2
Atom  10C    basis set group =>   1
Atom  11N    basis set group =>   2
Atom  12C    basis set group =>   1
Atom  13C    basis set group =>   1
Atom  14C    basis set group =>   1
Atom  15C    basis set group =>   1
Atom  16C    basis set group =>   1
Atom  17C    basis set group =>   1
Atom  18F    basis set group =>   4
Atom  19F    basis set group =>   4
Atom  20F    basis set group =>   4
Atom  21C    basis set group =>   1
Atom  22F    basis set group =>   4
Atom  23C    basis set group =>   1
Atom  24C    basis set group =>   1
Atom  25S    basis set group =>   5
Atom  26N    basis set group =>   2
Atom  27S    basis set group =>   5
Atom  28C    basis set group =>   1
Atom  29N    basis set group =>   2
Atom  30C    basis set group =>   1
Atom  31C    basis set group =>   1
Atom  32O    basis set group =>   3
Atom  33H    basis set group =>   6
Atom  34H    basis set group =>   6
Atom  35H    basis set group =>   6
Atom  36H    basis set group =>   6
Atom  37H    basis set group =>   6
Atom  38H    basis set group =>   6
Atom  39H    basis set group =>   6
Atom  40H    basis set group =>   6
Atom  41H    basis set group =>   6
Atom  42H    basis set group =>   6
Atom  43H    basis set group =>   6
Atom  44H    basis set group =>   6
Atom  45H    basis set group =>   6
---------------------------------
AUXILIARY/J BASIS SET INFORMATION
---------------------------------
There are 6 groups of distinct atoms

 Group   1 Type C   : 12s5p4d2f1g contracted to 6s4p3d1f1g pattern {711111/2111/211/2/1}
 Group   2 Type N   : 12s5p4d2f1g contracted to 6s4p3d1f1g pattern {711111/2111/211/2/1}
 Group   3 Type O   : 12s5p4d2f1g contracted to 6s4p3d1f1g pattern {711111/2111/211/2/1}
 Group   4 Type F   : 12s5p4d2f1g contracted to 6s4p3d1f1g pattern {711111/2111/211/2/1}
 Group   5 Type S   : 14s5p5d2f1g contracted to 8s4p3d1f1g pattern {71111111/2111/311/2/1}
 Group   6 Type H   : 5s2p1d contracted to 3s1p1d pattern {311/2/1}

Atom   0C    basis set group =>   1
Atom   1N    basis set group =>   2
Atom   2C    basis set group =>   1
Atom   3O    basis set group =>   3
Atom   4C    basis set group =>   1
Atom   5C    basis set group =>   1
Atom   6C    basis set group =>   1
Atom   7C    basis set group =>   1
Atom   8O    basis set group =>   3
Atom   9N    basis set group =>   2
Atom  10C    basis set group =>   1
Atom  11N    basis set group =>   2
Atom  12C    basis set group =>   1
Atom  13C    basis set group =>   1
Atom  14C    basis set group =>   1
Atom  15C    basis set group =>   1
Atom  16C    basis set group =>   1
Atom  17C    basis set group =>   1
Atom  18F    basis set group =>   4
Atom  19F    basis set group =>   4
Atom  20F    basis set group =>   4
Atom  21C    basis set group =>   1
Atom  22F    basis set group =>   4
Atom  23C    basis set group =>   1
Atom  24C    basis set group =>   1
Atom  25S    basis set group =>   5
Atom  26N    basis set group =>   2
Atom  27S    basis set group =>   5
Atom  28C    basis set group =>   1
Atom  29N    basis set group =>   2
Atom  30C    basis set group =>   1
Atom  31C    basis set group =>   1
Atom  32O    basis set group =>   3
Atom  33H    basis set group =>   6
Atom  34H    basis set group =>   6
Atom  35H    basis set group =>   6
Atom  36H    basis set group =>   6
Atom  37H    basis set group =>   6
Atom  38H    basis set group =>   6
Atom  39H    basis set group =>   6
Atom  40H    basis set group =>   6
Atom  41H    basis set group =>   6
Atom  42H    basis set group =>   6
Atom  43H    basis set group =>   6
Atom  44H    basis set group =>   6
Atom  45H    basis set group =>   6
------------------------------------------------------------------------------
                             ORCA STARTUP CALCULATIONS
                           -- RI-GTO INTEGRALS CHOSEN --
------------------------------------------------------------------------------
------------------------------------------------------------------------------
                   ___                                                        
                  /   \      - P O W E R E D   B Y -                         
                 /     \                                                     
                 |  |  |   _    _      __       _____    __    __             
                 |  |  |  | |  | |    /  \     |  _  \  |  |  /  |          
                  \  \/   | |  | |   /    \    | | | |  |  | /  /          
                 / \  \   | |__| |  /  /\  \   | |_| |  |  |/  /          
                |  |  |   |  __  | /  /__\  \  |    /   |      \           
                |  |  |   | |  | | |   __   |  |    \   |  |\   \          
                \     /   | |  | | |  |  |  |  | |\  \  |  | \   \       
                 \___/    |_|  |_| |__|  |__|  |_| \__\ |__|  \__/        
                                                                              
                      - O R C A' S   B I G   F R I E N D -                    
                                      &                                       
                       - I N T E G R A L  F E E D E R -                       
                                                                              
 v1 FN, 2020, v2 2021, v3 2022-2024                                           
------------------------------------------------------------------------------


----------------------
SHARK INTEGRAL PACKAGE
----------------------

Number of atoms                             ...     46
Number of basis functions                   ...    496
Number of shells                            ...    228
Maximum angular momentum                    ...      2
Integral batch strategy                     ... SHARK/LIBINT Hybrid
RI-J (if used) integral strategy            ... SPLIT-RIJ (Revised 2003 algorithm where possible)
Printlevel                                  ...      1
Contraction scheme used                     ... SEGMENTED contraction
Prescreening option                         ... SCHWARTZ
   Thresh                                   ... 1.000e-10
   Tcut                                     ... 1.000e-11
   Tpresel                                  ... 1.000e-11 
Coulomb Range Separation                    ... NOT USED
Exchange Range Separation                   ... NOT USED
Multipole approximations                    ... NOT USED
Finite Nucleus Model                        ... NOT USED
CABS basis                                  ... NOT available
Auxiliary Coulomb fitting basis             ... AVAILABLE
   # of basis functions in Aux-J            ...   1764
   # of shells in Aux-J                     ...    564
   Maximum angular momentum in Aux-J        ...      4
Auxiliary J/K fitting basis                 ... NOT available
Auxiliary Correlation fitting basis         ... NOT available
Auxiliary 'external' fitting basis          ... NOT available

Checking pre-screening integrals            ... done (  0.0 sec) Dimension = 228
Check shell pair data                       ... done (  0.0 sec)
Shell pair information
Shell pair cut-off parameter TPreSel        ...   1.0e-11
Total number of shell pairs                 ...     26106
Shell pairs after pre-screening             ...     11922
Total number of primitive shell pairs       ...    164098
Primitive shell pairs kept                  ...     40145
          la=0 lb=0:   3464 shell pairs
          la=1 lb=0:   4224 shell pairs
          la=1 lb=1:   1289 shell pairs
          la=2 lb=0:   1665 shell pairs
          la=2 lb=1:   1055 shell pairs
          la=2 lb=2:    225 shell pairs

Calculating one electron integrals          ... done (  0.1 sec)
Calculating RI/J V-Matrix + Cholesky decomp.... done (  0.4 sec)
Calculating Nuclear repulsion               ... done (  0.0 sec) ENN=   3443.560472614570 Eh

Diagonalization of the overlap matrix:
Smallest eigenvalue                        ... 4.608e-04
Time for diagonalization                   ...    0.032 sec
Threshold for overlap eigenvalues          ... 1.000e-07
Number of eigenvalues below threshold      ... 0
Time for construction of square roots      ...    0.032 sec
Total time needed                          ...    0.075 sec

-------------------
DFT GRID GENERATION
-------------------

General Integration Accuracy     IntAcc      ... 4.388
Radial Grid Type                 RadialGrid  ... OptM3 with GC (2021)
Angular Grid (max. ang.)         AngularGrid ... 4 (Lebedev-302)
Angular grid pruning method      GridPruning ... 4 (adaptive)
Weight generation scheme         WeightScheme... mBecke (2022)
Basis function cutoff            BFCut       ... 1.0000e-10
Integration weight cutoff        WCut        ... 1.0000e-14
Partially contracted basis set               ... off
Rotationally invariant grid construction     ... off
Angular grids for H and He will be reduced by one unit

Total number of grid points                  ...   242376
Total number of batches                      ...     3815
Average number of points per batch           ...       63
Average number of grid points per atom       ...     5269

--------------------
COSX GRID GENERATION
--------------------

GRIDX 1
-------
General Integration Accuracy     IntAcc      ... 3.816
Radial Grid Type                 RadialGrid  ... OptM3 with GC (2021)
Angular Grid (max. ang.)         AngularGrid ... 1 (Lebedev-50)
Angular grid pruning method      GridPruning ... 4 (adaptive)
Weight generation scheme         WeightScheme... mBecke (2022)
Basis function cutoff            BFCut       ... 1.0000e-10
Integration weight cutoff        WCut        ... 1.0000e-14
Partially contracted basis set               ... on
Rotationally invariant grid construction     ... off
Angular grids for H and He will be reduced by one unit

Total number of grid points                  ...    32716
Total number of batches                      ...      280
Average number of points per batch           ...      116
Average number of grid points per atom       ...      711
UseSFitting                                  ... on

GRIDX 2
-------
General Integration Accuracy     IntAcc      ... 4.020
Radial Grid Type                 RadialGrid  ... OptM3 with GC (2021)
Angular Grid (max. ang.)         AngularGrid ... 2 (Lebedev-110)
Angular grid pruning method      GridPruning ... 4 (adaptive)
Weight generation scheme         WeightScheme... mBecke (2022)
Basis function cutoff            BFCut       ... 1.0000e-10
Integration weight cutoff        WCut        ... 1.0000e-14
Partially contracted basis set               ... on
Rotationally invariant grid construction     ... off
Angular grids for H and He will be reduced by one unit

Total number of grid points                  ...    68566
Total number of batches                      ...      557
Average number of points per batch           ...      123
Average number of grid points per atom       ...     1491
UseSFitting                                  ... on

GRIDX 3
-------
General Integration Accuracy     IntAcc      ... 4.338
Radial Grid Type                 RadialGrid  ... OptM3 with GC (2021)
Angular Grid (max. ang.)         AngularGrid ... 3 (Lebedev-194)
Angular grid pruning method      GridPruning ... 4 (adaptive)
Weight generation scheme         WeightScheme... mBecke (2022)
Basis function cutoff            BFCut       ... 1.0000e-10
Integration weight cutoff        WCut        ... 1.0000e-14
Partially contracted basis set               ... on
Rotationally invariant grid construction     ... off
Angular grids for H and He will be reduced by one unit

Total number of grid points                  ...   151829
Total number of batches                      ...     1209
Average number of points per batch           ...      125
Average number of grid points per atom       ...     3301
UseSFitting                                  ... on
Initializing property integral containers    ... done (  0.0 sec)

SHARK setup successfully completed in   7.8 seconds

Maximum memory used throughout the entire STARTUP-calculation: 100.7 MB
-------------------------------------------------------------------------------
                                 ORCA GUESS
                   Start orbitals & Density for SCF / CASSCF
-------------------------------------------------------------------------------

------------
SCF SETTINGS
------------
Hamiltonian:
 Density Functional     Method          .... DFT(GTOs)
 Exchange Functional    Exchange        .... B88
   X-Alpha parameter    XAlpha          ....  0.666667
   Becke's b parameter  XBeta           ....  0.004200
 Correlation Functional Correlation     .... LYP
 LDA part of GGA corr.  LDAOpt          .... VWN-5
 Gradients option       PostSCFGGA      .... off
 Hybrid DFT is turned on
   Fraction HF Exchange ScalHFX         ....  0.200000
   Scaling of DF-GGA-X  ScalDFX         ....  0.720000
   Scaling of DF-GGA-C  ScalDFC         ....  0.810000
   Scaling of DF-LDA-C  ScalLDAC        ....  1.000000
   Perturbative correction              ....  0.000000
   NL short-range parameter             ....  4.800000
 RI-approximation to the Coulomb term is turned on
   Number of AuxJ basis functions       .... 1764
   RIJ-COSX (HFX calculated with COS-X)).... on


General Settings:
 Integral files         IntName         .... /home/nmrbox/aojoawo/Documents/ERDOS/inputs/CHEMBL3912738
 Hartree-Fock type      HFTyp           .... RHF
 Total Charge           Charge          ....    0
 Multiplicity           Mult            ....    1
 Number of Electrons    NEL             ....  254
 Basis Dimension        Dim             ....  496
 Nuclear Repulsion      ENuc            ....   3443.5604726146 Eh

Convergence Acceleration:
 AO-DIIS                CNVDIIS         .... on
   Start iteration      DIISMaxIt       ....    12
   Startup error        DIISStart       ....  0.200000
   # of expansion vecs  DIISMaxEq       ....     5
   Bias factor          DIISBfac        ....   1.050
   Max. coefficient     DIISMaxC        ....  10.000
 MO-DIIS                CNVKDIIS        .... off
 Trust-Rad. Augm. Hess. CNVTRAH         .... auto
   Auto Start mean grad. ratio tolernc. ....  1.125000
   Auto Start start iteration           ....    50
   Auto Start num. interpolation iter.  ....    10
   Max. Number of Micro iterations      ....    24
   Max. Number of Macro iterations      .... Maxiter - #DIIS iter
   Number of Davidson start vectors     ....     2
   Converg. threshold    (grad. norm)   ....   5.000e-05
   Grad. Scal. Fac. for Micro threshold ....   0.100
   Minimum threshold for Micro iter.    ....   1.000e-02
   NR start threshold (gradient norm)   ....   1.000e-04
   Initial trust radius                 ....   0.400
   Minimum AH scaling param. (alpha)    ....   1.000
   Maximum AH scaling param. (alpha)    .... 1000.000
   Quad. conv. algorithm                .... NR
   White noise on init. David. guess    .... on
   Maximum white noise                  ....   0.010
   Pseudo random numbers                .... off
   Inactive MOs                         .... canonical
   Orbital update algorithm             .... Taylor
   Preconditioner                       .... Diag
   Full preconditioner red. dimension   ....   250
 SOSCF                  CNVSOSCF        .... on
   Start iteration      SOSCFMaxIt      ....   150
   Startup grad/error   SOSCFStart      ....  0.003300
   Hessian update       SOSCFHessUp     .... L-BFGS
 Level Shifting         CNVShift        .... on
   Level shift para.    LevelShift      ....    0.2500
   Turn off err/grad.   ShiftErr        ....    0.0010
 Zerner damping         CNVZerner       .... off
 Static damping         CNVDamp         .... on
   Fraction old density DampFac         ....    0.7000
   Max. Damping (<1)    DampMax         ....    0.9800
   Min. Damping (>=0)   DampMin         ....    0.0000
   Turn off err/grad.   DampErr         ....    0.1000

SCF Procedure:
 Maximum # iterations   MaxIter         ....   125
 SCF integral mode      SCFMode         .... Direct
   Integral package                     .... SHARK and LIBINT hybrid scheme
 Reset frequency        DirectResetFreq ....    20
 Integral Threshold     Thresh          ....  1.000e-10 Eh
 Primitive CutOff       TCut            ....  1.000e-11 Eh

Convergence Tolerance:
 Convergence Check Mode ConvCheckMode   .... Total+1el-Energy
 Convergence forced     ConvForced      .... 0
 Energy Change          TolE            ....  1.000e-06 Eh
 1-El. energy change                    ....  1.000e-03 Eh
 Orbital Gradient       TolG            ....  5.000e-05
 Orbital Rotation angle TolX            ....  5.000e-05
 DIIS Error             TolErr          ....  1.000e-06

------------------------------
INITIAL GUESS: MODEL POTENTIAL
------------------------------
Loading Hartree-Fock densities                     ... done
Calculating cut-offs                               ... done
Initializing the effective Hamiltonian             ... done
Setting up the integral package (SHARK)            ... done
Starting the Coulomb interaction                   ... done (   1.6 sec)
Making the grid                                    ... done (   1.0 sec)
Mapping shells                                     ... done
Starting the XC term evaluation                    ... done (   0.7 sec)
  promolecular density results
     # of electrons  =    254.010480939
     EX              =   -249.326460679
     EC              =     -9.182429651
     EX+EC           =   -258.508890330
Transforming the Hamiltonian                       ... done (   0.0 sec)
Diagonalizing the Hamiltonian                      ... done (   0.0 sec)
Back transforming the eigenvectors                 ... done (   0.1 sec)
Now organizing SCF variables                       ... done
                      ------------------
                      INITIAL GUESS DONE (   3.5 sec)
                      ------------------
             **** ENERGY FILE WAS UPDATED (/home/nmrbox/aojoawo/Documents/ERDOS/inputs/CHEMBL3912738.en.tmp) ****
Finished Guess after   3.7 sec
Maximum memory used throughout the entire GUESS-calculation: 54.5 MB

-------------------------------------------------------------------------------------------
                                      ORCA LEAN-SCF
                              memory conserving SCF solver
-------------------------------------------------------------------------------------------

----------------------------------------D-I-I-S--------------------------------------------
Iteration    Energy (Eh)           Delta-E    RMSDP     MaxDP     DIISErr   Damp  Time(sec)
-------------------------------------------------------------------------------------------
               ***  Starting incremental Fock matrix formation  ***
    1    -2425.1923686034479033     0.00e+00  2.51e-03  1.16e-01  2.85e-01  0.700  34.2
    2    -2425.6170594358063681    -4.25e-01  1.50e-03  5.58e-02  9.39e-02  0.700  15.8
                               ***Turning on AO-DIIS***
    3    -2425.7513206312578404    -1.34e-01  5.53e-04  1.78e-02  3.63e-02  0.700  15.1
    4    -2425.8414279631788304    -9.01e-02  1.01e-03  6.09e-02  1.52e-02  0.000  13.7
    5    -2426.0496577996509586    -2.08e-01  2.49e-04  9.28e-03  8.85e-03  0.000  14.7
    6    -2426.0514527632412864    -1.79e-03  8.89e-05  4.16e-03  3.67e-03  0.000  12.7
                              *** Initializing SOSCF ***
---------------------------------------S-O-S-C-F--------------------------------------
Iteration    Energy (Eh)           Delta-E    RMSDP     MaxDP     MaxGrad    Time(sec)
--------------------------------------------------------------------------------------
    7    -2426.0516122208000525    -1.59e-04  3.11e-05  1.05e-03  1.74e-03    11.8
               *** Restarting incremental Fock matrix formation ***
    8    -2426.0515353078035332     7.69e-05  2.87e-05  9.52e-04  1.90e-04    34.1
    9    -2426.0515342327444159     1.08e-06  1.58e-05  6.05e-04  4.63e-04    18.3
   10    -2426.0515414602486999    -7.23e-06  8.36e-06  2.63e-04  8.04e-05    16.1
   11    -2426.0515413246967000     1.36e-07  3.90e-06  1.88e-04  8.36e-05    14.8
                 **** Energy Check signals convergence ****

               *****************************************************
               *                     SUCCESS                       *
               *           SCF CONVERGED AFTER  11 CYCLES          *
               *****************************************************

Recomputing exchange energy using gridx3       ... done (   58.960 sec)
Old exchange energy                            :    -50.232608612 Eh
New exchange energy                            :    -50.232629400 Eh
Exchange energy change after final integration :     -0.000020788 Eh
Total energy after final integration           :  -2426.051562113 Eh
             **** ENERGY FILE WAS UPDATED (/home/nmrbox/aojoawo/Documents/ERDOS/inputs/CHEMBL3912738.en.tmp) ****

----------------
TOTAL SCF ENERGY
----------------

Total Energy       :      -2426.05156211309577 Eh          -66016.21920 eV

Components:
Nuclear Repulsion  :       3443.56047261457024 Eh           93704.04428 eV
Electronic Energy  :      -5869.61201393926694 Eh         -159720.26292 eV
One Electron Energy:     -10185.02508957624559 Eh         -277148.62265 eV
Two Electron Energy:       4315.41307563697865 Eh          117428.35973 eV

Virial components:
Potential Energy   :      -4840.69694206874192 Eh         -131722.06041 eV
Kinetic Energy     :       2414.64537995564660 Eh           65705.84121 eV
Virial Ratio       :          2.00472375043231

DFT components:
N(Alpha)           :      126.999956568505 electrons
N(Beta)            :      126.999956568505 electrons
N(Total)           :      253.999913137010 electrons
E(X)               :     -199.762360223086 Eh       
E(C)               :      -10.763125450660 Eh       
E(XC)              :     -210.525485673746 Eh       

---------------
SCF CONVERGENCE
---------------

  Last Energy change         ...   -1.3555e-07  Tolerance :   1.0000e-06
  Last MAX-Density change    ...    1.8798e-04  Tolerance :   1.0000e-05
  Last RMS-Density change    ...    3.9022e-06  Tolerance :   1.0000e-06
  Last DIIS Error            ...    1.7448e-03  Tolerance :   1.0000e-06
  Last Orbital Gradient      ...    8.3615e-05  Tolerance :   5.0000e-05
  Last Orbital Rotation      ...    1.2925e-04  Tolerance :   5.0000e-05


----------------
ORBITAL ENERGIES
----------------

  NO   OCC          E(Eh)            E(eV) 
   0   2.0000     -88.944050     -2420.2907 
   1   2.0000     -88.906188     -2419.2604 
   2   2.0000     -24.717645      -672.6013 
   3   2.0000     -24.709138      -672.3698 
   4   2.0000     -24.709081      -672.3683 
   5   2.0000     -24.708862      -672.3623 
   6   2.0000     -19.135664      -520.7079 
   7   2.0000     -19.135661      -520.7078 
   8   2.0000     -19.129840      -520.5494 
   9   2.0000     -14.436416      -392.8349 
  10   2.0000     -14.415367      -392.2621 
  11   2.0000     -14.399287      -391.8245 
  12   2.0000     -14.378626      -391.2623 
  13   2.0000     -14.334965      -390.0742 
  14   2.0000     -10.431628      -283.8590 
  15   2.0000     -10.351264      -281.6722 
  16   2.0000     -10.315559      -280.7006 
  17   2.0000     -10.312076      -280.6058 
  18   2.0000     -10.295189      -280.1463 
  19   2.0000     -10.293746      -280.1071 
  20   2.0000     -10.285435      -279.8809 
  21   2.0000     -10.271527      -279.5025 
  22   2.0000     -10.258990      -279.1613 
  23   2.0000     -10.233585      -278.4700 
  24   2.0000     -10.230716      -278.3919 
  25   2.0000     -10.221734      -278.1475 
  26   2.0000     -10.220635      -278.1176 
  27   2.0000     -10.215680      -277.9828 
  28   2.0000     -10.214200      -277.9425 
  29   2.0000     -10.209946      -277.8268 
  30   2.0000     -10.203941      -277.6633 
  31   2.0000     -10.200843      -277.5791 
  32   2.0000     -10.191027      -277.3119 
  33   2.0000      -8.018042      -218.1820 
  34   2.0000      -7.982117      -217.2044 
  35   2.0000      -5.982388      -162.7891 
  36   2.0000      -5.977036      -162.6434 
  37   2.0000      -5.974064      -162.5625 
  38   2.0000      -5.945252      -161.7785 
  39   2.0000      -5.940951      -161.6615 
  40   2.0000      -5.939153      -161.6126 
  41   2.0000      -1.273400       -34.6510 
  42   2.0000      -1.221280       -33.2327 
  43   2.0000      -1.199715       -32.6459 
  44   2.0000      -1.195556       -32.5327 
  45   2.0000      -1.091861       -29.7111 
  46   2.0000      -1.040421       -28.3113 
  47   2.0000      -1.036168       -28.1956 
  48   2.0000      -1.012485       -27.5511 
  49   2.0000      -0.980876       -26.6910 
  50   2.0000      -0.979597       -26.6562 
  51   2.0000      -0.958326       -26.0774 
  52   2.0000      -0.919989       -25.0342 
  53   2.0000      -0.873660       -23.7735 
  54   2.0000      -0.835862       -22.7450 
  55   2.0000      -0.824840       -22.4450 
  56   2.0000      -0.812985       -22.1224 
  57   2.0000      -0.798282       -21.7224 
  58   2.0000      -0.774147       -21.0656 
  59   2.0000      -0.757552       -20.6140 
  60   2.0000      -0.755549       -20.5595 
  61   2.0000      -0.739324       -20.1180 
  62   2.0000      -0.724468       -19.7138 
  63   2.0000      -0.688375       -18.7316 
  64   2.0000      -0.677671       -18.4404 
  65   2.0000      -0.660622       -17.9764 
  66   2.0000      -0.640254       -17.4222 
  67   2.0000      -0.635339       -17.2884 
  68   2.0000      -0.619833       -16.8665 
  69   2.0000      -0.611626       -16.6432 
  70   2.0000      -0.593521       -16.1505 
  71   2.0000      -0.582814       -15.8592 
  72   2.0000      -0.569321       -15.4920 
  73   2.0000      -0.563317       -15.3286 
  74   2.0000      -0.562848       -15.3159 
  75   2.0000      -0.558467       -15.1967 
  76   2.0000      -0.541207       -14.7270 
  77   2.0000      -0.529697       -14.4138 
  78   2.0000      -0.528420       -14.3790 
  79   2.0000      -0.516894       -14.0654 
  80   2.0000      -0.515478       -14.0269 
  81   2.0000      -0.491335       -13.3699 
  82   2.0000      -0.490169       -13.3382 
  83   2.0000      -0.483042       -13.1442 
  84   2.0000      -0.481215       -13.0945 
  85   2.0000      -0.476170       -12.9572 
  86   2.0000      -0.466478       -12.6935 
  87   2.0000      -0.465508       -12.6671 
  88   2.0000      -0.457078       -12.4377 
  89   2.0000      -0.451444       -12.2844 
  90   2.0000      -0.449758       -12.2385 
  91   2.0000      -0.442256       -12.0344 
  92   2.0000      -0.441036       -12.0012 
  93   2.0000      -0.440512       -11.9870 
  94   2.0000      -0.438322       -11.9273 
  95   2.0000      -0.430817       -11.7231 
  96   2.0000      -0.429139       -11.6775 
  97   2.0000      -0.422868       -11.5068 
  98   2.0000      -0.417595       -11.3633 
  99   2.0000      -0.413713       -11.2577 
 100   2.0000      -0.410567       -11.1721 
 101   2.0000      -0.407000       -11.0750 
 102   2.0000      -0.406516       -11.0619 
 103   2.0000      -0.401889       -10.9360 
 104   2.0000      -0.397504       -10.8166 
 105   2.0000      -0.394227       -10.7275 
 106   2.0000      -0.391044       -10.6409 
 107   2.0000      -0.390247       -10.6192 
 108   2.0000      -0.376094       -10.2340 
 109   2.0000      -0.375215       -10.2101 
 110   2.0000      -0.365123        -9.9355 
 111   2.0000      -0.362808        -9.8725 
 112   2.0000      -0.348847        -9.4926 
 113   2.0000      -0.346120        -9.4184 
 114   2.0000      -0.332215        -9.0400 
 115   2.0000      -0.317148        -8.6300 
 116   2.0000      -0.296658        -8.0725 
 117   2.0000      -0.294606        -8.0166 
 118   2.0000      -0.285984        -7.7820 
 119   2.0000      -0.283789        -7.7223 
 120   2.0000      -0.279492        -7.6054 
 121   2.0000      -0.271443        -7.3863 
 122   2.0000      -0.265281        -7.2187 
 123   2.0000      -0.264098        -7.1865 
 124   2.0000      -0.259039        -7.0488 
 125   2.0000      -0.251748        -6.8504 
 126   2.0000      -0.218014        -5.9325 
 127   0.0000      -0.055613        -1.5133 
 128   0.0000      -0.047057        -1.2805 
 129   0.0000      -0.044744        -1.2175 
 130   0.0000      -0.033737        -0.9180 
 131   0.0000      -0.010589        -0.2881 
 132   0.0000      -0.009275        -0.2524 
 133   0.0000       0.004136         0.1126 
 134   0.0000       0.018065         0.4916 
 135   0.0000       0.045594         1.2407 
 136   0.0000       0.053578         1.4579 
 137   0.0000       0.058326         1.5871 
*Only the first 10 virtual orbitals were printed.

                    ********************************
                    * MULLIKEN POPULATION ANALYSIS *
                    ********************************

-----------------------
MULLIKEN ATOMIC CHARGES
-----------------------
   0 C :   -0.317838
   1 N :   -0.480490
   2 C :    0.515778
   3 O :   -0.495454
   4 C :    0.050691
   5 C :    0.176800
   6 C :   -0.401218
   7 C :    0.576985
   8 O :   -0.447172
   9 N :   -0.638240
  10 C :    0.265660
  11 N :   -0.437780
  12 C :    0.211478
  13 C :    0.145875
  14 C :   -0.172951
  15 C :   -0.154800
  16 C :   -0.114716
  17 C :    0.917836
  18 F :   -0.300050
  19 F :   -0.298922
  20 F :   -0.306940
  21 C :    0.385604
  22 F :   -0.302567
  23 C :   -0.269242
  24 C :   -0.402469
  25 S :    0.330127
  26 N :   -0.488167
  27 S :    0.406816
  28 C :    0.045036
  29 N :   -0.448905
  30 C :   -0.341555
  31 C :    0.686758
  32 O :   -0.493117
  33 H :    0.181795
  34 H :    0.200910
  35 H :    0.197947
  36 H :    0.227686
  37 H :    0.187698
  38 H :    0.354214
  39 H :    0.157221
  40 H :    0.159493
  41 H :    0.145937
  42 H :    0.184821
  43 H :    0.221175
  44 H :    0.185370
  45 H :    0.192883
Sum of atomic charges:    0.0000000

--------------------------------
MULLIKEN REDUCED ORBITAL CHARGES
--------------------------------
  0 C s       :     3.271828  s :     3.271828
      pz      :     0.900960  p :     3.000922
      px      :     0.983356
      py      :     1.116606
      dz2     :     0.008480  d :     0.045088
      dxz     :     0.011914
      dyz     :     0.010106
      dx2y2   :     0.011546
      dxy     :     0.003042

  1 N s       :     3.606852  s :     3.606852
      pz      :     1.274303  p :     3.836228
      px      :     1.225581
      py      :     1.336344
      dz2     :     0.007861  d :     0.037410
      dxz     :     0.007094
      dyz     :     0.007587
      dx2y2   :     0.007980
      dxy     :     0.006889

  2 C s       :     2.957356  s :     2.957356
      pz      :     0.837669  p :     2.418819
      px      :     0.803741
      py      :     0.777408
      dz2     :     0.025826  d :     0.108048
      dxz     :     0.022041
      dyz     :     0.015985
      dx2y2   :     0.019347
      dxy     :     0.024849

  3 O s       :     3.890718  s :     3.890718
      pz      :     1.469788  p :     4.579264
      px      :     1.705415
      py      :     1.404061
      dz2     :     0.006459  d :     0.025472
      dxz     :     0.004214
      dyz     :     0.007329
      dx2y2   :     0.004419
      dxy     :     0.003051

  4 C s       :     3.120989  s :     3.120989
      pz      :     0.887831  p :     2.789168
      px      :     0.943266
      py      :     0.958072
      dz2     :     0.007301  d :     0.039151
      dxz     :     0.010014
      dyz     :     0.007134
      dx2y2   :     0.008226
      dxy     :     0.006476

  5 C s       :     3.121093  s :     3.121093
      pz      :     0.818136  p :     2.643338
      px      :     0.926434
      py      :     0.898768
      dz2     :     0.013566  d :     0.058769
      dxz     :     0.012847
      dyz     :     0.011167
      dx2y2   :     0.010472
      dxy     :     0.010717

  6 C s       :     3.293540  s :     3.293540
      pz      :     1.022799  p :     3.069873
      px      :     0.973524
      py      :     1.073550
      dz2     :     0.009151  d :     0.037804
      dxz     :     0.005319
      dyz     :     0.007085
      dx2y2   :     0.006892
      dxy     :     0.009358

  7 C s       :     3.012392  s :     3.012392
      pz      :     0.772705  p :     2.311882
      px      :     0.790647
      py      :     0.748530
      dz2     :     0.013878  d :     0.098742
      dxz     :     0.017590
      dyz     :     0.015326
      dx2y2   :     0.020646
      dxy     :     0.031301

  8 O s       :     3.897515  s :     3.897515
      pz      :     1.374953  p :     4.523762
      px      :     1.780719
      py      :     1.368090
      dz2     :     0.006386  d :     0.025895
      dxz     :     0.001983
      dyz     :     0.007622
      dx2y2   :     0.005692
      dxy     :     0.004213

  9 N s       :     3.625678  s :     3.625678
      pz      :     1.533163  p :     3.984385
      px      :     1.134997
      py      :     1.316225
      dz2     :     0.002514  d :     0.028177
      dxz     :     0.005576
      dyz     :     0.005462
      dx2y2   :     0.008495
      dxy     :     0.006128

 10 C s       :     3.042919  s :     3.042919
      pz      :     0.977139  p :     2.618991
      px      :     0.755141
      py      :     0.886711
      dz2     :     0.008977  d :     0.072431
      dxz     :     0.015617
      dyz     :     0.008456
      dx2y2   :     0.022396
      dxy     :     0.016985

 11 N s       :     3.698820  s :     3.698820
      pz      :     1.298974  p :     3.700782
      px      :     1.012178
      py      :     1.389630
      dz2     :     0.005517  d :     0.038177
      dxz     :     0.008798
      dyz     :     0.005795
      dx2y2   :     0.006038
      dxy     :     0.012029

 12 C s       :     3.061266  s :     3.061266
      pz      :     0.940504  p :     2.668260
      px      :     0.831044
      py      :     0.896712
      dz2     :     0.008315  d :     0.058996
      dxz     :     0.011377
      dyz     :     0.007087
      dx2y2   :     0.015973
      dxy     :     0.016245

 13 C s       :     3.142201  s :     3.142201
      pz      :     0.941609  p :     2.671263
      px      :     0.877439
      py      :     0.852215
      dz2     :     0.004119  d :     0.040660
      dxz     :     0.006821
      dyz     :     0.005784
      dx2y2   :     0.011339
      dxy     :     0.012597

 14 C s       :     3.206034  s :     3.206034
      pz      :     0.992123  p :     2.931689
      px      :     0.963568
      py      :     0.975998
      dz2     :     0.003816  d :     0.035229
      dxz     :     0.003979
      dyz     :     0.004952
      dx2y2   :     0.010914
      dxy     :     0.011568

 15 C s       :     3.210278  s :     3.210278
      pz      :     0.975407  p :     2.908220
      px      :     0.934915
      py      :     0.997898
      dz2     :     0.003041  d :     0.036301
      dxz     :     0.007338
      dyz     :     0.003811
      dx2y2   :     0.012543
      dxy     :     0.009568

 16 C s       :     3.168632  s :     3.168632
      pz      :     1.058350  p :     2.909395
      px      :     0.929848
      py      :     0.921197
      dz2     :     0.004187  d :     0.036689
      dxz     :     0.005191
      dyz     :     0.005391
      dx2y2   :     0.011188
      dxy     :     0.010732

 17 C s       :     2.797688  s :     2.797688
      pz      :     0.632602  p :     2.145931
      px      :     0.830665
      py      :     0.682663
      dz2     :     0.028905  d :     0.138544
      dxz     :     0.031912
      dyz     :     0.027386
      dx2y2   :     0.025538
      dxy     :     0.024805

 18 F s       :     3.978687  s :     3.978687
      pz      :     1.602139  p :     5.304905
      px      :     1.794768
      py      :     1.907998
      dz2     :     0.005291  d :     0.016458
      dxz     :     0.005759
      dyz     :     0.002585
      dx2y2   :     0.001549
      dxy     :     0.001275

 19 F s       :     3.978181  s :     3.978181
      pz      :     1.687650  p :     5.304312
      px      :     1.792416
      py      :     1.824245
      dz2     :     0.003360  d :     0.016429
      dxz     :     0.004559
      dyz     :     0.003865
      dx2y2   :     0.002134
      dxy     :     0.002511

 20 F s       :     3.981069  s :     3.981069
      pz      :     1.875341  p :     5.309617
      px      :     1.896152
      py      :     1.538124
      dz2     :     0.002110  d :     0.016254
      dxz     :     0.000667
      dyz     :     0.004198
      dx2y2   :     0.005372
      dxy     :     0.003907

 21 C s       :     3.109818  s :     3.109818
      pz      :     0.959725  p :     2.431871
      px      :     0.641012
      py      :     0.831134
      dz2     :     0.006430  d :     0.072708
      dxz     :     0.013765
      dyz     :     0.008183
      dx2y2   :     0.021780
      dxy     :     0.022550

 22 F s       :     3.975093  s :     3.975093
      pz      :     1.885629  p :     5.310027
      px      :     1.591458
      py      :     1.832940
      dz2     :     0.002129  d :     0.017448
      dxz     :     0.004003
      dyz     :     0.001121
      dx2y2   :     0.004777
      dxy     :     0.005418

 23 C s       :     3.215984  s :     3.215984
      pz      :     1.044918  p :     3.019437
      px      :     1.001829
      py      :     0.972690
      dz2     :     0.003187  d :     0.033821
      dxz     :     0.006208
      dyz     :     0.003635
      dx2y2   :     0.011366
      dxy     :     0.009425

 24 C s       :     3.273822  s :     3.273822
      pz      :     1.124488  p :     3.094763
      px      :     0.907225
      py      :     1.063050
      dz2     :     0.004163  d :     0.033883
      dxz     :     0.006510
      dyz     :     0.005656
      dx2y2   :     0.008773
      dxy     :     0.008781

 25 S s       :     5.814738  s :     5.814738
      pz      :     3.451475  p :     9.744649
      px      :     2.998331
      py      :     3.294843
      dz2     :     0.015894  d :     0.110487
      dxz     :     0.018461
      dyz     :     0.018803
      dx2y2   :     0.030485
      dxy     :     0.026845

 26 N s       :     3.792327  s :     3.792327
      pz      :     1.168418  p :     3.656671
      px      :     1.357324
      py      :     1.130930
      dz2     :     0.008074  d :     0.039169
      dxz     :     0.010432
      dyz     :     0.004334
      dx2y2   :     0.006262
      dxy     :     0.010067

 27 S s       :     5.805632  s :     5.805632
      pz      :     3.336328  p :     9.658022
      px      :     2.990937
      py      :     3.330757
      dz2     :     0.015651  d :     0.129531
      dxz     :     0.039571
      dyz     :     0.018205
      dx2y2   :     0.030031
      dxy     :     0.026073

 28 C s       :     3.099570  s :     3.099570
      pz      :     1.001232  p :     2.792507
      px      :     0.785749
      py      :     1.005526
      dz2     :     0.011002  d :     0.062888
      dxz     :     0.014706
      dyz     :     0.007767
      dx2y2   :     0.015806
      dxy     :     0.013606

 29 N s       :     3.588712  s :     3.588712
      pz      :     1.271078  p :     3.819685
      px      :     1.187138
      py      :     1.361469
      dz2     :     0.008522  d :     0.040508
      dxz     :     0.009090
      dyz     :     0.006207
      dx2y2   :     0.008161
      dxy     :     0.008528

 30 C s       :     3.285933  s :     3.285933
      pz      :     0.929113  p :     3.009754
      px      :     1.150533
      py      :     0.930108
      dz2     :     0.010536  d :     0.045868
      dxz     :     0.005758
      dyz     :     0.012197
      dx2y2   :     0.011420
      dxy     :     0.005957

 31 C s       :     2.846575  s :     2.846575
      pz      :     0.787030  p :     2.344304
      px      :     0.762009
      py      :     0.795265
      dz2     :     0.019536  d :     0.122363
      dxz     :     0.033057
      dyz     :     0.019087
      dx2y2   :     0.029024
      dxy     :     0.021658

 32 O s       :     3.889907  s :     3.889907
      pz      :     1.687168  p :     4.577446
      px      :     1.379956
      py      :     1.510321
      dz2     :     0.002850  d :     0.025764
      dxz     :     0.004752
      dyz     :     0.002212
      dx2y2   :     0.008099
      dxy     :     0.007852

 33 H s       :     0.818205  s :     0.818205

 34 H s       :     0.799090  s :     0.799090

 35 H s       :     0.802053  s :     0.802053

 36 H s       :     0.772314  s :     0.772314

 37 H s       :     0.812302  s :     0.812302

 38 H s       :     0.645786  s :     0.645786

 39 H s       :     0.842779  s :     0.842779

 40 H s       :     0.840507  s :     0.840507

 41 H s       :     0.854063  s :     0.854063

 42 H s       :     0.815179  s :     0.815179

 43 H s       :     0.778825  s :     0.778825

 44 H s       :     0.814630  s :     0.814630

 45 H s       :     0.807117  s :     0.807117



                     *******************************
                     * LOEWDIN POPULATION ANALYSIS *
                     *******************************

----------------------
LOEWDIN ATOMIC CHARGES
----------------------
   0 C :   -0.259667
   1 N :   -0.027276
   2 C :    0.115698
   3 O :   -0.292172
   4 C :   -0.131158
   5 C :    0.042714
   6 C :   -0.240047
   7 C :    0.158868
   8 O :   -0.252323
   9 N :   -0.194370
  10 C :   -0.075819
  11 N :   -0.187319
  12 C :   -0.009653
  13 C :    0.002810
  14 C :   -0.124227
  15 C :   -0.107855
  16 C :   -0.101621
  17 C :    0.313458
  18 F :   -0.112821
  19 F :   -0.112855
  20 F :   -0.112110
  21 C :    0.134460
  22 F :   -0.094302
  23 C :   -0.152877
  24 C :   -0.345877
  25 S :    0.436861
  26 N :   -0.325320
  27 S :    0.479909
  28 C :   -0.118203
  29 N :   -0.021392
  30 C :   -0.262406
  31 C :    0.146465
  32 O :   -0.301809
  33 H :    0.142527
  34 H :    0.155793
  35 H :    0.154107
  36 H :    0.182347
  37 H :    0.158507
  38 H :    0.275644
  39 H :    0.148626
  40 H :    0.147883
  41 H :    0.145540
  42 H :    0.162282
  43 H :    0.167378
  44 H :    0.145888
  45 H :    0.145714

-------------------------------
LOEWDIN REDUCED ORBITAL CHARGES
-------------------------------
  0 C s       :     2.971619  s :     2.971619
      pz      :     0.991642  p :     3.198791
      px      :     1.051176
      py      :     1.155973
      dz2     :     0.017635  d :     0.089258
      dxz     :     0.024549
      dyz     :     0.019501
      dx2y2   :     0.021673
      dxy     :     0.005899

  1 N s       :     3.084164  s :     3.084164
      pz      :     1.273037  p :     3.845477
      px      :     1.241397
      py      :     1.331043
      dz2     :     0.019133  d :     0.097636
      dxz     :     0.019742
      dyz     :     0.019337
      dx2y2   :     0.020074
      dxy     :     0.019349

  2 C s       :     2.821740  s :     2.821740
      pz      :     0.964569  p :     2.805326
      px      :     0.939276
      py      :     0.901480
      dz2     :     0.059704  d :     0.257236
      dxz     :     0.052030
      dyz     :     0.040311
      dx2y2   :     0.043903
      dxy     :     0.061288

  3 O s       :     3.583426  s :     3.583426
      pz      :     1.509841  p :     4.658307
      px      :     1.705889
      py      :     1.442577
      dz2     :     0.010745  d :     0.050439
      dxz     :     0.007527
      dyz     :     0.018180
      dx2y2   :     0.007754
      dxy     :     0.006233

  4 C s       :     2.854752  s :     2.854752
      pz      :     1.052089  p :     3.166979
      px      :     1.051983
      py      :     1.062907
      dz2     :     0.019632  d :     0.109427
      dxz     :     0.028199
      dyz     :     0.021501
      dx2y2   :     0.022629
      dxy     :     0.017466

  5 C s       :     2.876699  s :     2.876699
      pz      :     0.973832  p :     2.942514
      px      :     0.999150
      py      :     0.969533
      dz2     :     0.030756  d :     0.138072
      dxz     :     0.032010
      dyz     :     0.026409
      dx2y2   :     0.024124
      dxy     :     0.024774

  6 C s       :     2.935140  s :     2.935140
      pz      :     1.081926  p :     3.223470
      px      :     1.049025
      py      :     1.092520
      dz2     :     0.018540  d :     0.081437
      dxz     :     0.012244
      dyz     :     0.014563
      dx2y2   :     0.015466
      dxy     :     0.020625

  7 C s       :     2.868711  s :     2.868711
      pz      :     0.863275  p :     2.744676
      px      :     0.961576
      py      :     0.919825
      dz2     :     0.028223  d :     0.227745
      dxz     :     0.040462
      dyz     :     0.036806
      dx2y2   :     0.046068
      dxy     :     0.076186

  8 O s       :     3.590183  s :     3.590183
      pz      :     1.406463  p :     4.611428
      px      :     1.772964
      py      :     1.432000
      dz2     :     0.008668  d :     0.050712
      dxz     :     0.003630
      dyz     :     0.018482
      dx2y2   :     0.012159
      dxy     :     0.007773

  9 N s       :     3.154441  s :     3.154441
      pz      :     1.498805  p :     3.971335
      px      :     1.159950
      py      :     1.312581
      dz2     :     0.005737  d :     0.068594
      dxz     :     0.013708
      dyz     :     0.009317
      dx2y2   :     0.021485
      dxy     :     0.018347

 10 C s       :     2.895907  s :     2.895907
      pz      :     1.028575  p :     3.012770
      px      :     0.948763
      py      :     1.035433
      dz2     :     0.018914  d :     0.167141
      dxz     :     0.033192
      dyz     :     0.020308
      dx2y2   :     0.053114
      dxy     :     0.041614

 11 N s       :     3.245372  s :     3.245372
      pz      :     1.308206  p :     3.858556
      px      :     1.103272
      py      :     1.447079
      dz2     :     0.009148  d :     0.083391
      dxz     :     0.021250
      dyz     :     0.008079
      dx2y2   :     0.014397
      dxy     :     0.030517

 12 C s       :     2.860011  s :     2.860011
      pz      :     1.000233  p :     3.007203
      px      :     0.985605
      py      :     1.021364
      dz2     :     0.017736  d :     0.142439
      dxz     :     0.025203
      dyz     :     0.018245
      dx2y2   :     0.041718
      dxy     :     0.039536

 13 C s       :     2.871100  s :     2.871100
      pz      :     0.954220  p :     3.024188
      px      :     1.026813
      py      :     1.043155
      dz2     :     0.008617  d :     0.101902
      dxz     :     0.014786
      dyz     :     0.012973
      dx2y2   :     0.031329
      dxy     :     0.034198

 14 C s       :     2.915266  s :     2.915266
      pz      :     0.996263  p :     3.126230
      px      :     1.079218
      py      :     1.050749
      dz2     :     0.007080  d :     0.082732
      dxz     :     0.008147
      dyz     :     0.011102
      dx2y2   :     0.027275
      dxy     :     0.029127

 15 C s       :     2.917155  s :     2.917155
      pz      :     0.976523  p :     3.105137
      px      :     1.054226
      py      :     1.074388
      dz2     :     0.005864  d :     0.085563
      dxz     :     0.016617
      dyz     :     0.006376
      dx2y2   :     0.031432
      dxy     :     0.025273

 16 C s       :     2.889530  s :     2.889530
      pz      :     1.046328  p :     3.118578
      px      :     1.032084
      py      :     1.040166
      dz2     :     0.008840  d :     0.093512
      dxz     :     0.010904
      dyz     :     0.012154
      dx2y2   :     0.031040
      dxy     :     0.030575

 17 C s       :     2.849397  s :     2.849397
      pz      :     0.778379  p :     2.507299
      px      :     0.916199
      py      :     0.812720
      dz2     :     0.069933  d :     0.329847
      dxz     :     0.077455
      dyz     :     0.063078
      dx2y2   :     0.058682
      dxy     :     0.060699

 18 F s       :     3.761126  s :     3.761126
      pz      :     1.619028  p :     5.320467
      px      :     1.799367
      py      :     1.902073
      dz2     :     0.009813  d :     0.031228
      dxz     :     0.012422
      dyz     :     0.004177
      dx2y2   :     0.002897
      dxy     :     0.001918

 19 F s       :     3.761328  s :     3.761328
      pz      :     1.699862  p :     5.320296
      px      :     1.797292
      py      :     1.823141
      dz2     :     0.005554  d :     0.031232
      dxz     :     0.009703
      dyz     :     0.007449
      dx2y2   :     0.003768
      dxy     :     0.004759

 20 F s       :     3.757801  s :     3.757801
      pz      :     1.872888  p :     5.323405
      px      :     1.893769
      py      :     1.556748
      dz2     :     0.003864  d :     0.030904
      dxz     :     0.001151
      dyz     :     0.007538
      dx2y2   :     0.011479
      dxy     :     0.006872

 21 C s       :     2.863853  s :     2.863853
      pz      :     0.972405  p :     2.823322
      px      :     0.846708
      py      :     1.004209
      dz2     :     0.015066  d :     0.178364
      dxz     :     0.030029
      dyz     :     0.018472
      dx2y2   :     0.057649
      dxy     :     0.057149

 22 F s       :     3.736395  s :     3.736395
      pz      :     1.880491  p :     5.323123
      px      :     1.606596
      py      :     1.836036
      dz2     :     0.004319  d :     0.034784
      dxz     :     0.007918
      dyz     :     0.002153
      dx2y2   :     0.009491
      dxy     :     0.010904

 23 C s       :     2.917810  s :     2.917810
      pz      :     1.038190  p :     3.155696
      px      :     1.046301
      py      :     1.071205
      dz2     :     0.006160  d :     0.079371
      dxz     :     0.013717
      dyz     :     0.005904
      dx2y2   :     0.028117
      dxy     :     0.025473

 24 C s       :     2.983513  s :     2.983513
      pz      :     1.132020  p :     3.283246
      px      :     1.053017
      py      :     1.098209
      dz2     :     0.008631  d :     0.079118
      dxz     :     0.013147
      dyz     :     0.012660
      dx2y2   :     0.023488
      dxy     :     0.021191

 25 S s       :     5.531755  s :     5.531755
      pz      :     3.454381  p :     9.899638
      px      :     3.078670
      py      :     3.366587
      dz2     :     0.018336  d :     0.131746
      dxz     :     0.021518
      dyz     :     0.022605
      dx2y2   :     0.037619
      dxy     :     0.031668

 26 N s       :     3.388388  s :     3.388388
      pz      :     1.233194  p :     3.856468
      px      :     1.425124
      py      :     1.198149
      dz2     :     0.016710  d :     0.080464
      dxz     :     0.021556
      dyz     :     0.011475
      dx2y2   :     0.010770
      dxy     :     0.019953

 27 S s       :     5.546740  s :     5.546740
      pz      :     3.408153  p :     9.817035
      px      :     3.035595
      py      :     3.373288
      dz2     :     0.017760  d :     0.156315
      dxz     :     0.047975
      dyz     :     0.019900
      dx2y2   :     0.036706
      dxy     :     0.033975

 28 C s       :     2.883529  s :     2.883529
      pz      :     1.064903  p :     3.081762
      px      :     0.995602
      py      :     1.021257
      dz2     :     0.025819  d :     0.152912
      dxz     :     0.037733
      dyz     :     0.018687
      dx2y2   :     0.037457
      dxy     :     0.033217

 29 N s       :     3.060463  s :     3.060463
      pz      :     1.282305  p :     3.855146
      px      :     1.227150
      py      :     1.345692
      dz2     :     0.020772  d :     0.105783
      dxz     :     0.026278
      dyz     :     0.015627
      dx2y2   :     0.021579
      dxy     :     0.021527

 30 C s       :     2.973139  s :     2.973139
      pz      :     1.015266  p :     3.198727
      px      :     1.169403
      py      :     1.014059
      dz2     :     0.021347  d :     0.090541
      dxz     :     0.010841
      dyz     :     0.024886
      dx2y2   :     0.022405
      dxy     :     0.011062

 31 C s       :     2.804074  s :     2.804074
      pz      :     0.907386  p :     2.765513
      px      :     0.943371
      py      :     0.914755
      dz2     :     0.045023  d :     0.283947
      dxz     :     0.077535
      dyz     :     0.044635
      dx2y2   :     0.064432
      dxy     :     0.052322

 32 O s       :     3.587698  s :     3.587698
      pz      :     1.685402  p :     4.663591
      px      :     1.444051
      py      :     1.534138
      dz2     :     0.006963  d :     0.050520
      dxz     :     0.007822
      dyz     :     0.003574
      dx2y2   :     0.013639
      dxy     :     0.018522

 33 H s       :     0.857473  s :     0.857473

 34 H s       :     0.844207  s :     0.844207

 35 H s       :     0.845893  s :     0.845893

 36 H s       :     0.817653  s :     0.817653

 37 H s       :     0.841493  s :     0.841493

 38 H s       :     0.724356  s :     0.724356

 39 H s       :     0.851374  s :     0.851374

 40 H s       :     0.852117  s :     0.852117

 41 H s       :     0.854460  s :     0.854460

 42 H s       :     0.837718  s :     0.837718

 43 H s       :     0.832622  s :     0.832622

 44 H s       :     0.854112  s :     0.854112

 45 H s       :     0.854286  s :     0.854286



                      *****************************
                      * MAYER POPULATION ANALYSIS *
                      *****************************

  NA   - Mulliken gross atomic population
  ZA   - Total nuclear charge
  QA   - Mulliken gross atomic charge
  VA   - Mayer's total valence
  BVA  - Mayer's bonded valence
  FA   - Mayer's free valence

  ATOM       NA         ZA         QA         VA         BVA        FA
  0 C      6.3178     6.0000    -0.3178     3.7623     3.7623    -0.0000
  1 N      7.4805     7.0000    -0.4805     3.0601     3.0601     0.0000
  2 C      5.4842     6.0000     0.5158     3.9062     3.9062     0.0000
  3 O      8.4955     8.0000    -0.4955     2.0357     2.0357     0.0000
  4 C      5.9493     6.0000     0.0507     3.8668     3.8668     0.0000
  5 C      5.8232     6.0000     0.1768     3.9248     3.9248    -0.0000
  6 C      6.4012     6.0000    -0.4012     3.7756     3.7756     0.0000
  7 C      5.4230     6.0000     0.5770     3.8453     3.8453    -0.0000
  8 O      8.4472     8.0000    -0.4472     2.0843     2.0843     0.0000
  9 N      7.6382     7.0000    -0.6382     2.9337     2.9337     0.0000
 10 C      5.7343     6.0000     0.2657     3.8208     3.8208    -0.0000
 11 N      7.4378     7.0000    -0.4378     2.9704     2.9704     0.0000
 12 C      5.7885     6.0000     0.2115     4.0145     4.0145    -0.0000
 13 C      5.8541     6.0000     0.1459     3.9676     3.9676     0.0000
 14 C      6.1730     6.0000    -0.1730     3.8889     3.8889    -0.0000
 15 C      6.1548     6.0000    -0.1548     3.9100     3.9100     0.0000
 16 C      6.1147     6.0000    -0.1147     3.8566     3.8566     0.0000
 17 C      5.0822     6.0000     0.9178     3.9140     3.9140     0.0000
 18 F      9.3000     9.0000    -0.3000     1.0541     1.0541     0.0000
 19 F      9.2989     9.0000    -0.2989     1.0548     1.0548     0.0000
 20 F      9.3069     9.0000    -0.3069     1.0604     1.0604    -0.0000
 21 C      5.6144     6.0000     0.3856     3.8315     3.8315    -0.0000
 22 F      9.3026     9.0000    -0.3026     1.0703     1.0703     0.0000
 23 C      6.2692     6.0000    -0.2692     3.8421     3.8421    -0.0000
 24 C      6.4025     6.0000    -0.4025     3.7602     3.7602    -0.0000
 25 S     15.6699    16.0000     0.3301     2.5718     2.5718    -0.0000
 26 N      7.4882     7.0000    -0.4882     2.8513     2.8513     0.0000
 27 S     15.5932    16.0000     0.4068     2.5015     2.5015    -0.0000
 28 C      5.9550     6.0000     0.0450     3.7192     3.7192    -0.0000
 29 N      7.4489     7.0000    -0.4489     3.1010     3.1010    -0.0000
 30 C      6.3416     6.0000    -0.3416     3.7516     3.7516     0.0000
 31 C      5.3132     6.0000     0.6868     3.9395     3.9395     0.0000
 32 O      8.4931     8.0000    -0.4931     2.0444     2.0444     0.0000
 33 H      0.8182     1.0000     0.1818     0.9268     0.9268    -0.0000
 34 H      0.7991     1.0000     0.2009     0.9331     0.9331     0.0000
 35 H      0.8021     1.0000     0.1979     0.9328     0.9328     0.0000
 36 H      0.7723     1.0000     0.2277     0.9258     0.9258    -0.0000
 37 H      0.8123     1.0000     0.1877     0.9280     0.9280    -0.0000
 38 H      0.6458     1.0000     0.3542     0.8547     0.8547    -0.0000
 39 H      0.8428     1.0000     0.1572     0.9457     0.9457     0.0000
 40 H      0.8405     1.0000     0.1595     0.9426     0.9426     0.0000
 41 H      0.8541     1.0000     0.1459     0.9405     0.9405     0.0000
 42 H      0.8152     1.0000     0.1848     0.9360     0.9360    -0.0000
 43 H      0.7788     1.0000     0.2212     0.9310     0.9310     0.0000
 44 H      0.8146     1.0000     0.1854     0.9268     0.9268    -0.0000
 45 H      0.8071     1.0000     0.1929     0.9201     0.9201     0.0000

  Mayer bond orders larger than 0.100000
B(  0-C ,  1-N ) :   0.9133 B(  0-C , 33-H ) :   0.9395 B(  0-C , 34-H ) :   0.9224 
B(  0-C , 35-H ) :   0.9256 B(  1-N ,  2-C ) :   0.9844 B(  1-N , 31-C ) :   1.0434 
B(  2-C ,  3-O ) :   1.7648 B(  2-C ,  4-C ) :   1.0894 B(  4-C ,  5-C ) :   1.2450 
B(  4-C , 28-C ) :   1.3507 B(  5-C ,  6-C ) :   1.0005 B(  5-C , 26-N ) :   1.5237 
B(  6-C ,  7-C ) :   0.9360 B(  6-C , 36-H ) :   0.8993 B(  6-C , 37-H ) :   0.9020 
B(  7-C ,  8-O ) :   1.8323 B(  7-C ,  9-N ) :   1.0173 B(  9-N , 10-C ) :   0.9506 
B(  9-N , 38-H ) :   0.8102 B( 10-C , 11-N ) :   1.4781 B( 10-C , 24-C ) :   0.1050 
B( 10-C , 25-S ) :   1.1844 B( 11-N , 12-C ) :   1.2914 B( 12-C , 13-C ) :   1.0583 
B( 12-C , 24-C ) :   1.5138 B( 13-C , 14-C ) :   1.3999 B( 13-C , 23-C ) :   1.3660 
B( 14-C , 15-C ) :   1.4138 B( 14-C , 39-H ) :   0.9118 B( 15-C , 16-C ) :   1.4042 
B( 15-C , 40-H ) :   0.9193 B( 16-C , 17-C ) :   0.9677 B( 16-C , 21-C ) :   1.3196 
B( 17-C , 18-F ) :   0.9684 B( 17-C , 19-F ) :   0.9741 B( 17-C , 20-F ) :   0.9450 
B( 21-C , 22-F ) :   0.9473 B( 21-C , 23-C ) :   1.3846 B( 23-C , 41-H ) :   0.9099 
B( 24-C , 25-S ) :   1.1102 B( 24-C , 42-H ) :   0.9007 B( 26-N , 27-S ) :   1.0907 
B( 26-N , 28-C ) :   0.1308 B( 27-S , 28-C ) :   1.1601 B( 28-C , 29-N ) :   0.9982 
B( 29-N , 30-C ) :   0.9213 B( 29-N , 31-C ) :   1.0256 B( 30-C , 43-H ) :   0.9184 
B( 30-C , 44-H ) :   0.9236 B( 30-C , 45-H ) :   0.9313 B( 31-C , 32-O ) :   1.8013 


-------
TIMINGS
-------

Total SCF time: 0 days 0 hours 4 min 20 sec 

Total time                  ....     260.874 sec
Sum of individual times     ....     260.497 sec  ( 99.9%)

SCF preparation             ....       0.288 sec  (  0.1%)
Fock matrix formation       ....     258.197 sec  ( 99.0%)
  Startup                   ....       0.111 sec  (  0.0% of F)
  Split-RI-J                ....      36.169 sec  ( 14.0% of F)
  Chain of spheres X        ....     197.886 sec  ( 76.6% of F)
  XC integration            ....      23.146 sec  (  9.0% of F)
    XC Preparation          ....       0.000 sec  (  0.0% of XC)
    Basis function eval.    ....       8.677 sec  ( 37.5% of XC)
    Density eval.           ....       5.034 sec  ( 21.8% of XC)
    XC-Functional eval.     ....       1.113 sec  (  4.8% of XC)
    XC-Potential eval.      ....       6.725 sec  ( 29.1% of XC)
Diagonalization             ....       0.000 sec  (  0.0%)
Density matrix formation    ....       0.352 sec  (  0.1%)
Total Energy calculation    ....       0.083 sec  (  0.0%)
Population analysis         ....       0.061 sec  (  0.0%)
Orbital Transformation      ....       0.160 sec  (  0.1%)
Orbital Orthonormalization  ....       0.000 sec  (  0.0%)
DIIS solution               ....       0.953 sec  (  0.4%)
SOSCF solution              ....       0.403 sec  (  0.2%)
Finished LeanSCF after 260.9 sec

Maximum memory used throughout the entire LEANSCF-calculation: 73.8 MB

-------------------------   --------------------
FINAL SINGLE POINT ENERGY     -2426.051562113096
-------------------------   --------------------


------------------------------------------------------------------------------
                              ORCA PROPERTY CALCULATIONS
------------------------------------------------------------------------------

GBWName                                 ... /home/nmrbox/aojoawo/Documents/ERDOS/inputs/CHEMBL3912738.gbw
Number of atoms                         ...     46
Number of basis functions               ...    496
Max core memory                         ...   1024 MB

Electric properties:
Dipole moment                           ... YES
Quadrupole moment                       ...  NO
Static polarizability (Dipole/Dipole)   ...  NO
Static polarizability (Dipole/Quad.)    ...  NO
Static polarizability (Quad./Quad.)     ...  NO
Static polarizability (Velocity)        ...  NO

Atomic electric properties:
Dipole moment                           ...  NO
Quadrupole moment                       ...  NO
Static polarizability                   ...  NO

Choice of electric origin               ... Center of mass
Position of electric origin             ...     1.607642    -0.180779     0.301973

General magnetic properties:
Magnetizability                         ...  NO

EPR properties:
g-Tensor (aka g-matrix)                 ...  NO
Zero-Field splitting spin-orbit         ...  NO
Zero-field splitting spin-spin          ...  NO
Hyperfine couplings                     ...  NO (   0 nuclei)
Quadrupole couplings                    ...  NO (   0 nuclei)
Contact density                         ...  NO (   0 nuclei)

NMR properties:
Chemical shifts                         ...  NO (   0 nuclei)
Spin-rotation constants                 ...  NO (   0 nuclei)
Spin-spin couplings                     ...  NO (   0 nuclei,    0 pairs)

Choice of magnetic origin               ... GIAO
Position of magnetic origin             ...     0.000000     0.000000     0.000000

Properties with geometric perturbations:
SCF Hessian                             ...  NO
IR spectrum                             ...  NO
VCD spectrum                            ...  NO
X-ray spectroscopy properties:
SCF XES/XAS/RIXS spectra                ...  NO


-------------
DIPOLE MOMENT
-------------

Method             : SCF
Type of density    : Electron Density
Multiplicity       :   1
Irrep              :   0
Energy             : -2426.0515621130957697 Eh
Relativity type    : 
Basis              : AO
                                X                 Y                 Z
Electronic contribution:     61.599218210       2.125852106       2.363679734
Nuclear contribution   :    -64.183856323      -1.099956984      -2.016831395
                        -----------------------------------------
Total Dipole Moment    :     -2.584638113       1.025895122       0.346848339
                        -----------------------------------------
Magnitude (a.u.)       :      2.802341654
Magnitude (Debye)      :      7.122986413



--------------------
Rotational spectrum 
--------------------
 
Rotational constants in cm-1:             0.008712             0.001026             0.000976 
Rotational constants in MHz :           261.173221            30.769343            29.263209 

Dipole components along the rotational axes: 
x,y,z [a.u.] :     2.584659    -1.030941    -0.331390 
x,y,z [Debye]:     6.569680    -2.620443    -0.842327 

 

Dipole moment calculation done in   0.0 sec 

Maximum memory used throughout the entire PROP-calculation: 36.5 MB

--------------------------------
SUGGESTED CITATIONS FOR THIS RUN
--------------------------------

Below you find a list of papers that are relevant to this ORCA run
We neither can nor want to force you to cite these papers, but we appreciate if you do
You receive ORCA, which is the product of decades of hard work by many enthusiastic individuals, for free
The only thing we kindly ask in return is that you cite our papers,
We deeply appreciate it, if you show your appreciation for ORCA by not just citing the generic ORCA reference.

Please note that relegating all ORCA citations to the supporting information does *not* help us.
SI sections are not indexed - citations you put there will not count into any citation statistics
But we need these citations in order to attract the funding resources that allow us to do what we are doing

Therefore, if you are a happy ORCA user, please consider citing a few of the papers listed below in the main body of your paper

In addition to the list printed below, the program has created the file /home/nmrbox/aojoawo/Documents/ERDOS/inputs/CHEMBL3912738.bibtex that contains the list in bibtex format
You can import this file easily into all common literature databanks and citation aid programs


List of essential papers. We consider these as the minimum necessary citations

  1. Neese,F.
     Software update: the ORCA program system, version 5.0
     WIRES Comput. Molec. Sci., 2022 12(1)e1606
     doi.org/10.1002/wcms.1606

List of papers to cite with high priority. The work reported in these papers was absolutely
necessary for this run to complete.
Our perspective: the developers of density functionals and basis sets usually get cited in chemistry papers
Good! But without the algorithms to do something with them, the functionals or basis sets would not do anything.
Hence, in our opinion, the algorithm design and method developments papers are equally worthy of getting cited

  1. Neese,F.
     An improvement of the resolution of the identity approximation for the formation of the Coulomb matrix
     J. Comp. Chem., 2003 24(14)1740-1747
     doi.org/10.1002/jcc.10318
  2. Neese,F.; Wennmohs,F.; Hansen,A.; Becker,U.
     Efficient, approximate and parallel Hartree-Fock and hybrid DFT calculations. A 'chain-of-spheres' algorithm for the Hartree-Fock exchange
     Chem. Phys., 2009 356(1-3)98-109
     doi.org/10.1016/j.chemphys.2008.10.036
  3. Helmich-Paris,B.; de Souza,B.; Neese,F.; Izsák,R.
     An improved chain of spheres for exchange algorithm
     J. Chem. Phys., 2021 155 104109
     doi.org/doi: 10.1063/5.0058766.
  4. Neese,F.
     The SHARK Integral Generation and Digestion System
     J. Comp. Chem., 2022  1-16
     doi.org/10.1002/jcc.26942

List of suggested additional citations. These are papers that are important in the 'surrounding' of 
of this run, or papers that preceded the highly important papers. If you like your results we are grateful for a citation.

  1. Izsak,R.; Neese,F.
     An overlap fitted chain of spheres exchange method
     J. Chem. Phys., 2011 135 144105
     doi.org/10.1063/1.3646921
  2. Izsak,R.; Hansen,A.; Neese,F.
     The resolution of identity and chain of spheres approximations for the LPNO-CCSD singles Fock term
     Molec. Phys., 2012 110 2413-2417
     doi.org/10.1080/00268976.2012.687466
  3. Neese,F.
     The ORCA program system
     WIRES Comput. Molec. Sci., 2012 2(1)73-78
     doi.org/10.1002/wcms.81
  4. Izsak,R.; Neese,F.; Klopper,W.
     Robust fitting techniques in the chain of spheres approximation to the Fock exchange: The role of the complementary space
     J. Chem. Phys., 2013 139 
     doi.org/10.1063/1.4819264
  5. Neese,F.
     Software update: the ORCA program system, version 4.0
     WIRES Comput. Molec. Sci., 2018 8(1)1-6
     doi.org/10.1002/wcms.1327
  6. Neese,F.; Wennmohs,F.; Becker,U.; Riplinger,C.
     The ORCA quantum chemistry program package
     J. Chem. Phys., 2020 152 Art. No. L224108
     doi.org/10.1063/5.0004608

List of optional additional citations

  1. Neese,F.
     Approximate second-order SCF convergence for spin unrestricted wavefunctions
     Chem. Phys. Lett., 2000 325(1-3)93-98
     doi.org/10.1016/s0009-2614(00)00662-x

Timings for individual modules:

Sum of individual times          ...      272.821 sec (=   4.547 min)
Startup calculation              ...        7.842 sec (=   0.131 min)   2.9 %
SCF iterations                   ...      264.795 sec (=   4.413 min)  97.1 %
Property calculations            ...        0.183 sec (=   0.003 min)   0.1 %
                             ****ORCA TERMINATED NORMALLY****
TOTAL RUN TIME: 0 days 0 hours 4 minutes 33 seconds 650 msec
