
                                 *****************
                                 * O   R   C   A *
                                 *****************

                                            #,                                       
                                            ###                                      
                                            ####                                     
                                            #####                                    
                                            ######                                   
                                           ########,                                 
                                     ,,################,,,,,                         
                               ,,#################################,,                 
                          ,,##########################################,,             
                       ,#########################################, ''#####,          
                    ,#############################################,,   '####,        
                  ,##################################################,,,,####,       
                ,###########''''           ''''###############################       
              ,#####''   ,,,,##########,,,,          '''####'''          '####       
            ,##' ,,,,###########################,,,                        '##       
           ' ,,###''''                  '''############,,,                           
         ,,##''                                '''############,,,,        ,,,,,,###''
      ,#''                                            '''#######################'''  
     '                                                          ''''####''''         
             ,#######,   #######,   ,#######,      ##                                
            ,#'     '#,  ##    ##  ,#'     '#,    #''#        ,####,   ,####,        
            ##       ##  ##   ,#'  ##            #'  '#       #'       #'  '#        
            ##       ##  #######   ##           ,######,      #####,   #    #        
            '#,     ,#'  ##    ##  '#,     ,#' ,#      #,     #,   #   #,  ,#        
             '#######'   ##     ##  '#######'  #'      '#     '####' # '####'        



                #########################################################
                #                        -***-                          #
                #          Department of theory and spectroscopy        #
                #                                                       #
                #                      Frank Neese                      #
                #                                                       #
                #     Directorship, Architecture, Infrastructure        #
                #                    SHARK, DRIVERS                     #
                #        Core code/Algorithms in most modules           #
                #                                                       #
                #        Max Planck Institute fuer Kohlenforschung      #
                #                Kaiser Wilhelm Platz 1                 #
                #                 D-45470 Muelheim/Ruhr                 #
                #                      Germany                          #
                #                                                       #
                #                  All rights reserved                  #
                #                        -***-                          #
                #########################################################


                         Program Version 6.0.0  -   RELEASE  -


 With contributions from (in alphabetic order):
   Daniel Aravena         : Magnetic Suceptibility
   Michael Atanasov       : Ab Initio Ligand Field Theory (pilot matlab implementation)
   Alexander A. Auer      : GIAO ZORA, VPT2 properties, NMR spectrum
   Ute Becker             : All parallelization in ORCA, NUMFREQ, NUMCALC
   Giovanni Bistoni       : ED, misc. LED, open-shell LED, HFLD
   Martin Brehm           : Molecular dynamics
   Dmytro Bykov           : pre 5.0 version of the SCF Hessian
   Marcos Casanova-Páez   : Triplet and SCS-CIS(D). UHF-(DLPNO)-IP/EA/STEOM-CCSD. UHF-CVS-IP/STEOM-CCSD
   Vijay G. Chilkuri      : MRCI spin determinant printing, contributions to CSF-ICE
   Pauline Colinet        : FMM embedding
   Dipayan Datta          : RHF DLPNO-CCSD density
   Achintya Kumar Dutta   : EOM-CC, STEOM-CC
   Nicolas Foglia         : Exact transition moments, OPA infrastructure, MCD improvements
   Dmitry Ganyushin       : Spin-Orbit,Spin-Spin,Magnetic field MRCI
   Miquel Garcia          : C-PCM and meta-GGA Hessian, CCSD/C-PCM, Gaussian charge scheme
   Tiago L. C. Gouveia    : GS-ROHF, GS-ROCIS
   Yang Guo               : DLPNO-NEVPT2, F12-NEVPT2, CIM, IAO-localization
   Andreas Hansen         : Spin unrestricted coupled pair/coupled cluster methods
   Ingolf Harden          : AUTO-CI MPn and infrastructure 
   Benjamin Helmich-Paris : MC-RPA, TRAH-(SCF,CASSCF), AVAS, COSX integrals, SCF dyn. polar.
   Lee Huntington         : MR-EOM, pCC
   Robert Izsak           : Overlap fitted RIJCOSX, COSX-SCS-MP3, EOM
   Riya Kayal             : Wick's Theorem for AUTO-CI, AUTO-CI UHF-CCSDT
   Emily Kempfer          : AUTO-CI, RHF CISDT and CCSDT
   Christian Kollmar      : KDIIS, OOCD, Brueckner-CCSD(T), CCSD density, CASPT2, CASPT2-K, improved NEVPT2
   Axel Koslowski         : Symmetry handling
   Simone Kossmann        : Meta GGA functionals, TD-DFT gradient, OOMP2, (MP2 Hessian; deprecated post 5.0)
   Lucas Lang             : DCDCAS
   Marvin Lechner         : AUTO-CI (C++ implementation), FIC-MRCC
   Spencer Leger          : CASSCF response
   Dagmar Lenk            : GEPOL surface, SMD, ORCA-2-JSON
   Dimitrios Liakos       : Extrapolation schemes; Compound Job, initial MDCI parallelization
   Dimitrios Manganas     : Further ROCIS development; embedding schemes. LFT, Crystal Embedding
   Dimitrios Pantazis     : SARC Basis sets
   Anastasios Papadopoulos: AUTO-CI, single reference methods and gradients
   Taras Petrenko         : pre 6.0 DFT Hessian and TD-DFT gradient, (ASA, deprecated), ECA, 1-Electron XAS/XES, NRVS
   Peter Pinski           : DLPNO-MP2, DLPNO-MP2 Gradient
   Christoph Reimann      : Effective Core Potentials
   Marius Retegan         : Local ZFS, SOC
   Christoph Riplinger    : Optimizer, TS searches, QM/MM, DLPNO-CCSD(T), (RO)-DLPNO pert. Triples
   Michael Roemelt        : Original ROCIS implementation
   Masaaki Saitow         : Open-shell DLPNO-CCSD energy and density
   Barbara Sandhoefer     : DKH picture change effects
   Kantharuban Sivalingam : CASSCF convergence/infrastructure, NEVPT2 and variants, FIC-MRCI
   Bernardo de Souza      : ESD, SOC TD-DFT
   Georgi Stoychev        : AutoAux, RI-MP2 NMR, DLPNO-MP2 response, X2C
   Van Anh Tran           : RI-MP2 g-tensors
   Willem Van den Heuvel  : Paramagnetic NMR
   Zikuan Wang            : NOTCH, Electric field optimization 
   Frank Wennmohs         : Technical directorship and infrastructure
   Hang Xu                : AUTO-CI-Response properties 


 We gratefully acknowledge several colleagues who have allowed us to
 interface, adapt or use parts of their codes:
   Stefan Grimme, W. Hujo, H. Kruse, P. Pracht,  : VdW corrections, initial TS optimization,
                  C. Bannwarth, S. Ehlert,         DFT functionals, gCP, sTDA/sTD-DF
                  L. Wittmann, M. Mueller
   Ed Valeev, F. Pavosevic, A. Kumar             : LibInt (2-el integral package), F12 methods
   Garnet Chan, S. Sharma, J. Yang, R. Olivares  : DMRG
   Ulf Ekstrom                                   : XCFun DFT Library
   Mihaly Kallay                                 : mrcc  (arbitrary order and MRCC methods)
   Frank Weinhold                                : gennbo (NPA and NBO analysis)
   Simon Mueller                                 : openCOSMO-RS
   Christopher J. Cramer and Donald G. Truhlar   : smd solvation model
   Lars Goerigk                                  : TD-DFT with DH, B97 family of functionals
   V. Asgeirsson, H. Jonsson                     : NEB implementation
   FAccTs GmbH                                   : IRC, NEB, NEB-TS, DLPNO-Multilevel, CI-OPT
                                                   MM, QMMM, 2- and 3-layer-ONIOM, Crystal-QMMM,
                                                   LR-CPCM, SF, NACMEs, symmetry and pop. for TD-DFT,
                                                   nearIR, NL-DFT gradient (VV10), updates on ESD,
                                                   ML-optimized integration grids, MBIS, APM,
                                                   GOAT, DOCKER, SOLVATOR, interface openCOSMO-RS
   S Lehtola, MJT Oliveira, MAL Marques          : LibXC Library
   Liviu Ungur et al                             : ANISO software


 Your calculation uses the libint2 library for the computation of 2-el integrals
 For citations please refer to: http://libint.valeyev.net

 Your ORCA version has been built with support for libXC version: 6.2.2
 For citations please refer to: https://libxc.gitlab.io

 This ORCA versions uses:
   CBLAS   interface :  Fast vector & matrix operations
   LAPACKE interface :  Fast linear algebra routines
   SCALAPACK package :  Parallel linear algebra routines
   Shared memory     :  Shared parallel matrices
   BLAS/LAPACK       :  OpenBLAS 0.3.27  USE64BITINT DYNAMIC_ARCH NO_AFFINITY SkylakeX SINGLE_THREADED
        Core in use  :  SkylakeX
   Copyright (c) 2011-2014, The OpenBLAS Project


Warning: RI is on but no J-basis has been assigned. Assigning Def2/J (nothing to worry about!)
================================================================================

----- Orbital basis set information -----
Your calculation utilizes the basis: 6-31G*
   H-He, Li-Ne : W. J. Hehre, R. Ditchfield and J.A. Pople, J. Chem. Phys. 56, 2257 (1972).
                 Note: He and Ne are unpublished basis sets taken from the Gaussian program.
                 Note: Li and B from J. D. Dill and J. A. Pople, J. Chem. Phys. 62, 2921 (1975).
   Na - Ar     : M. M. Francl, W. J. Pietro, W. J. Hehre, J. S. Binkley, M. S. Gordon, 
                 D. J. DeFrees and J. A. Pople, J. Chem. Phys. 77, 3654 (1982).
   K - Zn      : V. A. Rassolov, J. A. Pople, M. A. Ratner, and T. L. Windus, J. Chem. Phys. 109, 1223 (1998).

----- AuxJ basis set information -----
Your calculation utilizes the auxiliary basis: def2/J
   F. Weigend, Phys. Chem. Chem. Phys. 8, 1057 (2006).

================================================================================
                                        WARNINGS
                       Please study these warnings very carefully!
================================================================================


================================================================================
                                       INPUT FILE
================================================================================
NAME = /home/nmrbox/aojoawo/Documents/ERDOS/inputs/CHEMBL5266721.inp
|  1> ! B3LYP 6-31G* SP
|  2> 
|  3> * xyz 0 1
|  4> C 7.4394 2.0581 -2.0642
|  5> C 7.3144 1.0817 -0.9391
|  6> C 8.4774 0.5856 -0.2941
|  7> C 8.3533 -0.3212 0.7747
|  8> C 7.0674 -0.6913 1.1491
|  9> N 6.6900 -1.5214 2.1378
| 10> C 5.3296 -1.5032 2.0532
| 11> C 4.4650 -2.3200 2.9712
| 12> F 5.1927 -3.3814 3.4782
| 13> F 3.3731 -2.8228 2.2877
| 14> F 4.0316 -1.5353 4.0225
| 15> N 4.8632 -0.6833 1.0658
| 16> C 3.5090 -0.3949 0.6815
| 17> C 2.5868 0.0803 1.6233
| 18> C 1.2729 0.3692 1.2440
| 19> C 0.8572 0.1909 -0.0895
| 20> C -0.5352 0.4930 -0.5122
| 21> O -0.7880 0.6518 -1.7385
| 22> C -1.6456 0.6697 0.4912
| 23> N -2.9530 0.4406 -0.1239
| 24> C -3.4560 -0.7986 -0.5921
| 25> O -2.7380 -1.8144 -0.7890
| 26> N -4.8623 -0.7897 -0.7872
| 27> C -5.3789 0.5251 -0.3900
| 28> C -6.0100 1.2335 -1.6057
| 29> C -7.2910 0.5281 -2.0921
| 30> C -8.1732 -0.0341 -0.9511
| 31> F -9.5051 0.2054 -1.2450
| 32> F -7.9974 -1.4054 -0.8581
| 33> C -7.8437 0.6044 0.4038
| 34> C -6.3727 0.3818 0.8003
| 35> C -4.1187 1.2418 0.0371
| 36> O -4.0875 2.4195 0.4861
| 37> C 1.7946 -0.2663 -1.0340
| 38> C 3.1077 -0.5538 -0.6516
| 39> C 5.9798 -0.1979 0.5065
| 40> N 6.0730 0.6844 -0.5199
| 41> H 8.1054 1.6438 -2.8505
| 42> H 6.4444 2.2645 -2.5136
| 43> H 7.8669 3.0105 -1.6857
| 44> H 9.4615 0.9025 -0.6163
| 45> H 9.2239 -0.7106 1.2862
| 46> H 2.8910 0.2515 2.6467
| 47> H 0.5946 0.7517 1.9948
| 48> H -1.5225 -0.0452 1.3324
| 49> H -1.5908 1.7026 0.8956
| 50> H -5.4260 -1.6011 -1.1246
| 51> H -5.2799 1.2821 -2.4440
| 52> H -6.2616 2.2811 -1.3267
| 53> H -7.8770 1.2575 -2.6932
| 54> H -7.0121 -0.2993 -2.7808
| 55> H -8.5043 0.1760 1.1886
| 56> H -8.0519 1.6961 0.3533
| 57> H -6.1328 1.1092 1.6070
| 58> H -6.2723 -0.6284 1.2554
| 59> H 1.5109 -0.4109 -2.0691
| 60> H 3.8109 -0.9133 -1.3922
| 61> *
| 62> 
| 63>                          ****END OF INPUT****
================================================================================

                       ****************************
                       * Single Point Calculation *
                       ****************************

---------------------------------
CARTESIAN COORDINATES (ANGSTROEM)
---------------------------------
  C      7.439400    2.058100   -2.064200
  C      7.314400    1.081700   -0.939100
  C      8.477400    0.585600   -0.294100
  C      8.353300   -0.321200    0.774700
  C      7.067400   -0.691300    1.149100
  N      6.690000   -1.521400    2.137800
  C      5.329600   -1.503200    2.053200
  C      4.465000   -2.320000    2.971200
  F      5.192700   -3.381400    3.478200
  F      3.373100   -2.822800    2.287700
  F      4.031600   -1.535300    4.022500
  N      4.863200   -0.683300    1.065800
  C      3.509000   -0.394900    0.681500
  C      2.586800    0.080300    1.623300
  C      1.272900    0.369200    1.244000
  C      0.857200    0.190900   -0.089500
  C     -0.535200    0.493000   -0.512200
  O     -0.788000    0.651800   -1.738500
  C     -1.645600    0.669700    0.491200
  N     -2.953000    0.440600   -0.123900
  C     -3.456000   -0.798600   -0.592100
  O     -2.738000   -1.814400   -0.789000
  N     -4.862300   -0.789700   -0.787200
  C     -5.378900    0.525100   -0.390000
  C     -6.010000    1.233500   -1.605700
  C     -7.291000    0.528100   -2.092100
  C     -8.173200   -0.034100   -0.951100
  F     -9.505100    0.205400   -1.245000
  F     -7.997400   -1.405400   -0.858100
  C     -7.843700    0.604400    0.403800
  C     -6.372700    0.381800    0.800300
  C     -4.118700    1.241800    0.037100
  O     -4.087500    2.419500    0.486100
  C      1.794600   -0.266300   -1.034000
  C      3.107700   -0.553800   -0.651600
  C      5.979800   -0.197900    0.506500
  N      6.073000    0.684400   -0.519900
  H      8.105400    1.643800   -2.850500
  H      6.444400    2.264500   -2.513600
  H      7.866900    3.010500   -1.685700
  H      9.461500    0.902500   -0.616300
  H      9.223900   -0.710600    1.286200
  H      2.891000    0.251500    2.646700
  H      0.594600    0.751700    1.994800
  H     -1.522500   -0.045200    1.332400
  H     -1.590800    1.702600    0.895600
  H     -5.426000   -1.601100   -1.124600
  H     -5.279900    1.282100   -2.444000
  H     -6.261600    2.281100   -1.326700
  H     -7.877000    1.257500   -2.693200
  H     -7.012100   -0.299300   -2.780800
  H     -8.504300    0.176000    1.188600
  H     -8.051900    1.696100    0.353300
  H     -6.132800    1.109200    1.607000
  H     -6.272300   -0.628400    1.255400
  H      1.510900   -0.410900   -2.069100
  H      3.810900   -0.913300   -1.392200

----------------------------
CARTESIAN COORDINATES (A.U.)
----------------------------
  NO LB      ZA    FRAG     MASS         X           Y           Z
   0 C     6.0000    0    12.011   14.058429    3.889245   -3.900773
   1 C     6.0000    0    12.011   13.822213    2.044117   -1.774642
   2 C     6.0000    0    12.011   16.019964    1.106624   -0.555768
   3 C     6.0000    0    12.011   15.785449   -0.606980    1.463971
   4 C     6.0000    0    12.011   13.355450   -1.306368    2.171484
   5 N     7.0000    0    14.007   12.642268   -2.875029    4.039857
   6 C     6.0000    0    12.011   10.071484   -2.840636    3.879986
   7 C     6.0000    0    12.011    8.437627   -4.384165    5.614754
   8 F     9.0000    0    18.998    9.812781   -6.389920    6.572845
   9 F     9.0000    0    18.998    6.374235   -5.334319    4.323126
  10 F     9.0000    0    18.998    7.618620   -2.901297    7.601423
  11 N     7.0000    0    14.007    9.190116   -1.291250    2.014070
  12 C     6.0000    0    12.011    6.631049   -0.746253    1.287848
  13 C     6.0000    0    12.011    4.888344    0.151745    3.067592
  14 C     6.0000    0    12.011    2.405432    0.697687    2.350819
  15 C     6.0000    0    12.011    1.619873    0.360749   -0.169130
  16 C     6.0000    0    12.011   -1.011381    0.931635   -0.967918
  17 O     8.0000    0    15.999   -1.489104    1.231723   -3.285289
  18 C     6.0000    0    12.011   -3.109733    1.265550    0.928233
  19 N     7.0000    0    14.007   -5.580361    0.832613   -0.234137
  20 C     6.0000    0    12.011   -6.530894   -1.509135   -1.118907
  21 O     8.0000    0    15.999   -5.174070   -3.428719   -1.490994
  22 N     7.0000    0    14.007   -9.188415   -1.492317   -1.487592
  23 C     6.0000    0    12.011  -10.164648    0.992295   -0.736993
  24 C     6.0000    0    12.011  -11.357254    2.330977   -3.034333
  25 C     6.0000    0    12.011  -13.777993    0.997964   -3.953496
  26 C     6.0000    0    12.011  -15.445110   -0.064440   -1.797319
  27 F     9.0000    0    18.998  -17.962036    0.388150   -2.352709
  28 F     9.0000    0    18.998  -15.112896   -2.655821   -1.621574
  29 C     6.0000    0    12.011  -14.822445    1.142150    0.763071
  30 C     6.0000    0    12.011  -12.042658    0.721497    1.512348
  31 C     6.0000    0    12.011   -7.783215    2.346662    0.070109
  32 O     8.0000    0    15.999   -7.724256    4.572192    0.918596
  33 C     6.0000    0    12.011    3.391303   -0.503234   -1.953977
  34 C     6.0000    0    12.011    5.872702   -1.046530   -1.231346
  35 C     6.0000    0    12.011   11.300184   -0.373977    0.957146
  36 N     7.0000    0    14.007   11.476307    1.293329   -0.982469
  37 H     1.0000    0     1.008   15.316986    3.106332   -5.386664
  38 H     1.0000    0     1.008   12.178151    4.279285   -4.750016
  39 H     1.0000    0     1.008   14.866287    5.689021   -3.185511
  40 H     1.0000    0     1.008   17.879644    1.705478   -1.164638
  41 H     1.0000    0     1.008   17.430645   -1.342839    2.430566
  42 H     1.0000    0     1.008    5.463198    0.475266    5.001538
  43 H     1.0000    0     1.008    1.123631    1.420507    3.769626
  44 H     1.0000    0     1.008   -2.877108   -0.085416    2.517871
  45 H     1.0000    0     1.008   -3.006176    3.217448    1.692439
  46 H     1.0000    0     1.008  -10.253654   -3.025641   -2.125186
  47 H     1.0000    0     1.008   -9.977565    2.422818   -4.618491
  48 H     1.0000    0     1.008  -11.832709    4.310654   -2.507100
  49 H     1.0000    0     1.008  -14.885373    2.376331   -5.089410
  50 H     1.0000    0     1.008  -13.250949   -0.565595   -5.254950
  51 H     1.0000    0     1.008  -16.070798    0.332592    2.246128
  52 H     1.0000    0     1.008  -15.215886    3.205164    0.667640
  53 H     1.0000    0     1.008  -11.589312    2.096084    3.036790
  54 H     1.0000    0     1.008  -11.852929   -1.187504    2.372362
  55 H     1.0000    0     1.008    2.855187   -0.776488   -3.910032
  56 H     1.0000    0     1.008    7.201557   -1.725887   -2.630877

--------------------------------
INTERNAL COORDINATES (ANGSTROEM)
--------------------------------
 C      0   0   0     0.000000000000     0.00000000     0.00000000
 C      1   0   0     1.494935440078     0.00000000     0.00000000
 C      2   1   0     1.419404526553   120.11691178     0.00000000
 C      3   2   1     1.407132008733   119.87640306   179.25304689
 C      4   3   2     1.389492058272   117.25366165     0.03986411
 N      5   4   3     1.344999799256   128.47223772   180.82419472
 C      6   5   4     1.363149500238   103.07152570   179.49639290
 C      7   6   5     1.502471097892   121.94556954   179.07987850
 F      8   7   6     1.383172530815   109.77804890   337.38193873
 F      8   7   6     1.382832491663   110.49048667   217.73442613
 F      8   7   6     1.381601006080   109.67421704    96.84879465
 N      7   6   5     1.365548874995   113.18810179   359.19474440
 C     12   7   6     1.436912902719   129.47802485   180.61076584
 C     13  12   7     1.401162060577   120.56957913    55.02595267
 C     14  13  12     1.397735636664   120.42358325   179.52742733
 C     15  14  13     1.408126283399   120.55214053   359.82428723
 C     16  15  14     1.486175447247   121.34542271   180.02329708
 O     17  16  15     1.262116068355   119.31337641   162.10119520
 C     17  16  15     1.506991244168   121.65462263   344.59359685
 N     19  17  16     1.462918172695   111.11150340   202.04573500
 C     20  19  17     1.416981608914   126.37933104    68.55304068
 O     21  20  19     1.259421791935   123.68653464   344.78261339
 N     21  20  19     1.419796784755   113.04959885   163.34859421
 C     23  21  20     1.467427149810   108.48882755   358.12380198
 C     24  23  21     1.542090872809   110.01603551   117.25088732
 C     25  24  23     1.541147338836   112.25411533    67.51738195
 C     26  25  24     1.547975025638   114.03568838    37.68363748
 F     27  26  25     1.384808676316   109.20115023   139.24166237
 F     27  26  25     1.385647260308   109.66923336   257.28839253
 C     27  26  25     1.533625283438   112.18154897    18.55344722
 C     30  27  26     1.539676592665   111.87518578   301.01913011
 C     20  19  17     1.423621765077   126.59064891   224.96929421
 O     32  20  19     1.260774258145   123.07381504    16.99348181
 C     16  15  14     1.407064621828   118.69517569   359.17121771
 C     34  16  15     1.397539845586   120.60590386     0.80635063
 C     12   7   6     1.339860145687   103.57498557     1.12130737
 N     36  12   7     1.356700589666   127.49210222   180.86642846
 H      1   2   3     1.110616126301   109.83621384    54.69331151
 H      1   2   3     1.111119399525   110.53908855   174.58528753
 H      1   2   3     1.110443271851   109.62371175   294.59246448
 H      3   2   1     1.082908703446   120.47168254   359.46078677
 H      4   3   2     1.082224084929   121.32718352   180.29138198
 H     14  13  12     1.081293040762   120.31165496     1.09094952
 H     15  14  13     1.081710580516   118.30639934   181.12417815
 H     19  17  16     1.110789385977   110.31073410   322.36767125
 H     19  17  16     1.110596600931   108.36931838    81.01781072
 H     23  21  20     1.044014564075   125.05337790   180.13628589
 H     25  24  23     1.112724071817   110.20991939   305.65894367
 H     25  24  23     1.112928263636   109.10498127   188.18076254
 H     26  25  24     1.112088831883   107.96134897   159.80265471
 H     26  25  24     1.112062794990   109.11972431   275.26536715
 H     30  27  26     1.111678892486   109.60761372   179.63535340
 H     30  27  26     1.112522530109   109.16146690    62.26150380
 H     31  30  27     1.112397258177   107.35280070   163.23881713
 H     31  30  27     1.112519757128   108.83500270   277.69084707
 H     34  16  15     1.082971310793   120.69352707   180.24843256
 H     35  34  16     1.082690560594   119.43193756   179.43240943

---------------------------
INTERNAL COORDINATES (A.U.)
---------------------------
 C      0   0   0     0.000000000000     0.00000000     0.00000000
 C      1   0   0     2.825018569640     0.00000000     0.00000000
 C      2   1   0     2.682285828434   120.11691178     0.00000000
 C      3   2   1     2.659094130779   119.87640306   179.25304689
 C      4   3   2     2.625759455392   117.25366165     0.03986411
 N      5   4   3     2.541681270774   128.47223772   180.82419472
 C      6   5   4     2.575979235042   103.07152570   179.49639290
 C      7   6   5     2.839258899147   121.94556954   179.07987850
 F      8   7   6     2.613817279202   109.77804890   337.38193873
 F      8   7   6     2.613174698332   110.49048667   217.73442613
 F      8   7   6     2.610847527840   109.67421704    96.84879465
 N      7   6   5     2.580513396225   113.18810179   359.19474440
 C     12   7   6     2.715371864437   129.47802485   180.61076584
 C     13  12   7     2.647812563731   120.56957913    55.02595267
 C     14  13  12     2.641337560917   120.42358325   179.52742733
 C     15  14  13     2.660973037601   120.55214053   359.82428723
 C     16  15  14     2.808464582255   121.34542271   180.02329708
 O     17  16  15     2.385053718412   119.31337641   162.10119520
 C     17  16  15     2.847800737695   121.65462263   344.59359685
 N     19  17  16     2.764514702729   111.11150340   202.04573500
 C     20  19  17     2.677707177650   126.37933104    68.55304068
 O     21  20  19     2.379962273849   123.68653464   344.78261339
 N     21  20  19     2.683027089008   113.04959885   163.34859421
 C     23  21  20     2.773035434622   108.48882755   358.12380198
 C     24  23  21     2.914129423228   110.01603551   117.25088732
 C     25  24  23     2.912346402421   112.25411533    67.51738195
 C     26  25  24     2.925248860606   114.03568838    37.68363748
 F     27  26  25     2.616909146115   109.20115023   139.24166237
 F     27  26  25     2.618493840201   109.66923336   257.28839253
 C     27  26  25     2.898131777755   112.18154897    18.55344722
 C     30  27  26     2.909567094946   111.87518578   301.01913011
 C     20  19  17     2.690255254284   126.59064891   224.96929421
 O     32  20  19     2.382518064591   123.07381504    16.99348181
 C     16  15  14     2.658966787984   118.69517569   359.17121771
 C     34  16  15     2.640967569400   120.60590386     0.80635063
 C     12   7   6     2.531968733104   103.57498557     1.12130737
 N     36  12   7     2.563792560198   127.49210222   180.86642846
 H      1   2   3     2.098760318626   109.83621384    54.69331151
 H      1   2   3     2.099711367189   110.53908855   174.58528753
 H      1   2   3     2.098433671055   109.62371175   294.59246448
 H      3   2   1     2.046400877553   120.47168254   359.46078677
 H      4   3   2     2.045107136049   121.32718352   180.29138198
 H     14  13  12     2.043347717555   120.31165496     1.09094952
 H     15  14  13     2.044136753340   118.30639934   181.12417815
 H     19  17  16     2.099087731964   110.31073410   322.36767125
 H     19  17  16     2.098723421024   108.36931838    81.01781072
 H     23  21  20     1.972901605926   125.05337790   180.13628589
 H     25  24  23     2.102743758355   110.20991939   305.65894367
 H     25  24  23     2.103129624973   109.10498127   188.18076254
 H     26  25  24     2.101543328852   107.96134897   159.80265471
 H     26  25  24     2.101494126253   109.11972431   275.26536715
 H     30  27  26     2.100768655660   109.60761372   179.63535340
 H     30  27  26     2.102362899723   109.16146690    62.26150380
 H     31  30  27     2.102126170080   107.35280070   163.23881713
 H     31  30  27     2.102357659548   108.83500270   277.69084707
 H     34  16  15     2.046519188292   120.69352707   180.24843256
 H     35  34  16     2.045988647305   119.43193756   179.43240943

---------------------
BASIS SET INFORMATION
---------------------
There are 5 groups of distinct atoms

 Group   1 Type C   : 10s4p1d contracted to 3s2p1d pattern {631/31/1}
 Group   2 Type N   : 10s4p1d contracted to 3s2p1d pattern {631/31/1}
 Group   3 Type F   : 10s4p1d contracted to 3s2p1d pattern {631/31/1}
 Group   4 Type O   : 10s4p1d contracted to 3s2p1d pattern {631/31/1}
 Group   5 Type H   : 4s contracted to 2s pattern {31}

Atom   0C    basis set group =>   1
Atom   1C    basis set group =>   1
Atom   2C    basis set group =>   1
Atom   3C    basis set group =>   1
Atom   4C    basis set group =>   1
Atom   5N    basis set group =>   2
Atom   6C    basis set group =>   1
Atom   7C    basis set group =>   1
Atom   8F    basis set group =>   3
Atom   9F    basis set group =>   3
Atom  10F    basis set group =>   3
Atom  11N    basis set group =>   2
Atom  12C    basis set group =>   1
Atom  13C    basis set group =>   1
Atom  14C    basis set group =>   1
Atom  15C    basis set group =>   1
Atom  16C    basis set group =>   1
Atom  17O    basis set group =>   4
Atom  18C    basis set group =>   1
Atom  19N    basis set group =>   2
Atom  20C    basis set group =>   1
Atom  21O    basis set group =>   4
Atom  22N    basis set group =>   2
Atom  23C    basis set group =>   1
Atom  24C    basis set group =>   1
Atom  25C    basis set group =>   1
Atom  26C    basis set group =>   1
Atom  27F    basis set group =>   3
Atom  28F    basis set group =>   3
Atom  29C    basis set group =>   1
Atom  30C    basis set group =>   1
Atom  31C    basis set group =>   1
Atom  32O    basis set group =>   4
Atom  33C    basis set group =>   1
Atom  34C    basis set group =>   1
Atom  35C    basis set group =>   1
Atom  36N    basis set group =>   2
Atom  37H    basis set group =>   5
Atom  38H    basis set group =>   5
Atom  39H    basis set group =>   5
Atom  40H    basis set group =>   5
Atom  41H    basis set group =>   5
Atom  42H    basis set group =>   5
Atom  43H    basis set group =>   5
Atom  44H    basis set group =>   5
Atom  45H    basis set group =>   5
Atom  46H    basis set group =>   5
Atom  47H    basis set group =>   5
Atom  48H    basis set group =>   5
Atom  49H    basis set group =>   5
Atom  50H    basis set group =>   5
Atom  51H    basis set group =>   5
Atom  52H    basis set group =>   5
Atom  53H    basis set group =>   5
Atom  54H    basis set group =>   5
Atom  55H    basis set group =>   5
Atom  56H    basis set group =>   5
---------------------------------
AUXILIARY/J BASIS SET INFORMATION
---------------------------------
There are 5 groups of distinct atoms

 Group   1 Type C   : 12s5p4d2f1g contracted to 6s4p3d1f1g pattern {711111/2111/211/2/1}
 Group   2 Type N   : 12s5p4d2f1g contracted to 6s4p3d1f1g pattern {711111/2111/211/2/1}
 Group   3 Type F   : 12s5p4d2f1g contracted to 6s4p3d1f1g pattern {711111/2111/211/2/1}
 Group   4 Type O   : 12s5p4d2f1g contracted to 6s4p3d1f1g pattern {711111/2111/211/2/1}
 Group   5 Type H   : 5s2p1d contracted to 3s1p1d pattern {311/2/1}

Atom   0C    basis set group =>   1
Atom   1C    basis set group =>   1
Atom   2C    basis set group =>   1
Atom   3C    basis set group =>   1
Atom   4C    basis set group =>   1
Atom   5N    basis set group =>   2
Atom   6C    basis set group =>   1
Atom   7C    basis set group =>   1
Atom   8F    basis set group =>   3
Atom   9F    basis set group =>   3
Atom  10F    basis set group =>   3
Atom  11N    basis set group =>   2
Atom  12C    basis set group =>   1
Atom  13C    basis set group =>   1
Atom  14C    basis set group =>   1
Atom  15C    basis set group =>   1
Atom  16C    basis set group =>   1
Atom  17O    basis set group =>   4
Atom  18C    basis set group =>   1
Atom  19N    basis set group =>   2
Atom  20C    basis set group =>   1
Atom  21O    basis set group =>   4
Atom  22N    basis set group =>   2
Atom  23C    basis set group =>   1
Atom  24C    basis set group =>   1
Atom  25C    basis set group =>   1
Atom  26C    basis set group =>   1
Atom  27F    basis set group =>   3
Atom  28F    basis set group =>   3
Atom  29C    basis set group =>   1
Atom  30C    basis set group =>   1
Atom  31C    basis set group =>   1
Atom  32O    basis set group =>   4
Atom  33C    basis set group =>   1
Atom  34C    basis set group =>   1
Atom  35C    basis set group =>   1
Atom  36N    basis set group =>   2
Atom  37H    basis set group =>   5
Atom  38H    basis set group =>   5
Atom  39H    basis set group =>   5
Atom  40H    basis set group =>   5
Atom  41H    basis set group =>   5
Atom  42H    basis set group =>   5
Atom  43H    basis set group =>   5
Atom  44H    basis set group =>   5
Atom  45H    basis set group =>   5
Atom  46H    basis set group =>   5
Atom  47H    basis set group =>   5
Atom  48H    basis set group =>   5
Atom  49H    basis set group =>   5
Atom  50H    basis set group =>   5
Atom  51H    basis set group =>   5
Atom  52H    basis set group =>   5
Atom  53H    basis set group =>   5
Atom  54H    basis set group =>   5
Atom  55H    basis set group =>   5
Atom  56H    basis set group =>   5
------------------------------------------------------------------------------
                             ORCA STARTUP CALCULATIONS
                           -- RI-GTO INTEGRALS CHOSEN --
------------------------------------------------------------------------------
------------------------------------------------------------------------------
                   ___                                                        
                  /   \      - P O W E R E D   B Y -                         
                 /     \                                                     
                 |  |  |   _    _      __       _____    __    __             
                 |  |  |  | |  | |    /  \     |  _  \  |  |  /  |          
                  \  \/   | |  | |   /    \    | | | |  |  | /  /          
                 / \  \   | |__| |  /  /\  \   | |_| |  |  |/  /          
                |  |  |   |  __  | /  /__\  \  |    /   |      \           
                |  |  |   | |  | | |   __   |  |    \   |  |\   \          
                \     /   | |  | | |  |  |  |  | |\  \  |  | \   \       
                 \___/    |_|  |_| |__|  |__|  |_| \__\ |__|  \__/        
                                                                              
                      - O R C A' S   B I G   F R I E N D -                    
                                      &                                       
                       - I N T E G R A L  F E E D E R -                       
                                                                              
 v1 FN, 2020, v2 2021, v3 2022-2024                                           
------------------------------------------------------------------------------


----------------------
SHARK INTEGRAL PACKAGE
----------------------

Number of atoms                             ...     57
Number of basis functions                   ...    558
Number of shells                            ...    262
Maximum angular momentum                    ...      2
Integral batch strategy                     ... SHARK/LIBINT Hybrid
RI-J (if used) integral strategy            ... SPLIT-RIJ (Revised 2003 algorithm where possible)
Printlevel                                  ...      1
Contraction scheme used                     ... SEGMENTED contraction
Prescreening option                         ... SCHWARTZ
   Thresh                                   ... 1.000e-10
   Tcut                                     ... 1.000e-11
   Tpresel                                  ... 1.000e-11 
Coulomb Range Separation                    ... NOT USED
Exchange Range Separation                   ... NOT USED
Multipole approximations                    ... NOT USED
Finite Nucleus Model                        ... NOT USED
CABS basis                                  ... NOT available
Auxiliary Coulomb fitting basis             ... AVAILABLE
   # of basis functions in Aux-J            ...   2033
   # of shells in Aux-J                     ...    655
   Maximum angular momentum in Aux-J        ...      4
Auxiliary J/K fitting basis                 ... NOT available
Auxiliary Correlation fitting basis         ... NOT available
Auxiliary 'external' fitting basis          ... NOT available

Checking pre-screening integrals            ... done (  0.0 sec) Dimension = 262
Check shell pair data                       ... done (  0.0 sec)
Shell pair information
Shell pair cut-off parameter TPreSel        ...   1.0e-11
Total number of shell pairs                 ...     34453
Shell pairs after pre-screening             ...     15803
Total number of primitive shell pairs       ...    202767
Primitive shell pairs kept                  ...     49673
          la=0 lb=0:   4903 shell pairs
          la=1 lb=0:   5514 shell pairs
          la=1 lb=1:   1564 shell pairs
          la=2 lb=0:   2239 shell pairs
          la=2 lb=1:   1309 shell pairs
          la=2 lb=2:    274 shell pairs

Calculating one electron integrals          ... done (  0.2 sec)
Calculating RI/J V-Matrix + Cholesky decomp.... done (  0.4 sec)
Calculating Nuclear repulsion               ... done (  0.0 sec) ENN=   3857.990954806070 Eh

Diagonalization of the overlap matrix:
Smallest eigenvalue                        ... 4.244e-04
Time for diagonalization                   ...    0.048 sec
Threshold for overlap eigenvalues          ... 1.000e-07
Number of eigenvalues below threshold      ... 0
Time for construction of square roots      ...    0.192 sec
Total time needed                          ...    0.260 sec

-------------------
DFT GRID GENERATION
-------------------

General Integration Accuracy     IntAcc      ... 4.388
Radial Grid Type                 RadialGrid  ... OptM3 with GC (2021)
Angular Grid (max. ang.)         AngularGrid ... 4 (Lebedev-302)
Angular grid pruning method      GridPruning ... 4 (adaptive)
Weight generation scheme         WeightScheme... mBecke (2022)
Basis function cutoff            BFCut       ... 1.0000e-10
Integration weight cutoff        WCut        ... 1.0000e-14
Partially contracted basis set               ... off
Rotationally invariant grid construction     ... off
Angular grids for H and He will be reduced by one unit

Total number of grid points                  ...   284999
Total number of batches                      ...     4480
Average number of points per batch           ...       63
Average number of grid points per atom       ...     5000

--------------------
COSX GRID GENERATION
--------------------

GRIDX 1
-------
General Integration Accuracy     IntAcc      ... 3.816
Radial Grid Type                 RadialGrid  ... OptM3 with GC (2021)
Angular Grid (max. ang.)         AngularGrid ... 1 (Lebedev-50)
Angular grid pruning method      GridPruning ... 4 (adaptive)
Weight generation scheme         WeightScheme... mBecke (2022)
Basis function cutoff            BFCut       ... 1.0000e-10
Integration weight cutoff        WCut        ... 1.0000e-14
Partially contracted basis set               ... on
Rotationally invariant grid construction     ... off
Angular grids for H and He will be reduced by one unit

Total number of grid points                  ...    36042
Total number of batches                      ...      315
Average number of points per batch           ...      114
Average number of grid points per atom       ...      632
UseSFitting                                  ... on

GRIDX 2
-------
General Integration Accuracy     IntAcc      ... 4.020
Radial Grid Type                 RadialGrid  ... OptM3 with GC (2021)
Angular Grid (max. ang.)         AngularGrid ... 2 (Lebedev-110)
Angular grid pruning method      GridPruning ... 4 (adaptive)
Weight generation scheme         WeightScheme... mBecke (2022)
Basis function cutoff            BFCut       ... 1.0000e-10
Integration weight cutoff        WCut        ... 1.0000e-14
Partially contracted basis set               ... on
Rotationally invariant grid construction     ... off
Angular grids for H and He will be reduced by one unit

Total number of grid points                  ...    79680
Total number of batches                      ...      654
Average number of points per batch           ...      121
Average number of grid points per atom       ...     1398
UseSFitting                                  ... on

GRIDX 3
-------
General Integration Accuracy     IntAcc      ... 4.338
Radial Grid Type                 RadialGrid  ... OptM3 with GC (2021)
Angular Grid (max. ang.)         AngularGrid ... 3 (Lebedev-194)
Angular grid pruning method      GridPruning ... 4 (adaptive)
Weight generation scheme         WeightScheme... mBecke (2022)
Basis function cutoff            BFCut       ... 1.0000e-10
Integration weight cutoff        WCut        ... 1.0000e-14
Partially contracted basis set               ... on
Rotationally invariant grid construction     ... off
Angular grids for H and He will be reduced by one unit

Total number of grid points                  ...   174599
Total number of batches                      ...     1394
Average number of points per batch           ...      125
Average number of grid points per atom       ...     3063
UseSFitting                                  ... on
Initializing property integral containers    ... done (  0.0 sec)

SHARK setup successfully completed in  11.0 seconds

Maximum memory used throughout the entire STARTUP-calculation: 121.3 MB
-------------------------------------------------------------------------------
                                 ORCA GUESS
                   Start orbitals & Density for SCF / CASSCF
-------------------------------------------------------------------------------

------------
SCF SETTINGS
------------
Hamiltonian:
 Density Functional     Method          .... DFT(GTOs)
 Exchange Functional    Exchange        .... B88
   X-Alpha parameter    XAlpha          ....  0.666667
   Becke's b parameter  XBeta           ....  0.004200
 Correlation Functional Correlation     .... LYP
 LDA part of GGA corr.  LDAOpt          .... VWN-5
 Gradients option       PostSCFGGA      .... off
 Hybrid DFT is turned on
   Fraction HF Exchange ScalHFX         ....  0.200000
   Scaling of DF-GGA-X  ScalDFX         ....  0.720000
   Scaling of DF-GGA-C  ScalDFC         ....  0.810000
   Scaling of DF-LDA-C  ScalLDAC        ....  1.000000
   Perturbative correction              ....  0.000000
   NL short-range parameter             ....  4.800000
 RI-approximation to the Coulomb term is turned on
   Number of AuxJ basis functions       .... 2033
   RIJ-COSX (HFX calculated with COS-X)).... on


General Settings:
 Integral files         IntName         .... /home/nmrbox/aojoawo/Documents/ERDOS/inputs/CHEMBL5266721
 Hartree-Fock type      HFTyp           .... RHF
 Total Charge           Charge          ....    0
 Multiplicity           Mult            ....    1
 Number of Electrons    NEL             ....  268
 Basis Dimension        Dim             ....  558
 Nuclear Repulsion      ENuc            ....   3857.9909548061 Eh

Convergence Acceleration:
 AO-DIIS                CNVDIIS         .... on
   Start iteration      DIISMaxIt       ....    12
   Startup error        DIISStart       ....  0.200000
   # of expansion vecs  DIISMaxEq       ....     5
   Bias factor          DIISBfac        ....   1.050
   Max. coefficient     DIISMaxC        ....  10.000
 MO-DIIS                CNVKDIIS        .... off
 Trust-Rad. Augm. Hess. CNVTRAH         .... auto
   Auto Start mean grad. ratio tolernc. ....  1.125000
   Auto Start start iteration           ....    50
   Auto Start num. interpolation iter.  ....    10
   Max. Number of Micro iterations      ....    24
   Max. Number of Macro iterations      .... Maxiter - #DIIS iter
   Number of Davidson start vectors     ....     2
   Converg. threshold    (grad. norm)   ....   5.000e-05
   Grad. Scal. Fac. for Micro threshold ....   0.100
   Minimum threshold for Micro iter.    ....   1.000e-02
   NR start threshold (gradient norm)   ....   1.000e-04
   Initial trust radius                 ....   0.400
   Minimum AH scaling param. (alpha)    ....   1.000
   Maximum AH scaling param. (alpha)    .... 1000.000
   Quad. conv. algorithm                .... NR
   White noise on init. David. guess    .... on
   Maximum white noise                  ....   0.010
   Pseudo random numbers                .... off
   Inactive MOs                         .... canonical
   Orbital update algorithm             .... Taylor
   Preconditioner                       .... Diag
   Full preconditioner red. dimension   ....   250
 SOSCF                  CNVSOSCF        .... on
   Start iteration      SOSCFMaxIt      ....   150
   Startup grad/error   SOSCFStart      ....  0.003300
   Hessian update       SOSCFHessUp     .... L-BFGS
 Level Shifting         CNVShift        .... on
   Level shift para.    LevelShift      ....    0.2500
   Turn off err/grad.   ShiftErr        ....    0.0010
 Zerner damping         CNVZerner       .... off
 Static damping         CNVDamp         .... on
   Fraction old density DampFac         ....    0.7000
   Max. Damping (<1)    DampMax         ....    0.9800
   Min. Damping (>=0)   DampMin         ....    0.0000
   Turn off err/grad.   DampErr         ....    0.1000

SCF Procedure:
 Maximum # iterations   MaxIter         ....   125
 SCF integral mode      SCFMode         .... Direct
   Integral package                     .... SHARK and LIBINT hybrid scheme
 Reset frequency        DirectResetFreq ....    20
 Integral Threshold     Thresh          ....  1.000e-10 Eh
 Primitive CutOff       TCut            ....  1.000e-11 Eh

Convergence Tolerance:
 Convergence Check Mode ConvCheckMode   .... Total+1el-Energy
 Convergence forced     ConvForced      .... 0
 Energy Change          TolE            ....  1.000e-06 Eh
 1-El. energy change                    ....  1.000e-03 Eh
 Orbital Gradient       TolG            ....  5.000e-05
 Orbital Rotation angle TolX            ....  5.000e-05
 DIIS Error             TolErr          ....  1.000e-06

------------------------------
INITIAL GUESS: MODEL POTENTIAL
------------------------------
Loading Hartree-Fock densities                     ... done
Calculating cut-offs                               ... done
Initializing the effective Hamiltonian             ... done
Setting up the integral package (SHARK)            ... done
Starting the Coulomb interaction                   ... done (   2.4 sec)
Making the grid                                    ... done (   1.4 sec)
Mapping shells                                     ... done
Starting the XC term evaluation                    ... done (   1.0 sec)
  promolecular density results
     # of electrons  =    267.992203124
     EX              =   -237.054878052
     EC              =     -9.414174743
     EX+EC           =   -246.469052795
Transforming the Hamiltonian                       ... done (   0.0 sec)
Diagonalizing the Hamiltonian                      ... done (   0.0 sec)
Back transforming the eigenvectors                 ... done (   0.0 sec)
Now organizing SCF variables                       ... done
                      ------------------
                      INITIAL GUESS DONE (   4.9 sec)
                      ------------------
             **** ENERGY FILE WAS UPDATED (/home/nmrbox/aojoawo/Documents/ERDOS/inputs/CHEMBL5266721.en.tmp) ****
Finished Guess after   5.2 sec
Maximum memory used throughout the entire GUESS-calculation: 65.5 MB

-------------------------------------------------------------------------------------------
                                      ORCA LEAN-SCF
                              memory conserving SCF solver
-------------------------------------------------------------------------------------------

----------------------------------------D-I-I-S--------------------------------------------
Iteration    Energy (Eh)           Delta-E    RMSDP     MaxDP     DIISErr   Damp  Time(sec)
-------------------------------------------------------------------------------------------
               ***  Starting incremental Fock matrix formation  ***
    1    -1923.2938296514812464     0.00e+00  2.17e-03  1.15e-01  2.90e-01  0.700  54.5
    2    -1923.7467486520245075    -4.53e-01  1.33e-03  6.27e-02  1.03e-01  0.700  22.9
                               ***Turning on AO-DIIS***
    3    -1923.8976279074677223    -1.51e-01  5.32e-04  1.81e-02  3.68e-02  0.700  21.8
    4    -1923.9980771548034681    -1.00e-01  8.65e-04  2.73e-02  1.78e-02  0.000  19.9
    5    -1924.2260905059911238    -2.28e-01  2.22e-04  7.78e-03  8.22e-03  0.000  21.4
    6    -1924.2277804316490801    -1.69e-03  7.70e-05  3.24e-03  3.81e-03  0.000  18.6
                              *** Initializing SOSCF ***
---------------------------------------S-O-S-C-F--------------------------------------
Iteration    Energy (Eh)           Delta-E    RMSDP     MaxDP     MaxGrad    Time(sec)
--------------------------------------------------------------------------------------
    7    -1924.2279159871704906    -1.36e-04  2.46e-05  1.13e-03  2.25e-03    16.4
               *** Restarting incremental Fock matrix formation ***
    8    -1924.2279793869784044    -6.34e-05  2.11e-05  9.35e-04  1.62e-04    54.8
    9    -1924.2279771307876217     2.26e-06  1.08e-05  6.63e-04  4.10e-04    26.4
   10    -1924.2279833254115147    -6.19e-06  5.90e-06  3.17e-04  6.89e-05    23.4
   11    -1924.2279827793863660     5.46e-07  3.52e-06  1.95e-04  1.02e-04    20.6
                 **** Energy Check signals convergence ****

               *****************************************************
               *                     SUCCESS                       *
               *           SCF CONVERGED AFTER  11 CYCLES          *
               *****************************************************

Recomputing exchange energy using gridx3       ... done (   79.840 sec)
Old exchange energy                            :    -47.915038034 Eh
New exchange energy                            :    -47.915042879 Eh
Exchange energy change after final integration :     -0.000004845 Eh
Total energy after final integration           :  -1924.227987625 Eh
             **** ENERGY FILE WAS UPDATED (/home/nmrbox/aojoawo/Documents/ERDOS/inputs/CHEMBL5266721.en.tmp) ****

----------------
TOTAL SCF ENERGY
----------------

Total Energy       :      -1924.22798762458092 Eh          -52360.90552 eV

Components:
Nuclear Repulsion  :       3857.99095480606957 Eh          104981.27102 eV
Electronic Energy  :      -5782.21893758545593 Eh         -157342.17641 eV
One Electron Energy:     -10312.38646981922466 Eh         -280614.30200 eV
Two Electron Energy:       4530.16753223376872 Eh          123272.12559 eV

Virial components:
Potential Energy   :      -3836.63361407455204 Eh         -104400.10824 eV
Kinetic Energy     :       1912.40562644997112 Eh           52039.20272 eV
Virial Ratio       :          2.00618193180939

DFT components:
N(Alpha)           :      134.000139130416 electrons
N(Beta)            :      134.000139130416 electrons
N(Total)           :      268.000278260833 electrons
E(X)               :     -190.533388719102 Eh       
E(C)               :      -11.048403360670 Eh       
E(XC)              :     -201.581792079772 Eh       

---------------
SCF CONVERGENCE
---------------

  Last Energy change         ...   -5.4603e-07  Tolerance :   1.0000e-06
  Last MAX-Density change    ...    1.9463e-04  Tolerance :   1.0000e-05
  Last RMS-Density change    ...    3.5205e-06  Tolerance :   1.0000e-06
  Last DIIS Error            ...    2.2468e-03  Tolerance :   1.0000e-06
  Last Orbital Gradient      ...    1.0232e-04  Tolerance :   5.0000e-05
  Last Orbital Rotation      ...    2.0514e-04  Tolerance :   5.0000e-05


----------------
ORBITAL ENERGIES
----------------

  NO   OCC          E(Eh)            E(eV) 
   0   2.0000     -24.732241      -672.9985 
   1   2.0000     -24.731799      -672.9865 
   2   2.0000     -24.723880      -672.7710 
   3   2.0000     -24.704656      -672.2479 
   4   2.0000     -24.694192      -671.9631 
   5   2.0000     -19.141992      -520.8801 
   6   2.0000     -19.141929      -520.8784 
   7   2.0000     -19.113496      -520.1047 
   8   2.0000     -14.422664      -392.4607 
   9   2.0000     -14.400360      -391.8537 
  10   2.0000     -14.367268      -390.9532 
  11   2.0000     -14.338309      -390.1652 
  12   2.0000     -14.333414      -390.0320 
  13   2.0000     -10.452240      -284.4199 
  14   2.0000     -10.352646      -281.7098 
  15   2.0000     -10.327308      -281.0203 
  16   2.0000     -10.314564      -280.6736 
  17   2.0000     -10.287621      -279.9404 
  18   2.0000     -10.277715      -279.6709 
  19   2.0000     -10.261818      -279.2383 
  20   2.0000     -10.261816      -279.2382 
  21   2.0000     -10.255700      -279.0718 
  22   2.0000     -10.252641      -278.9886 
  23   2.0000     -10.237393      -278.5736 
  24   2.0000     -10.217435      -278.0305 
  25   2.0000     -10.216578      -278.0072 
  26   2.0000     -10.213531      -277.9243 
  27   2.0000     -10.210334      -277.8373 
  28   2.0000     -10.210253      -277.8351 
  29   2.0000     -10.208773      -277.7948 
  30   2.0000     -10.208136      -277.7775 
  31   2.0000     -10.206785      -277.7407 
  32   2.0000     -10.205816      -277.7144 
  33   2.0000     -10.205135      -277.6958 
  34   2.0000     -10.205034      -277.6931 
  35   2.0000     -10.195280      -277.4277 
  36   2.0000     -10.184608      -277.1373 
  37   2.0000      -1.290669       -35.1209 
  38   2.0000      -1.239524       -33.7292 
  39   2.0000      -1.218469       -33.1562 
  40   2.0000      -1.210888       -32.9499 
  41   2.0000      -1.185787       -32.2669 
  42   2.0000      -1.065887       -29.0043 
  43   2.0000      -1.059169       -28.8215 
  44   2.0000      -1.025320       -27.9004 
  45   2.0000      -1.019544       -27.7432 
  46   2.0000      -0.956779       -26.0353 
  47   2.0000      -0.932600       -25.3773 
  48   2.0000      -0.929636       -25.2967 
  49   2.0000      -0.924032       -25.1442 
  50   2.0000      -0.874183       -23.7877 
  51   2.0000      -0.839469       -22.8431 
  52   2.0000      -0.801530       -21.8108 
  53   2.0000      -0.800170       -21.7737 
  54   2.0000      -0.788348       -21.4520 
  55   2.0000      -0.774537       -21.0762 
  56   2.0000      -0.771635       -20.9973 
  57   2.0000      -0.765939       -20.8422 
  58   2.0000      -0.754596       -20.5336 
  59   2.0000      -0.749077       -20.3834 
  60   2.0000      -0.691984       -18.8298 
  61   2.0000      -0.681968       -18.5573 
  62   2.0000      -0.660872       -17.9833 
  63   2.0000      -0.655773       -17.8445 
  64   2.0000      -0.652492       -17.7552 
  65   2.0000      -0.633352       -17.2344 
  66   2.0000      -0.629330       -17.1249 
  67   2.0000      -0.617026       -16.7901 
  68   2.0000      -0.613115       -16.6837 
  69   2.0000      -0.601072       -16.3560 
  70   2.0000      -0.583691       -15.8830 
  71   2.0000      -0.577468       -15.7137 
  72   2.0000      -0.573430       -15.6038 
  73   2.0000      -0.572316       -15.5735 
  74   2.0000      -0.568224       -15.4622 
  75   2.0000      -0.545174       -14.8349 
  76   2.0000      -0.540695       -14.7131 
  77   2.0000      -0.530868       -14.4457 
  78   2.0000      -0.523974       -14.2580 
  79   2.0000      -0.517919       -14.0933 
  80   2.0000      -0.510877       -13.9017 
  81   2.0000      -0.506878       -13.7929 
  82   2.0000      -0.503409       -13.6985 
  83   2.0000      -0.492863       -13.4115 
  84   2.0000      -0.487868       -13.2756 
  85   2.0000      -0.473877       -12.8949 
  86   2.0000      -0.470838       -12.8122 
  87   2.0000      -0.468791       -12.7565 
  88   2.0000      -0.464269       -12.6334 
  89   2.0000      -0.458503       -12.4765 
  90   2.0000      -0.457148       -12.4396 
  91   2.0000      -0.455594       -12.3974 
  92   2.0000      -0.449798       -12.2396 
  93   2.0000      -0.447066       -12.1653 
  94   2.0000      -0.443589       -12.0707 
  95   2.0000      -0.441964       -12.0265 
  96   2.0000      -0.432769       -11.7762 
  97   2.0000      -0.430812       -11.7230 
  98   2.0000      -0.426528       -11.6064 
  99   2.0000      -0.425525       -11.5791 
 100   2.0000      -0.422093       -11.4857 
 101   2.0000      -0.416943       -11.3456 
 102   2.0000      -0.413234       -11.2447 
 103   2.0000      -0.411447       -11.1960 
 104   2.0000      -0.407019       -11.0756 
 105   2.0000      -0.403484       -10.9794 
 106   2.0000      -0.401019       -10.9123 
 107   2.0000      -0.398772       -10.8511 
 108   2.0000      -0.395382       -10.7589 
 109   2.0000      -0.393709       -10.7134 
 110   2.0000      -0.390802       -10.6343 
 111   2.0000      -0.388859       -10.5814 
 112   2.0000      -0.384638       -10.4665 
 113   2.0000      -0.378576       -10.3016 
 114   2.0000      -0.378087       -10.2883 
 115   2.0000      -0.372718       -10.1422 
 116   2.0000      -0.364463        -9.9175 
 117   2.0000      -0.359116        -9.7720 
 118   2.0000      -0.357321        -9.7232 
 119   2.0000      -0.352588        -9.5944 
 120   2.0000      -0.350332        -9.5330 
 121   2.0000      -0.333024        -9.0620 
 122   2.0000      -0.321438        -8.7468 
 123   2.0000      -0.310943        -8.4612 
 124   2.0000      -0.284019        -7.7285 
 125   2.0000      -0.278545        -7.5796 
 126   2.0000      -0.277336        -7.5467 
 127   2.0000      -0.273656        -7.4465 
 128   2.0000      -0.261422        -7.1136 
 129   2.0000      -0.257651        -7.0110 
 130   2.0000      -0.254404        -6.9227 
 131   2.0000      -0.254049        -6.9130 
 132   2.0000      -0.250001        -6.8029 
 133   2.0000      -0.241794        -6.5795 
 134   0.0000      -0.077301        -2.1035 
 135   0.0000      -0.052099        -1.4177 
 136   0.0000      -0.027200        -0.7402 
 137   0.0000      -0.024478        -0.6661 
 138   0.0000      -0.005383        -0.1465 
 139   0.0000       0.014810         0.4030 
 140   0.0000       0.025964         0.7065 
 141   0.0000       0.033351         0.9075 
 142   0.0000       0.055654         1.5144 
 143   0.0000       0.073229         1.9927 
 144   0.0000       0.078258         2.1295 
*Only the first 10 virtual orbitals were printed.

                    ********************************
                    * MULLIKEN POPULATION ANALYSIS *
                    ********************************

-----------------------
MULLIKEN ATOMIC CHARGES
-----------------------
   0 C :   -0.518586
   1 C :    0.269257
   2 C :   -0.186773
   3 C :   -0.133828
   4 C :    0.214507
   5 N :   -0.436272
   6 C :    0.228000
   7 C :    0.942009
   8 F :   -0.286661
   9 F :   -0.295693
  10 F :   -0.294528
  11 N :   -0.514048
  12 C :    0.262020
  13 C :   -0.147528
  14 C :   -0.189972
  15 C :    0.099908
  16 C :    0.374050
  17 O :   -0.424200
  18 C :   -0.231598
  19 N :   -0.440494
  20 C :    0.701257
  21 O :   -0.491622
  22 N :   -0.651277
  23 C :    0.160919
  24 C :   -0.271767
  25 C :   -0.375695
  26 C :    0.734023
  27 F :   -0.339002
  28 F :   -0.338904
  29 C :   -0.359874
  30 C :   -0.301504
  31 C :    0.512419
  32 O :   -0.475715
  33 C :   -0.159621
  34 C :   -0.121112
  35 C :    0.381172
  36 N :   -0.465687
  37 H :    0.163719
  38 H :    0.176664
  39 H :    0.168351
  40 H :    0.134713
  41 H :    0.156262
  42 H :    0.159568
  43 H :    0.146947
  44 H :    0.189674
  45 H :    0.219762
  46 H :    0.356772
  47 H :    0.168994
  48 H :    0.167668
  49 H :    0.174817
  50 H :    0.166773
  51 H :    0.168821
  52 H :    0.164470
  53 H :    0.176586
  54 H :    0.169389
  55 H :    0.177428
  56 H :    0.165040
Sum of atomic charges:   -0.0000000

--------------------------------
MULLIKEN REDUCED ORBITAL CHARGES
--------------------------------
  0 C s       :     3.316212  s :     3.316212
      pz      :     1.022370  p :     3.168870
      px      :     1.110773
      py      :     1.035727
      dz2     :     0.004596  d :     0.033504
      dxz     :     0.008235
      dyz     :     0.008775
      dx2y2   :     0.006847
      dxy     :     0.005051

  1 C s       :     3.086026  s :     3.086026
      pz      :     0.878231  p :     2.586419
      px      :     0.821719
      py      :     0.886469
      dz2     :     0.009787  d :     0.058298
      dxz     :     0.015044
      dyz     :     0.006637
      dx2y2   :     0.013698
      dxy     :     0.013133

  2 C s       :     3.220716  s :     3.220716
      pz      :     0.977351  p :     2.932140
      px      :     0.958727
      py      :     0.996061
      dz2     :     0.006428  d :     0.033917
      dxz     :     0.008104
      dyz     :     0.004854
      dx2y2   :     0.007820
      dxy     :     0.006711

  3 C s       :     3.198702  s :     3.198702
      pz      :     0.946398  p :     2.899043
      px      :     1.003746
      py      :     0.948899
      dz2     :     0.006293  d :     0.036083
      dxz     :     0.009752
      dyz     :     0.004450
      dx2y2   :     0.007772
      dxy     :     0.007816

  4 C s       :     3.048408  s :     3.048408
      pz      :     0.894762  p :     2.674309
      px      :     0.846596
      py      :     0.932952
      dz2     :     0.012400  d :     0.062776
      dxz     :     0.016382
      dyz     :     0.008693
      dx2y2   :     0.011787
      dxy     :     0.013514

  5 N s       :     3.727357  s :     3.727357
      pz      :     1.297372  p :     3.665787
      px      :     1.112757
      py      :     1.255658
      dz2     :     0.009264  d :     0.043128
      dxz     :     0.007733
      dyz     :     0.008347
      dx2y2   :     0.010520
      dxy     :     0.007263

  6 C s       :     3.039394  s :     3.039394
      pz      :     0.888276  p :     2.660253
      px      :     0.835847
      py      :     0.936131
      dz2     :     0.011942  d :     0.072353
      dxz     :     0.020317
      dyz     :     0.009468
      dx2y2   :     0.012591
      dxy     :     0.018035

  7 C s       :     2.778496  s :     2.778496
      pz      :     0.731429  p :     2.139435
      px      :     0.697868
      py      :     0.710138
      dz2     :     0.022113  d :     0.140060
      dxz     :     0.031423
      dyz     :     0.032613
      dx2y2   :     0.022415
      dxy     :     0.031495

  8 F s       :     3.984466  s :     3.984466
      pz      :     1.846816  p :     5.285394
      px      :     1.790198
      py      :     1.648379
      dz2     :     0.002179  d :     0.016801
      dxz     :     0.002105
      dyz     :     0.003699
      dx2y2   :     0.003494
      dxy     :     0.005323

  9 F s       :     3.983974  s :     3.983974
      pz      :     1.803415  p :     5.294988
      px      :     1.644279
      py      :     1.847294
      dz2     :     0.002129  d :     0.016730
      dxz     :     0.005111
      dyz     :     0.001979
      dx2y2   :     0.003514
      dxy     :     0.003998

 10 F s       :     3.981951  s :     3.981951
      pz      :     1.662508  p :     5.296174
      px      :     1.863593
      py      :     1.770072
      dz2     :     0.003852  d :     0.016403
      dxz     :     0.003408
      dyz     :     0.005571
      dx2y2   :     0.001679
      dxy     :     0.001892

 11 N s       :     3.618439  s :     3.618439
      pz      :     1.319642  p :     3.849090
      px      :     1.148888
      py      :     1.380561
      dz2     :     0.009896  d :     0.046519
      dxz     :     0.010625
      dyz     :     0.004790
      dx2y2   :     0.010620
      dxy     :     0.010589

 12 C s       :     3.071403  s :     3.071403
      pz      :     0.888931  p :     2.612504
      px      :     0.744260
      py      :     0.979314
      dz2     :     0.012740  d :     0.054072
      dxz     :     0.015864
      dyz     :     0.007055
      dx2y2   :     0.009509
      dxy     :     0.008905

 13 C s       :     3.190089  s :     3.190089
      pz      :     0.982132  p :     2.922291
      px      :     0.957012
      py      :     0.983147
      dz2     :     0.009535  d :     0.035147
      dxz     :     0.010916
      dyz     :     0.003378
      dx2y2   :     0.005365
      dxy     :     0.005952

 14 C s       :     3.211396  s :     3.211396
      pz      :     0.973840  p :     2.942524
      px      :     0.979403
      py      :     0.989281
      dz2     :     0.007988  d :     0.036051
      dxz     :     0.012793
      dyz     :     0.005616
      dx2y2   :     0.004348
      dxy     :     0.005306

 15 C s       :     3.152602  s :     3.152602
      pz      :     0.849294  p :     2.709340
      px      :     0.880096
      py      :     0.979950
      dz2     :     0.010505  d :     0.038151
      dxz     :     0.011248
      dyz     :     0.006313
      dx2y2   :     0.005858
      dxy     :     0.004227

 16 C s       :     3.122600  s :     3.122600
      pz      :     0.773051  p :     2.421754
      px      :     0.869410
      py      :     0.779293
      dz2     :     0.022051  d :     0.081596
      dxz     :     0.033396
      dyz     :     0.014376
      dx2y2   :     0.006066
      dxy     :     0.005707

 17 O s       :     3.901293  s :     3.901293
      pz      :     1.370317  p :     4.496730
      px      :     1.796298
      py      :     1.330115
      dz2     :     0.009450  d :     0.026177
      dxz     :     0.006382
      dyz     :     0.009192
      dx2y2   :     0.000602
      dxy     :     0.000551

 18 C s       :     3.229973  s :     3.229973
      pz      :     1.030805  p :     2.950621
      px      :     0.807609
      py      :     1.112206
      dz2     :     0.006933  d :     0.051004
      dxz     :     0.014857
      dyz     :     0.009717
      dx2y2   :     0.014457
      dxy     :     0.005040

 19 N s       :     3.582312  s :     3.582312
      pz      :     1.509084  p :     3.822047
      px      :     1.111443
      py      :     1.201520
      dz2     :     0.004308  d :     0.036135
      dxz     :     0.007297
      dyz     :     0.004415
      dx2y2   :     0.009317
      dxy     :     0.010798

 20 C s       :     2.882799  s :     2.882799
      pz      :     0.831774  p :     2.296507
      px      :     0.728315
      py      :     0.736418
      dz2     :     0.009257  d :     0.119437
      dxz     :     0.018284
      dyz     :     0.020168
      dx2y2   :     0.043623
      dxy     :     0.028106

 21 O s       :     3.882315  s :     3.882315
      pz      :     1.490988  p :     4.583408
      px      :     1.628404
      py      :     1.464016
      dz2     :     0.002884  d :     0.025899
      dxz     :     0.003222
      dyz     :     0.005879
      dx2y2   :     0.006401
      dxy     :     0.007514

 22 N s       :     3.615752  s :     3.615752
      pz      :     1.659959  p :     4.006984
      px      :     1.143214
      py      :     1.203811
      dz2     :     0.003059  d :     0.028541
      dxz     :     0.004449
      dyz     :     0.004242
      dx2y2   :     0.008074
      dxy     :     0.008718

 23 C s       :     3.144107  s :     3.144107
      pz      :     0.942667  p :     2.632800
      px      :     0.926411
      py      :     0.763723
      dz2     :     0.011324  d :     0.062174
      dxz     :     0.012163
      dyz     :     0.013292
      dx2y2   :     0.012366
      dxy     :     0.013030

 24 C s       :     3.261745  s :     3.261745
      pz      :     0.977330  p :     2.970969
      px      :     0.976727
      py      :     1.016911
      dz2     :     0.006380  d :     0.039053
      dxz     :     0.011675
      dyz     :     0.005757
      dx2y2   :     0.009277
      dxy     :     0.005963

 25 C s       :     3.292170  s :     3.292170
      pz      :     0.994950  p :     3.046389
      px      :     0.987856
      py      :     1.063583
      dz2     :     0.003357  d :     0.037136
      dxz     :     0.009050
      dyz     :     0.010797
      dx2y2   :     0.005730
      dxy     :     0.008203

 26 C s       :     2.970406  s :     2.970406
      pz      :     0.925465  p :     2.190986
      px      :     0.647615
      py      :     0.617906
      dz2     :     0.017584  d :     0.104585
      dxz     :     0.018363
      dyz     :     0.017199
      dx2y2   :     0.030799
      dxy     :     0.020640

 27 F s       :     3.982339  s :     3.982339
      pz      :     1.911575  p :     5.340328
      px      :     1.534255
      py      :     1.894499
      dz2     :     0.002201  d :     0.016334
      dxz     :     0.004517
      dyz     :     0.000371
      dx2y2   :     0.005580
      dxy     :     0.003665

 28 F s       :     3.979085  s :     3.979085
      pz      :     1.928613  p :     5.343711
      px      :     1.898141
      py      :     1.516956
      dz2     :     0.002128  d :     0.016109
      dxz     :     0.000224
      dyz     :     0.004205
      dx2y2   :     0.005937
      dxy     :     0.003615

 29 C s       :     3.286018  s :     3.286018
      pz      :     0.990532  p :     3.035510
      px      :     0.982345
      py      :     1.062632
      dz2     :     0.008097  d :     0.038347
      dxz     :     0.009066
      dyz     :     0.005641
      dx2y2   :     0.010158
      dxy     :     0.005385

 30 C s       :     3.269217  s :     3.269217
      pz      :     0.983866  p :     2.994527
      px      :     0.920549
      py      :     1.090113
      dz2     :     0.004930  d :     0.037760
      dxz     :     0.008370
      dyz     :     0.009824
      dx2y2   :     0.010557
      dxy     :     0.004078

 31 C s       :     3.022895  s :     3.022895
      pz      :     0.789415  p :     2.365137
      px      :     0.817948
      py      :     0.757774
      dz2     :     0.009275  d :     0.099549
      dxz     :     0.012095
      dyz     :     0.017139
      dx2y2   :     0.021712
      dxy     :     0.039327

 32 O s       :     3.896960  s :     3.896960
      pz      :     1.415277  p :     4.552763
      px      :     1.790479
      py      :     1.347006
      dz2     :     0.004005  d :     0.025992
      dxz     :     0.000823
      dyz     :     0.008661
      dx2y2   :     0.007120
      dxy     :     0.005383

 33 C s       :     3.228017  s :     3.228017
      pz      :     1.012017  p :     2.895858
      px      :     0.939168
      py      :     0.944674
      dz2     :     0.010446  d :     0.035745
      dxz     :     0.010631
      dyz     :     0.003358
      dx2y2   :     0.005580
      dxy     :     0.005730

 34 C s       :     3.192400  s :     3.192400
      pz      :     0.950232  p :     2.893434
      px      :     0.968037
      py      :     0.975166
      dz2     :     0.008273  d :     0.035277
      dxz     :     0.012198
      dyz     :     0.005328
      dx2y2   :     0.004329
      dxy     :     0.005149

 35 C s       :     2.938136  s :     2.938136
      pz      :     0.875111  p :     2.600538
      px      :     0.816057
      py      :     0.909369
      dz2     :     0.014545  d :     0.080154
      dxz     :     0.022490
      dyz     :     0.010625
      dx2y2   :     0.013146
      dxy     :     0.019349

 36 N s       :     3.693849  s :     3.693849
      pz      :     1.190575  p :     3.736234
      px      :     1.371085
      py      :     1.174574
      dz2     :     0.007886  d :     0.035604
      dxz     :     0.005779
      dyz     :     0.007235
      dx2y2   :     0.008804
      dxy     :     0.005899

 37 H s       :     0.836281  s :     0.836281

 38 H s       :     0.823336  s :     0.823336

 39 H s       :     0.831649  s :     0.831649

 40 H s       :     0.865287  s :     0.865287

 41 H s       :     0.843738  s :     0.843738

 42 H s       :     0.840432  s :     0.840432

 43 H s       :     0.853053  s :     0.853053

 44 H s       :     0.810326  s :     0.810326

 45 H s       :     0.780238  s :     0.780238

 46 H s       :     0.643228  s :     0.643228

 47 H s       :     0.831006  s :     0.831006

 48 H s       :     0.832332  s :     0.832332

 49 H s       :     0.825183  s :     0.825183

 50 H s       :     0.833227  s :     0.833227

 51 H s       :     0.831179  s :     0.831179

 52 H s       :     0.835530  s :     0.835530

 53 H s       :     0.823414  s :     0.823414

 54 H s       :     0.830611  s :     0.830611

 55 H s       :     0.822572  s :     0.822572

 56 H s       :     0.834960  s :     0.834960



                     *******************************
                     * LOEWDIN POPULATION ANALYSIS *
                     *******************************

----------------------
LOEWDIN ATOMIC CHARGES
----------------------
   0 C :   -0.358123
   1 C :    0.036455
   2 C :   -0.155096
   3 C :   -0.091088
   4 C :   -0.039399
   5 N :   -0.136550
   6 C :    0.002254
   7 C :    0.307297
   8 F :   -0.092493
   9 F :   -0.104311
  10 F :   -0.106788
  11 N :    0.051906
  12 C :    0.042510
  13 C :   -0.126534
  14 C :   -0.113927
  15 C :   -0.048075
  16 C :    0.138019
  17 O :   -0.217015
  18 C :   -0.166428
  19 N :   -0.046346
  20 C :    0.159285
  21 O :   -0.300564
  22 N :   -0.234975
  23 C :    0.003275
  24 C :   -0.219076
  25 C :   -0.258078
  26 C :    0.222594
  27 F :   -0.139815
  28 F :   -0.145783
  29 C :   -0.251946
  30 C :   -0.226089
  31 C :    0.157405
  32 O :   -0.268600
  33 C :   -0.080052
  34 C :   -0.107813
  35 C :    0.023098
  36 N :   -0.157905
  37 H :    0.139936
  38 H :    0.145528
  39 H :    0.142733
  40 H :    0.136855
  41 H :    0.149085
  42 H :    0.146529
  43 H :    0.140009
  44 H :    0.150481
  45 H :    0.175454
  46 H :    0.275852
  47 H :    0.143084
  48 H :    0.137300
  49 H :    0.148925
  50 H :    0.138679
  51 H :    0.144406
  52 H :    0.139527
  53 H :    0.145072
  54 H :    0.137857
  55 H :    0.158905
  56 H :    0.152554

-------------------------------
LOEWDIN REDUCED ORBITAL CHARGES
-------------------------------
  0 C s       :     2.975549  s :     2.975549
      pz      :     1.083244  p :     3.316782
      px      :     1.139631
      py      :     1.093907
      dz2     :     0.009582  d :     0.065792
      dxz     :     0.015753
      dyz     :     0.018149
      dx2y2   :     0.013099
      dxy     :     0.009209

  1 C s       :     2.876168  s :     2.876168
      pz      :     0.979540  p :     2.949780
      px      :     1.012355
      py      :     0.957885
      dz2     :     0.022140  d :     0.137597
      dxz     :     0.035586
      dyz     :     0.014822
      dx2y2   :     0.034912
      dxy     :     0.030136

  2 C s       :     2.927908  s :     2.927908
      pz      :     1.042151  p :     3.147121
      px      :     1.069083
      py      :     1.035887
      dz2     :     0.014668  d :     0.080067
      dxz     :     0.019818
      dyz     :     0.012380
      dx2y2   :     0.017545
      dxy     :     0.015657

  3 C s       :     2.920887  s :     2.920887
      pz      :     1.018752  p :     3.086487
      px      :     1.071703
      py      :     0.996032
      dz2     :     0.014404  d :     0.083714
      dxz     :     0.022224
      dyz     :     0.011249
      dx2y2   :     0.018167
      dxy     :     0.017670

  4 C s       :     2.831906  s :     2.831906
      pz      :     0.998660  p :     3.048532
      px      :     1.051000
      py      :     0.998872
      dz2     :     0.028635  d :     0.158961
      dxz     :     0.043240
      dyz     :     0.023194
      dx2y2   :     0.029531
      dxy     :     0.034360

  5 N s       :     3.268325  s :     3.268325
      pz      :     1.303721  p :     3.779059
      px      :     1.215040
      py      :     1.260299
      dz2     :     0.018389  d :     0.089166
      dxz     :     0.015726
      dyz     :     0.015520
      dx2y2   :     0.025106
      dxy     :     0.014424

  6 C s       :     2.864266  s :     2.864266
      pz      :     0.976181  p :     2.966623
      px      :     1.000317
      py      :     0.990125
      dz2     :     0.027061  d :     0.166857
      dxz     :     0.046199
      dyz     :     0.022428
      dx2y2   :     0.031471
      dxy     :     0.039697

  7 C s       :     2.848481  s :     2.848481
      pz      :     0.848539  p :     2.511566
      px      :     0.827015
      py      :     0.836012
      dz2     :     0.047041  d :     0.332656
      dxz     :     0.078115
      dyz     :     0.081834
      dx2y2   :     0.047824
      dxy     :     0.077842

  8 F s       :     3.758991  s :     3.758991
      pz      :     1.848227  p :     5.301988
      px      :     1.793019
      py      :     1.660742
      dz2     :     0.003683  d :     0.031514
      dxz     :     0.003925
      dyz     :     0.007237
      dx2y2   :     0.006067
      dxy     :     0.010602

  9 F s       :     3.760280  s :     3.760280
      pz      :     1.806822  p :     5.312408
      px      :     1.659539
      py      :     1.846046
      dz2     :     0.003945  d :     0.031624
      dxz     :     0.010092
      dyz     :     0.003655
      dx2y2   :     0.006276
      dxy     :     0.007657

 10 F s       :     3.760958  s :     3.760958
      pz      :     1.676448  p :     5.314289
      px      :     1.863072
      py      :     1.774769
      dz2     :     0.006981  d :     0.031541
      dxz     :     0.006561
      dyz     :     0.011405
      dx2y2   :     0.002976
      dxy     :     0.003618

 11 N s       :     3.041795  s :     3.041795
      pz      :     1.290818  p :     3.788760
      px      :     1.154368
      py      :     1.343574
      dz2     :     0.024378  d :     0.117540
      dxz     :     0.027942
      dyz     :     0.012718
      dx2y2   :     0.026834
      dxy     :     0.025668

 12 C s       :     2.852875  s :     2.852875
      pz      :     1.075759  p :     2.973152
      px      :     0.906383
      py      :     0.991011
      dz2     :     0.032890  d :     0.131463
      dxz     :     0.041239
      dyz     :     0.015761
      dx2y2   :     0.022086
      dxy     :     0.019487

 13 C s       :     2.918152  s :     2.918152
      pz      :     1.073872  p :     3.125467
      px      :     1.058938
      py      :     0.992657
      dz2     :     0.020678  d :     0.082915
      dxz     :     0.027742
      dyz     :     0.006627
      dx2y2   :     0.013893
      dxy     :     0.013974

 14 C s       :     2.916566  s :     2.916566
      pz      :     1.061493  p :     3.113324
      px      :     1.065174
      py      :     0.986657
      dz2     :     0.020022  d :     0.084038
      dxz     :     0.031499
      dyz     :     0.011225
      dx2y2   :     0.010430
      dxy     :     0.010862

 15 C s       :     2.880763  s :     2.880763
      pz      :     1.054191  p :     3.068492
      px      :     1.025767
      py      :     0.988534
      dz2     :     0.029321  d :     0.098820
      dxz     :     0.031639
      dyz     :     0.014365
      dx2y2   :     0.014076
      dxy     :     0.009419

 16 C s       :     2.892619  s :     2.892619
      pz      :     0.991322  p :     2.776960
      px      :     1.008180
      py      :     0.777457
      dz2     :     0.056639  d :     0.192402
      dxz     :     0.082933
      dyz     :     0.028665
      dx2y2   :     0.012643
      dxy     :     0.011522

 17 O s       :     3.592301  s :     3.592301
      pz      :     1.458366  p :     4.573667
      px      :     1.790780
      py      :     1.324521
      dz2     :     0.023519  d :     0.051047
      dxz     :     0.013026
      dyz     :     0.012723
      dx2y2   :     0.000983
      dxy     :     0.000797

 18 C s       :     2.928088  s :     2.928088
      pz      :     1.073826  p :     3.129827
      px      :     0.923174
      py      :     1.132827
      dz2     :     0.013913  d :     0.108513
      dxz     :     0.034354
      dyz     :     0.018646
      dx2y2   :     0.031103
      dxy     :     0.010497

[...]
      dyz     :     0.000652
      dx2y2   :     0.011306
      dxy     :     0.006013

 28 F s       :     3.755581  s :     3.755581
      pz      :     1.925013  p :     5.358809
      px      :     1.893414
      py      :     1.540382
      dz2     :     0.004415  d :     0.031393
      dxz     :     0.000403
      dyz     :     0.008366
      dx2y2   :     0.012212
      dxy     :     0.005997

 29 C s       :     2.953354  s :     2.953354
      pz      :     1.055498  p :     3.218435
      px      :     1.059761
      py      :     1.103176
      dz2     :     0.018030  d :     0.080157
      dxz     :     0.018700
      dyz     :     0.011863
      dx2y2   :     0.021023
      dxy     :     0.010540

 30 C s       :     2.949718  s :     2.949718
      pz      :     1.053899  p :     3.196992
      px      :     1.017879
      py      :     1.125214
      dz2     :     0.010685  d :     0.079379
      dxz     :     0.020026
      dyz     :     0.018363
      dx2y2   :     0.022556
      dxy     :     0.007749

 31 C s       :     2.865866  s :     2.865866
      pz      :     0.826470  p :     2.744439
      px      :     0.955843
      py      :     0.962127
      dz2     :     0.019998  d :     0.232291
      dxz     :     0.025538
      dyz     :     0.038081
      dx2y2   :     0.051163
      dxy     :     0.097511

 32 O s       :     3.587446  s :     3.587446
      pz      :     1.422074  p :     4.630623
      px      :     1.782208
      py      :     1.426341
      dz2     :     0.006642  d :     0.050531
      dxz     :     0.001547
      dyz     :     0.015810
      dx2y2   :     0.016724
      dxy     :     0.009808

 33 C s       :     2.919785  s :     2.919785
      pz      :     1.083944  p :     3.077305
      px      :     1.044378
      py      :     0.948984
      dz2     :     0.022574  d :     0.082961
      dxz     :     0.026800
      dyz     :     0.006344
      dx2y2   :     0.014121
      dxy     :     0.013123

 34 C s       :     2.918386  s :     2.918386
      pz      :     1.053603  p :     3.106734
      px      :     1.069446
      py      :     0.983684
      dz2     :     0.021402  d :     0.082693
      dxz     :     0.030330
      dyz     :     0.010666
      dx2y2   :     0.009985
      dxy     :     0.010310

 35 C s       :     2.814514  s :     2.814514
      pz      :     1.001114  p :     2.964891
      px      :     0.970712
      py      :     0.993064
      dz2     :     0.031995  d :     0.197497
      dxz     :     0.057805
      dyz     :     0.026531
      dx2y2   :     0.032946
      dxy     :     0.048221

 36 N s       :     3.239618  s :     3.239618
      pz      :     1.222439  p :     3.840115
      px      :     1.420801
      py      :     1.196875
      dz2     :     0.017226  d :     0.078172
      dxz     :     0.013075
      dyz     :     0.016346
      dx2y2   :     0.019221
      dxy     :     0.012304

 37 H s       :     0.860064  s :     0.860064

 38 H s       :     0.854472  s :     0.854472

 39 H s       :     0.857267  s :     0.857267

 40 H s       :     0.863145  s :     0.863145

 41 H s       :     0.850915  s :     0.850915

 42 H s       :     0.853471  s :     0.853471

 43 H s       :     0.859991  s :     0.859991

 44 H s       :     0.849519  s :     0.849519

 45 H s       :     0.824546  s :     0.824546

 46 H s       :     0.724148  s :     0.724148

 47 H s       :     0.856916  s :     0.856916

 48 H s       :     0.862700  s :     0.862700

 49 H s       :     0.851075  s :     0.851075

 50 H s       :     0.861321  s :     0.861321

 51 H s       :     0.855594  s :     0.855594

 52 H s       :     0.860473  s :     0.860473

 53 H s       :     0.854928  s :     0.854928

 54 H s       :     0.862143  s :     0.862143

 55 H s       :     0.841095  s :     0.841095

 56 H s       :     0.847446  s :     0.847446



                      *****************************
                      * MAYER POPULATION ANALYSIS *
                      *****************************

  NA   - Mulliken gross atomic population
  ZA   - Total nuclear charge
  QA   - Mulliken gross atomic charge
  VA   - Mayer's total valence
  BVA  - Mayer's bonded valence
  FA   - Mayer's free valence

  ATOM       NA         ZA         QA         VA         BVA        FA
  0 C      6.5186     6.0000    -0.5186     3.8173     3.8173    -0.0000
  1 C      5.7307     6.0000     0.2693     3.9142     3.9142    -0.0000
  2 C      6.1868     6.0000    -0.1868     3.8903     3.8903    -0.0000
  3 C      6.1338     6.0000    -0.1338     3.8767     3.8767    -0.0000
  4 C      5.7855     6.0000     0.2145     4.0145     4.0145     0.0000
  5 N      7.4363     7.0000    -0.4363     2.9420     2.9420    -0.0000
  6 C      5.7720     6.0000     0.2280     3.8640     3.8640    -0.0000
  7 C      5.0580     6.0000     0.9420     3.8724     3.8724     0.0000
  8 F      9.2867     9.0000    -0.2867     1.0818     1.0818    -0.0000
  9 F      9.2957     9.0000    -0.2957     1.0649     1.0649    -0.0000
 10 F      9.2945     9.0000    -0.2945     1.0638     1.0638     0.0000
 11 N      7.5140     7.0000    -0.5140     3.1845     3.1845    -0.0000
 12 C      5.7380     6.0000     0.2620     3.9029     3.9029    -0.0000
 13 C      6.1475     6.0000    -0.1475     3.9110     3.9110     0.0000
 14 C      6.1900     6.0000    -0.1900     3.9123     3.9123     0.0000
 15 C      5.9001     6.0000     0.0999     3.8833     3.8833    -0.0000
 16 C      5.6259     6.0000     0.3741     3.8657     3.8657    -0.0000
 17 O      8.4242     8.0000    -0.4242     2.0662     2.0662     0.0000
 18 C      6.2316     6.0000    -0.2316     3.7195     3.7195    -0.0000
 19 N      7.4405     7.0000    -0.4405     3.0697     3.0697     0.0000
 20 C      5.2987     6.0000     0.7013     3.9390     3.9390    -0.0000
 21 O      8.4916     8.0000    -0.4916     2.0615     2.0615    -0.0000
 22 N      7.6513     7.0000    -0.6513     2.8938     2.8938     0.0000
 23 C      5.8391     6.0000     0.1609     3.7892     3.7892     0.0000
 24 C      6.2718     6.0000    -0.2718     3.8271     3.8271    -0.0000
 25 C      6.3757     6.0000    -0.3757     3.8234     3.8234     0.0000
 26 C      5.2660     6.0000     0.7340     3.7788     3.7788    -0.0000
 27 F      9.3390     9.0000    -0.3390     1.0052     1.0052    -0.0000
 28 F      9.3389     9.0000    -0.3389     1.0030     1.0030     0.0000
 29 C      6.3599     6.0000    -0.3599     3.8510     3.8510    -0.0000
 30 C      6.3015     6.0000    -0.3015     3.7952     3.7952     0.0000
 31 C      5.4876     6.0000     0.5124     3.9025     3.9025    -0.0000
 32 O      8.4757     8.0000    -0.4757     2.0589     2.0589     0.0000
 33 C      6.1596     6.0000    -0.1596     3.9165     3.9165    -0.0000
 34 C      6.1211     6.0000    -0.1211     3.8839     3.8839    -0.0000
 35 C      5.6188     6.0000     0.3812     3.8507     3.8507    -0.0000
 36 N      7.4657     7.0000    -0.4657     2.9790     2.9790     0.0000
 37 H      0.8363     1.0000     0.1637     0.9314     0.9314     0.0000
 38 H      0.8233     1.0000     0.1767     0.9393     0.9393    -0.0000
 39 H      0.8316     1.0000     0.1684     0.9297     0.9297    -0.0000
 40 H      0.8653     1.0000     0.1347     0.9402     0.9402     0.0000
 41 H      0.8437     1.0000     0.1563     0.9343     0.9343    -0.0000
 42 H      0.8404     1.0000     0.1596     0.9470     0.9470     0.0000
 43 H      0.8531     1.0000     0.1469     0.9371     0.9371     0.0000
 44 H      0.8103     1.0000     0.1897     0.9278     0.9278     0.0000
 45 H      0.7802     1.0000     0.2198     0.9273     0.9273    -0.0000
 46 H      0.6432     1.0000     0.3568     0.8664     0.8664     0.0000
 47 H      0.8310     1.0000     0.1690     0.9331     0.9331    -0.0000
 48 H      0.8323     1.0000     0.1677     0.9326     0.9326     0.0000
 49 H      0.8252     1.0000     0.1748     0.9335     0.9335     0.0000
 50 H      0.8332     1.0000     0.1668     0.9358     0.9358     0.0000
 51 H      0.8312     1.0000     0.1688     0.9358     0.9358    -0.0000
 52 H      0.8355     1.0000     0.1645     0.9309     0.9309    -0.0000
 53 H      0.8234     1.0000     0.1766     0.9353     0.9353    -0.0000
 54 H      0.8306     1.0000     0.1694     0.9341     0.9341     0.0000
 55 H      0.8226     1.0000     0.1774     0.9393     0.9393     0.0000
 56 H      0.8350     1.0000     0.1650     0.9377     0.9377    -0.0000

  Mayer bond orders larger than 0.100000
B(  0-C ,  1-C ) :   1.0004 B(  0-C , 37-H ) :   0.9377 B(  0-C , 38-H ) :   0.9416 
B(  0-C , 39-H ) :   0.9346 B(  1-C ,  2-C ) :   1.3277 B(  1-C , 36-N ) :   1.4597 
B(  2-C ,  3-C ) :   1.4879 B(  2-C , 40-H ) :   0.9260 B(  3-C ,  4-C ) :   1.3368 
B(  3-C , 41-H ) :   0.9176 B(  4-C ,  5-N ) :   1.2305 B(  4-C , 35-C ) :   1.2748 
B(  5-N ,  6-C ) :   1.5199 B(  6-C ,  7-C ) :   0.9588 B(  6-C , 11-N ) :   1.1136 
B(  7-C ,  8-F ) :   0.9708 B(  7-C ,  9-F ) :   0.9480 B(  7-C , 10-F ) :   0.9533 
B( 11-N , 12-C ) :   0.8491 B( 11-N , 35-C ) :   1.0552 B( 12-C , 13-C ) :   1.4184 
B( 12-C , 34-C ) :   1.4127 B( 13-C , 14-C ) :   1.4337 B( 13-C , 42-H ) :   0.9090 
B( 14-C , 15-C ) :   1.3849 B( 14-C , 43-H ) :   0.9173 B( 15-C , 16-C ) :   0.9935 
B( 15-C , 33-C ) :   1.3901 B( 16-C , 17-O ) :   1.8925 B( 16-C , 18-C ) :   0.9177 
B( 18-C , 19-N ) :   0.9309 B( 18-C , 44-H ) :   0.9114 B( 18-C , 45-H ) :   0.8928 
B( 19-N , 20-C ) :   0.9638 B( 19-N , 31-C ) :   1.0435 B( 20-C , 21-O ) :   1.8550 
B( 20-C , 22-N ) :   1.0613 B( 22-N , 23-C ) :   0.9039 B( 22-N , 46-H ) :   0.8034 
B( 23-C , 24-C ) :   0.9852 B( 23-C , 30-C ) :   0.9462 B( 23-C , 31-C ) :   0.9291 
B( 24-C , 25-C ) :   0.9835 B( 24-C , 47-H ) :   0.9278 B( 24-C , 48-H ) :   0.9208 
B( 25-C , 26-C ) :   0.9720 B( 25-C , 49-H ) :   0.9237 B( 25-C , 50-H ) :   0.9266 
B( 26-C , 27-F ) :   0.9062 B( 26-C , 28-F ) :   0.8923 B( 26-C , 29-C ) :   0.9950 
B( 29-C , 30-C ) :   0.9763 B( 29-C , 51-H ) :   0.9263 B( 29-C , 52-H ) :   0.9236 
B( 30-C , 53-H ) :   0.9215 B( 30-C , 54-H ) :   0.9327 B( 31-C , 32-O ) :   1.8456 
B( 33-C , 34-C ) :   1.4233 B( 33-C , 55-H ) :   0.9094 B( 34-C , 56-H ) :   0.9150 
B( 35-C , 36-N ) :   1.3229 

-------
TIMINGS
-------

Total SCF time: 0 days 0 hours 6 min 21 sec 

Total time                  ....     381.149 sec
Sum of individual times     ....     380.525 sec  ( 99.8%)

SCF preparation             ....       0.351 sec  (  0.1%)
Fock matrix formation       ....     377.401 sec  ( 99.0%)
  Startup                   ....       0.116 sec  (  0.0% of F)
  Split-RI-J                ....      50.935 sec  ( 13.5% of F)
  Chain of spheres X        ....     294.551 sec  ( 78.0% of F)
  XC integration            ....      30.617 sec  (  8.1% of F)
    XC Preparation          ....       0.000 sec  (  0.0% of XC)
    Basis function eval.    ....      11.438 sec  ( 37.4% of XC)
    Density eval.           ....       6.990 sec  ( 22.8% of XC)
    XC-Functional eval.     ....       1.376 sec  (  4.5% of XC)
    XC-Potential eval.      ....       8.765 sec  ( 28.6% of XC)
Diagonalization             ....       0.000 sec  (  0.0%)
Density matrix formation    ....       0.535 sec  (  0.1%)
Total Energy calculation    ....       0.092 sec  (  0.0%)
Population analysis         ....       0.084 sec  (  0.0%)
Orbital Transformation      ....       0.201 sec  (  0.1%)
Orbital Orthonormalization  ....       0.000 sec  (  0.0%)
DIIS solution               ....       1.156 sec  (  0.3%)
SOSCF solution              ....       0.706 sec  (  0.2%)
Finished LeanSCF after 381.2 sec

Maximum memory used throughout the entire LEANSCF-calculation: 89.7 MB

-------------------------   --------------------
FINAL SINGLE POINT ENERGY     -1924.227987624581
-------------------------   --------------------


------------------------------------------------------------------------------
                              ORCA PROPERTY CALCULATIONS
------------------------------------------------------------------------------

GBWName                                 ... /home/nmrbox/aojoawo/Documents/ERDOS/inputs/CHEMBL5266721.gbw
Number of atoms                         ...     57
Number of basis functions               ...    558
Max core memory                         ...   1024 MB

Electric properties:
Dipole moment                           ... YES
Quadrupole moment                       ...  NO
Static polarizability (Dipole/Dipole)   ...  NO
Static polarizability (Dipole/Quad.)    ...  NO
Static polarizability (Quad./Quad.)     ...  NO
Static polarizability (Velocity)        ...  NO

Atomic electric properties:
Dipole moment                           ...  NO
Quadrupole moment                       ...  NO
Static polarizability                   ...  NO

Choice of electric origin               ... Center of mass
Position of electric origin             ...     0.395851    -0.458447     0.534269

General magnetic properties:
Magnetizability                         ...  NO

EPR properties:
g-Tensor (aka g-matrix)                 ...  NO
Zero-Field splitting spin-orbit         ...  NO
Zero-field splitting spin-spin          ...  NO
Hyperfine couplings                     ...  NO (   0 nuclei)
Quadrupole couplings                    ...  NO (   0 nuclei)
Contact density                         ...  NO (   0 nuclei)

NMR properties:
Chemical shifts                         ...  NO (   0 nuclei)
Spin-rotation constants                 ...  NO (   0 nuclei)
Spin-spin couplings                     ...  NO (   0 nuclei,    0 pairs)

Choice of magnetic origin               ... GIAO
Position of magnetic origin             ...     0.000000     0.000000     0.000000

Properties with geometric perturbations:
SCF Hessian                             ...  NO
IR spectrum                             ...  NO
VCD spectrum                            ...  NO
X-ray spectroscopy properties:
SCF XES/XAS/RIXS spectra                ...  NO


-------------
DIPOLE MOMENT
-------------

Method             : SCF
Type of density    : Electron Density
Multiplicity       :   1
Irrep              :   0
Energy             : -1924.2279876245809191 Eh
Relativity type    : 
Basis              : AO
                                X                 Y                 Z
Electronic contribution:     11.662936486     -23.530474771      19.546995392
Nuclear contribution   :    -11.643785157      24.608692685     -19.540766182
                        -----------------------------------------
Total Dipole Moment    :      0.019151329       1.078217913       0.006229210
                        -----------------------------------------
Magnitude (a.u.)       :      1.078405974
Magnitude (Debye)      :      2.741090148



--------------------
Rotational spectrum 
--------------------
 
Rotational constants in cm-1:             0.008998             0.001012             0.000949 
Rotational constants in MHz :           269.762136            30.328828            28.464757 

Dipole components along the rotational axes: 
x,y,z [a.u.] :     0.050323    -0.693563     0.824256 
x,y,z [Debye]:     0.127912    -1.762896     2.095092 

 

Dipole moment calculation done in   0.0 sec 

Maximum memory used throughout the entire PROP-calculation: 44.7 MB

--------------------------------
SUGGESTED CITATIONS FOR THIS RUN
--------------------------------

Below you find a list of papers that are relevant to this ORCA run
We neither can nor want to force you to cite these papers, but we appreciate if you do
You receive ORCA, which is the product of decades of hard work by many enthusiastic individuals, for free
The only thing we kindly ask in return is that you cite our papers,
We deeply appreciate it, if you show your appreciation for ORCA by not just citing the generic ORCA reference.

Please note that relegating all ORCA citations to the supporting information does *not* help us.
SI sections are not indexed - citations you put there will not count into any citation statistics
But we need these citations in order to attract the funding resources that allow us to do what we are doing

Therefore, if you are a happy ORCA user, please consider citing a few of the papers listed below in the main body of your paper

In addition to the list printed below, the program has created the file /home/nmrbox/aojoawo/Documents/ERDOS/inputs/CHEMBL5266721.bibtex that contains the list in bibtex format
You can import this file easily into all common literature databanks and citation aid programs


List of essential papers. We consider these as the minimum necessary citations

  1. Neese,F.
     Software update: the ORCA program system, version 5.0
     WIRES Comput. Molec. Sci., 2022 12(1)e1606
     doi.org/10.1002/wcms.1606

List of papers to cite with high priority. The work reported in these papers was absolutely
necessary for this run to complete.
Our perspective: the developers of density functionals and basis sets usually get cited in chemistry papers
Good! But without the algorithms to do something with them, the functionals or basis sets would not do anything.
Hence, in our opinion, the algorithm design and method developments papers are equally worthy of getting cited

  1. Neese,F.
     An improvement of the resolution of the identity approximation for the formation of the Coulomb matrix
     J. Comp. Chem., 2003 24(14)1740-1747
     doi.org/10.1002/jcc.10318
  2. Neese,F.; Wennmohs,F.; Hansen,A.; Becker,U.
     Efficient, approximate and parallel Hartree-Fock and hybrid DFT calculations. A 'chain-of-spheres' algorithm for the Hartree-Fock exchange
     Chem. Phys., 2009 356(1-3)98-109
     doi.org/10.1016/j.chemphys.2008.10.036
  3. Helmich-Paris,B.; de Souza,B.; Neese,F.; Izsák,R.
     An improved chain of spheres for exchange algorithm
     J. Chem. Phys., 2021 155 104109
     doi.org/doi: 10.1063/5.0058766.
  4. Neese,F.
     The SHARK Integral Generation and Digestion System
     J. Comp. Chem., 2022  1-16
     doi.org/10.1002/jcc.26942

List of suggested additional citations. These are papers that are important in the 'surrounding' of 
of this run, or papers that preceded the highly important papers. If you like your results we are grateful for a citation.

  1. Izsak,R.; Neese,F.
     An overlap fitted chain of spheres exchange method
     J. Chem. Phys., 2011 135 144105
     doi.org/10.1063/1.3646921
  2. Izsak,R.; Hansen,A.; Neese,F.
     The resolution of identity and chain of spheres approximations for the LPNO-CCSD singles Fock term
     Molec. Phys., 2012 110 2413-2417
     doi.org/10.1080/00268976.2012.687466
  3. Neese,F.
     The ORCA program system
     WIRES Comput. Molec. Sci., 2012 2(1)73-78
     doi.org/10.1002/wcms.81
  4. Izsak,R.; Neese,F.; Klopper,W.
     Robust fitting techniques in the chain of spheres approximation to the Fock exchange: The role of the complementary space
     J. Chem. Phys., 2013 139 
     doi.org/10.1063/1.4819264
  5. Neese,F.
     Software update: the ORCA program system, version 4.0
     WIRES Comput. Molec. Sci., 2018 8(1)1-6
     doi.org/10.1002/wcms.1327
  6. Neese,F.; Wennmohs,F.; Becker,U.; Riplinger,C.
     The ORCA quantum chemistry program package
     J. Chem. Phys., 2020 152 Art. No. L224108
     doi.org/10.1063/5.0004608

List of optional additional citations

  1. Neese,F.
     Approximate second-order SCF convergence for spin unrestricted wavefunctions
     Chem. Phys. Lett., 2000 325(1-3)93-98
     doi.org/10.1016/s0009-2614(00)00662-x

Timings for individual modules:

Sum of individual times          ...      397.870 sec (=   6.631 min)
Startup calculation              ...       11.077 sec (=   0.185 min)   2.8 %
SCF iterations                   ...      386.618 sec (=   6.444 min)  97.2 %
Property calculations            ...        0.175 sec (=   0.003 min)   0.0 %
                             ****ORCA TERMINATED NORMALLY****
TOTAL RUN TIME: 0 days 0 hours 6 minutes 38 seconds 754 msec
