
                                 *****************
                                 * O   R   C   A *
                                 *****************

                                            #,                                       
                                            ###                                      
                                            ####                                     
                                            #####                                    
                                            ######                                   
                                           ########,                                 
                                     ,,################,,,,,                         
                               ,,#################################,,                 
                          ,,##########################################,,             
                       ,#########################################, ''#####,          
                    ,#############################################,,   '####,        
                  ,##################################################,,,,####,       
                ,###########''''           ''''###############################       
              ,#####''   ,,,,##########,,,,          '''####'''          '####       
            ,##' ,,,,###########################,,,                        '##       
           ' ,,###''''                  '''############,,,                           
         ,,##''                                '''############,,,,        ,,,,,,###''
      ,#''                                            '''#######################'''  
     '                                                          ''''####''''         
             ,#######,   #######,   ,#######,      ##                                
            ,#'     '#,  ##    ##  ,#'     '#,    #''#        ,####,   ,####,        
            ##       ##  ##   ,#'  ##            #'  '#       #'       #'  '#        
            ##       ##  #######   ##           ,######,      #####,   #    #        
            '#,     ,#'  ##    ##  '#,     ,#' ,#      #,     #,   #   #,  ,#        
             '#######'   ##     ##  '#######'  #'      '#     '####' # '####'        



                #########################################################
                #                        -***-                          #
                #          Department of theory and spectroscopy        #
                #                                                       #
                #                      Frank Neese                      #
                #                                                       #
                #     Directorship, Architecture, Infrastructure        #
                #                    SHARK, DRIVERS                     #
                #        Core code/Algorithms in most modules           #
                #                                                       #
                #        Max Planck Institute fuer Kohlenforschung      #
                #                Kaiser Wilhelm Platz 1                 #
                #                 D-45470 Muelheim/Ruhr                 #
                #                      Germany                          #
                #                                                       #
                #                  All rights reserved                  #
                #                        -***-                          #
                #########################################################


                         Program Version 6.0.0  -   RELEASE  -


 With contributions from (in alphabetic order):
   Daniel Aravena         : Magnetic Suceptibility
   Michael Atanasov       : Ab Initio Ligand Field Theory (pilot matlab implementation)
   Alexander A. Auer      : GIAO ZORA, VPT2 properties, NMR spectrum
   Ute Becker             : All parallelization in ORCA, NUMFREQ, NUMCALC
   Giovanni Bistoni       : ED, misc. LED, open-shell LED, HFLD
   Martin Brehm           : Molecular dynamics
   Dmytro Bykov           : pre 5.0 version of the SCF Hessian
   Marcos Casanova-Páez   : Triplet and SCS-CIS(D). UHF-(DLPNO)-IP/EA/STEOM-CCSD. UHF-CVS-IP/STEOM-CCSD
   Vijay G. Chilkuri      : MRCI spin determinant printing, contributions to CSF-ICE
   Pauline Colinet        : FMM embedding
   Dipayan Datta          : RHF DLPNO-CCSD density
   Achintya Kumar Dutta   : EOM-CC, STEOM-CC
   Nicolas Foglia         : Exact transition moments, OPA infrastructure, MCD improvements
   Dmitry Ganyushin       : Spin-Orbit,Spin-Spin,Magnetic field MRCI
   Miquel Garcia          : C-PCM and meta-GGA Hessian, CCSD/C-PCM, Gaussian charge scheme
   Tiago L. C. Gouveia    : GS-ROHF, GS-ROCIS
   Yang Guo               : DLPNO-NEVPT2, F12-NEVPT2, CIM, IAO-localization
   Andreas Hansen         : Spin unrestricted coupled pair/coupled cluster methods
   Ingolf Harden          : AUTO-CI MPn and infrastructure 
   Benjamin Helmich-Paris : MC-RPA, TRAH-(SCF,CASSCF), AVAS, COSX integrals, SCF dyn. polar.
   Lee Huntington         : MR-EOM, pCC
   Robert Izsak           : Overlap fitted RIJCOSX, COSX-SCS-MP3, EOM
   Riya Kayal             : Wick's Theorem for AUTO-CI, AUTO-CI UHF-CCSDT
   Emily Kempfer          : AUTO-CI, RHF CISDT and CCSDT
   Christian Kollmar      : KDIIS, OOCD, Brueckner-CCSD(T), CCSD density, CASPT2, CASPT2-K, improved NEVPT2
   Axel Koslowski         : Symmetry handling
   Simone Kossmann        : Meta GGA functionals, TD-DFT gradient, OOMP2, (MP2 Hessian; deprecated post 5.0)
   Lucas Lang             : DCDCAS
   Marvin Lechner         : AUTO-CI (C++ implementation), FIC-MRCC
   Spencer Leger          : CASSCF response
   Dagmar Lenk            : GEPOL surface, SMD, ORCA-2-JSON
   Dimitrios Liakos       : Extrapolation schemes; Compound Job, initial MDCI parallelization
   Dimitrios Manganas     : Further ROCIS development; embedding schemes. LFT, Crystal Embedding
   Dimitrios Pantazis     : SARC Basis sets
   Anastasios Papadopoulos: AUTO-CI, single reference methods and gradients
   Taras Petrenko         : pre 6.0 DFT Hessian and TD-DFT gradient, (ASA, deprecated), ECA, 1-Electron XAS/XES, NRVS
   Peter Pinski           : DLPNO-MP2, DLPNO-MP2 Gradient
   Christoph Reimann      : Effective Core Potentials
   Marius Retegan         : Local ZFS, SOC
   Christoph Riplinger    : Optimizer, TS searches, QM/MM, DLPNO-CCSD(T), (RO)-DLPNO pert. Triples
   Michael Roemelt        : Original ROCIS implementation
   Masaaki Saitow         : Open-shell DLPNO-CCSD energy and density
   Barbara Sandhoefer     : DKH picture change effects
   Kantharuban Sivalingam : CASSCF convergence/infrastructure, NEVPT2 and variants, FIC-MRCI
   Bernardo de Souza      : ESD, SOC TD-DFT
   Georgi Stoychev        : AutoAux, RI-MP2 NMR, DLPNO-MP2 response, X2C
   Van Anh Tran           : RI-MP2 g-tensors
   Willem Van den Heuvel  : Paramagnetic NMR
   Zikuan Wang            : NOTCH, Electric field optimization 
   Frank Wennmohs         : Technical directorship and infrastructure
   Hang Xu                : AUTO-CI-Response properties 


 We gratefully acknowledge several colleagues who have allowed us to
 interface, adapt or use parts of their codes:
   Stefan Grimme, W. Hujo, H. Kruse, P. Pracht,  : VdW corrections, initial TS optimization,
                  C. Bannwarth, S. Ehlert,         DFT functionals, gCP, sTDA/sTD-DF
                  L. Wittmann, M. Mueller
   Ed Valeev, F. Pavosevic, A. Kumar             : LibInt (2-el integral package), F12 methods
   Garnet Chan, S. Sharma, J. Yang, R. Olivares  : DMRG
   Ulf Ekstrom                                   : XCFun DFT Library
   Mihaly Kallay                                 : mrcc  (arbitrary order and MRCC methods)
   Frank Weinhold                                : gennbo (NPA and NBO analysis)
   Simon Mueller                                 : openCOSMO-RS
   Christopher J. Cramer and Donald G. Truhlar   : smd solvation model
   Lars Goerigk                                  : TD-DFT with DH, B97 family of functionals
   V. Asgeirsson, H. Jonsson                     : NEB implementation
   FAccTs GmbH                                   : IRC, NEB, NEB-TS, DLPNO-Multilevel, CI-OPT
                                                   MM, QMMM, 2- and 3-layer-ONIOM, Crystal-QMMM,
                                                   LR-CPCM, SF, NACMEs, symmetry and pop. for TD-DFT,
                                                   nearIR, NL-DFT gradient (VV10), updates on ESD,
                                                   ML-optimized integration grids, MBIS, APM,
                                                   GOAT, DOCKER, SOLVATOR, interface openCOSMO-RS
   S Lehtola, MJT Oliveira, MAL Marques          : LibXC Library
   Liviu Ungur et al                             : ANISO software


 Your calculation uses the libint2 library for the computation of 2-el integrals
 For citations please refer to: http://libint.valeyev.net

 Your ORCA version has been built with support for libXC version: 6.2.2
 For citations please refer to: https://libxc.gitlab.io

 This ORCA versions uses:
   CBLAS   interface :  Fast vector & matrix operations
   LAPACKE interface :  Fast linear algebra routines
   SCALAPACK package :  Parallel linear algebra routines
   Shared memory     :  Shared parallel matrices
   BLAS/LAPACK       :  OpenBLAS 0.3.27  USE64BITINT DYNAMIC_ARCH NO_AFFINITY SkylakeX SINGLE_THREADED
        Core in use  :  SkylakeX
   Copyright (c) 2011-2014, The OpenBLAS Project


Warning: RI is on but no J-basis has been assigned. Assigning Def2/J (nothing to worry about!)
================================================================================

----- Orbital basis set information -----
Your calculation utilizes the basis: 6-31G*
   H-He, Li-Ne : W. J. Hehre, R. Ditchfield and J.A. Pople, J. Chem. Phys. 56, 2257 (1972).
                 Note: He and Ne are unpublished basis sets taken from the Gaussian program.
                 Note: Li and B from J. D. Dill and J. A. Pople, J. Chem. Phys. 62, 2921 (1975).
   Na - Ar     : M. M. Francl, W. J. Pietro, W. J. Hehre, J. S. Binkley, M. S. Gordon, 
                 D. J. DeFrees and J. A. Pople, J. Chem. Phys. 77, 3654 (1982).
   K - Zn      : V. A. Rassolov, J. A. Pople, M. A. Ratner, and T. L. Windus, J. Chem. Phys. 109, 1223 (1998).

----- AuxJ basis set information -----
Your calculation utilizes the auxiliary basis: def2/J
   F. Weigend, Phys. Chem. Chem. Phys. 8, 1057 (2006).

================================================================================
                                        WARNINGS
                       Please study these warnings very carefully!
================================================================================


================================================================================
                                       INPUT FILE
================================================================================
NAME = /home/nmrbox/aojoawo/Documents/ERDOS/inputs/CHEMBL5287269.inp
|  1> ! B3LYP 6-31G* SP
|  2> 
|  3> * xyz 0 1
|  4> C 7.3665 1.4915 0.2889
|  5> C 6.9594 0.0523 0.5760
|  6> N 5.6500 -0.2237 -0.0007
|  7> N 5.4542 -0.6678 -1.2298
|  8> N 4.1523 -0.7518 -1.4495
|  9> C 3.5746 -0.3308 -0.3046
| 10> C 2.1158 -0.2544 -0.1088
| 11> S 0.9957 -0.6876 -1.2877
| 12> C -0.3456 -0.3304 -0.3332
| 13> C -1.7636 -0.4760 -0.7389
| 14> C -2.1012 -0.9460 -2.0184
| 15> C -3.4383 -1.0816 -2.3896
| 16> C -4.4558 -0.7514 -1.4938
| 17> C -4.1513 -0.2761 -0.2027
| 18> N -5.2085 0.0691 0.7301
| 19> C -6.5511 -0.5059 0.5816
| 20> C -4.9544 1.0006 1.8360
| 21> C -2.7937 -0.1443 0.1605
| 22> N 0.0415 0.1187 0.8824
| 23> C 1.3943 0.1652 1.0189
| 24> O 1.9631 0.6055 2.2129
| 25> N 4.5018 0.0106 0.6103
| 26> H 7.4184 1.6620 -0.8075
| 27> H 6.6285 2.1927 0.7333
| 28> H 8.3647 1.6929 0.7314
| 29> H 7.7130 -0.6404 0.1427
| 30> H 6.9260 -0.1120 1.6747
| 31> H -1.3356 -1.2101 -2.7360
| 32> H -3.6882 -1.4427 -3.3790
| 33> H -5.4798 -0.8594 -1.8230
| 34> H -7.1710 -0.3336 1.4869
| 35> H -6.4775 -1.6040 0.4317
| 36> H -7.0662 -0.0429 -0.2858
| 37> H -5.9004 1.3436 2.3059
| 38> H -4.3400 0.5029 2.6151
| 39> H -4.4243 1.9006 1.4583
| 40> H -2.5324 0.2055 1.1495
| 41> H 2.9591 0.6589 2.3666
| 42> *
| 43> 
| 44>                          ****END OF INPUT****
================================================================================

                       ****************************
                       * Single Point Calculation *
                       ****************************

---------------------------------
CARTESIAN COORDINATES (ANGSTROEM)
---------------------------------
  C      7.366500    1.491500    0.288900
  C      6.959400    0.052300    0.576000
  N      5.650000   -0.223700   -0.000700
  N      5.454200   -0.667800   -1.229800
  N      4.152300   -0.751800   -1.449500
  C      3.574600   -0.330800   -0.304600
  C      2.115800   -0.254400   -0.108800
  S      0.995700   -0.687600   -1.287700
  C     -0.345600   -0.330400   -0.333200
  C     -1.763600   -0.476000   -0.738900
  C     -2.101200   -0.946000   -2.018400
  C     -3.438300   -1.081600   -2.389600
  C     -4.455800   -0.751400   -1.493800
  C     -4.151300   -0.276100   -0.202700
  N     -5.208500    0.069100    0.730100
  C     -6.551100   -0.505900    0.581600
  C     -4.954400    1.000600    1.836000
  C     -2.793700   -0.144300    0.160500
  N      0.041500    0.118700    0.882400
  C      1.394300    0.165200    1.018900
  O      1.963100    0.605500    2.212900
  N      4.501800    0.010600    0.610300
  H      7.418400    1.662000   -0.807500
  H      6.628500    2.192700    0.733300
  H      8.364700    1.692900    0.731400
  H      7.713000   -0.640400    0.142700
  H      6.926000   -0.112000    1.674700
  H     -1.335600   -1.210100   -2.736000
  H     -3.688200   -1.442700   -3.379000
  H     -5.479800   -0.859400   -1.823000
  H     -7.171000   -0.333600    1.486900
  H     -6.477500   -1.604000    0.431700
  H     -7.066200   -0.042900   -0.285800
  H     -5.900400    1.343600    2.305900
  H     -4.340000    0.502900    2.615100
  H     -4.424300    1.900600    1.458300
  H     -2.532400    0.205500    1.149500
  H      2.959100    0.658900    2.366600

----------------------------
CARTESIAN COORDINATES (A.U.)
----------------------------
  NO LB      ZA    FRAG     MASS         X           Y           Z
   0 C     6.0000    0    12.011   13.920668    2.818527    0.545942
   1 C     6.0000    0    12.011   13.151360    0.098833    1.088482
   2 N     7.0000    0    14.007   10.676953   -0.422732   -0.001323
   3 N     7.0000    0    14.007   10.306944   -1.261959   -2.323985
   4 N     7.0000    0    14.007    7.846710   -1.420696   -2.739158
   5 C     6.0000    0    12.011    6.755015   -0.625121   -0.575611
   6 C     6.0000    0    12.011    3.998283   -0.480746   -0.205602
   7 S    16.0000    0    32.060    1.881600   -1.299376   -2.433400
   8 C     6.0000    0    12.011   -0.653089   -0.624366   -0.629657
   9 C     6.0000    0    12.011   -3.332721   -0.899510   -1.396319
  10 C     6.0000    0    12.011   -3.970693   -1.787681   -3.814223
  11 C     6.0000    0    12.011   -6.497445   -2.043928   -4.515690
  12 C     6.0000    0    12.011   -8.420242   -1.419940   -2.822873
  13 C     6.0000    0    12.011   -7.844820   -0.521753   -0.383047
  14 N     7.0000    0    14.007   -9.842639    0.130580    1.379689
  15 C     6.0000    0    12.011  -12.379785   -0.956012    1.099065
  16 C     6.0000    0    12.011   -9.362459    1.890860    3.469537
  17 C     6.0000    0    12.011   -5.279328   -0.272687    0.303301
  18 N     7.0000    0    14.007    0.078424    0.224310    1.667494
  19 C     6.0000    0    12.011    2.634845    0.312183    1.925442
  20 O     8.0000    0    15.999    3.709721    1.144229    4.181775
  21 N     7.0000    0    14.007    8.507169    0.020031    1.153300
  22 H     1.0000    0     1.008   14.018744    3.140725   -1.525954
  23 H     1.0000    0     1.008   12.526050    4.143602    1.385736
  24 H     1.0000    0     1.008   15.806992    3.199117    1.382146
  25 H     1.0000    0     1.008   14.575458   -1.210181    0.269664
  26 H     1.0000    0     1.008   13.088243   -0.211649    3.164724
  27 H     1.0000    0     1.008   -2.523918   -2.286758   -5.170291
  28 H     1.0000    0     1.008   -6.969688   -2.726308   -6.385385
  29 H     1.0000    0     1.008  -10.355321   -1.624031   -3.444971
  30 H     1.0000    0     1.008  -13.551226   -0.630413    2.809834
  31 H     1.0000    0     1.008  -12.240701   -3.031121    0.815795
  32 H     1.0000    0     1.008  -13.353183   -0.081069   -0.540084
  33 H     1.0000    0     1.008  -11.150140    2.539036    4.357519
  34 H     1.0000    0     1.008   -8.201411    0.950343    4.941823
  35 H     1.0000    0     1.008   -8.360715    3.591613    2.755788
  36 H     1.0000    0     1.008   -4.785542    0.388339    2.172240
  37 H     1.0000    0     1.008    5.591889    1.245141    4.472226

--------------------------------
INTERNAL COORDINATES (ANGSTROEM)
--------------------------------
 C      0   0   0     0.000000000000     0.00000000     0.00000000
 C      1   0   0     1.522975200061     0.00000000     0.00000000
 N      2   1   0     1.457150386885   110.15649201     0.00000000
 N      3   2   1     1.321457248646   124.39621826    89.05249294
 N      4   3   2     1.322976832753   108.76006449   182.83354972
 C      5   4   3     1.349731195461   105.10119015     0.41746863
 C      6   5   4     1.473862965136   123.53820689   179.67211134
 S      7   6   5     1.682881891281   123.53011390     0.20124261
 C      8   7   6     1.684561598755    94.49930911   180.01198097
 C      9   8   7     1.482064725307   125.86487769   179.97705516
 C     10   9   8     1.404277041755   120.81805395   359.90472770
 C     11  10   9     1.394278741859   120.37614212   179.88890541
 C     12  11  10     1.395276291635   120.35777068     0.00000000
 C     13  12  11     1.409102391595   120.69697739     0.02774161
 N     14  13  12     1.451533919686   120.77333632   179.94127068
 C     15  14  13     1.468077658028   120.52620577    22.79619760
 C     15  14  13     1.468085103119   120.59213181   202.91362066
 C     10   9   8     1.407142942277   120.15116044   179.81679338
 N      9   8   7     1.352486813244   110.59661504     0.00000000
 C     19   9   8     1.360464016430   112.71385957     0.00000000
 O     20  19   9     1.393927376157   120.16527842   180.01132304
 N      3   2   1     1.321582661055   124.34378082   273.14650141
 H      1   2   3     1.110791078466   110.09700402   299.78940102
 H      1   2   3     1.110773064131   110.09198734    60.24842255
 H      1   2   3     1.110302413759   109.66994134   180.01123124
 H      2   1   3     1.111528290238   109.52386385   120.72719938
 H      2   1   3     1.111418795954   109.51694508   239.32842043
 H     11  10   9     1.082054494931   121.05399461   359.88442602
 H     12  11  10     1.082476595590   119.81320381   179.86577883
 H     13  12  11     1.081023885028   118.13967206   179.30216296
 H     16  15  14     1.110644583114   111.54469963   167.00667919
 H     16  15  14     1.110725249555   109.89323158    47.91013606
 H     16  15  14     1.109990887350   109.88095688   287.06568220
 H     17  15  14     1.110572379451   111.54681579   166.59780961
 H     17  15  14     1.110040296566   109.87847226   286.63630035
 H     17  15  14     1.110703965960   109.91212226    47.50245721
 H     18  10   9     1.081091453116   118.95063568   359.31947723
 H     21  20  19     1.009203274866   123.35915100   179.96622407

---------------------------
INTERNAL COORDINATES (A.U.)
---------------------------
 C      0   0   0     0.000000000000     0.00000000     0.00000000
 C      1   0   0     2.878006036869     0.00000000     0.00000000
 N      2   1   0     2.753615167151   110.15649201     0.00000000
 N      3   2   1     2.497192297627   124.39621826    89.05249294
 N      4   3   2     2.500063895425   108.76006449   182.83354972
 C      5   4   3     2.550622313831   105.10119015     0.41746863
 C      6   5   4     2.785197363036   123.53820689   179.67211134
 S      7   6   5     3.180185890256   123.53011390     0.20124261
 C      8   7   6     3.183360077367    94.49930911   180.01198097
 C      9   8   7     2.800696443576   125.86487769   179.97705516
 C     10   9   8     2.653699025070   120.81805395   359.90472770
 C     11  10   9     2.634804976462   120.37614212   179.88890541
 C     12  11  10     2.636690072344   120.35777068     0.00000000
 C     13  12  11     2.662817614769   120.69697739     0.02774161
 N     14  13  12     2.743001582304   120.77333632   179.94127068
 C     15  14  13     2.774264717001   120.52620577    22.79619760
 C     15  14  13     2.774278786184   120.59213181   202.91362066
 C     10   9   8     2.659114792184   120.15116044   179.81679338
 N      9   8   7     2.555829676772   110.59661504     0.00000000
 C     19   9   8     2.570904406107   112.71385957     0.00000000
 O     20  19   9     2.634140991512   120.16527842   180.01132304
 N      3   2   1     2.497429292732   124.34378082   273.14650141
 H      1   2   3     2.099090930304   110.09700402   299.78940102
 H      1   2   3     2.099056888145   110.09198734    60.24842255
 H      1   2   3     2.098167487837   109.66994134   180.01123124
 H      2   1   3     2.100484058656   109.52386385   120.72719938
 H      2   1   3     2.100277144446   109.51694508   239.32842043
 H     11  10   9     2.044786657398   121.05399461   359.88442602
 H     12  11  10     2.045584312044   119.81320381   179.86577883
 H     13  12  11     2.042839086930   118.13967206   179.30216296
 H     16  15  14     2.098814094208   111.54469963   167.00667919
 H     16  15  14     2.098966531691   109.89323158    47.91013606
 H     16  15  14     2.097578788240   109.88095688   287.06568220
 H     17  15  14     2.098677649060   111.54681579   166.59780961
 H     17  15  14     2.097672158126   109.87847226   286.63630035
 H     17  15  14     2.098926311525   109.91212226    47.50245721
 H     18  10   9     2.042966772112   118.95063568   359.31947723
 H     21  20  19     1.907117802953   123.35915100   179.96622407

---------------------
BASIS SET INFORMATION
---------------------
There are 5 groups of distinct atoms

 Group   1 Type C   : 10s4p1d contracted to 3s2p1d pattern {631/31/1}
 Group   2 Type N   : 10s4p1d contracted to 3s2p1d pattern {631/31/1}
 Group   3 Type S   : 16s10p1d contracted to 4s3p1d pattern {6631/631/1}
 Group   4 Type O   : 10s4p1d contracted to 3s2p1d pattern {631/31/1}
 Group   5 Type H   : 4s contracted to 2s pattern {31}

Atom   0C    basis set group =>   1
Atom   1C    basis set group =>   1
Atom   2N    basis set group =>   2
Atom   3N    basis set group =>   2
Atom   4N    basis set group =>   2
Atom   5C    basis set group =>   1
Atom   6C    basis set group =>   1
Atom   7S    basis set group =>   3
Atom   8C    basis set group =>   1
Atom   9C    basis set group =>   1
Atom  10C    basis set group =>   1
Atom  11C    basis set group =>   1
Atom  12C    basis set group =>   1
Atom  13C    basis set group =>   1
Atom  14N    basis set group =>   2
Atom  15C    basis set group =>   1
Atom  16C    basis set group =>   1
Atom  17C    basis set group =>   1
Atom  18N    basis set group =>   2
Atom  19C    basis set group =>   1
Atom  20O    basis set group =>   4
Atom  21N    basis set group =>   2
Atom  22H    basis set group =>   5
Atom  23H    basis set group =>   5
Atom  24H    basis set group =>   5
Atom  25H    basis set group =>   5
Atom  26H    basis set group =>   5
Atom  27H    basis set group =>   5
Atom  28H    basis set group =>   5
Atom  29H    basis set group =>   5
Atom  30H    basis set group =>   5
Atom  31H    basis set group =>   5
Atom  32H    basis set group =>   5
Atom  33H    basis set group =>   5
Atom  34H    basis set group =>   5
Atom  35H    basis set group =>   5
Atom  36H    basis set group =>   5
Atom  37H    basis set group =>   5
---------------------------------
AUXILIARY/J BASIS SET INFORMATION
---------------------------------
There are 5 groups of distinct atoms

 Group   1 Type C   : 12s5p4d2f1g contracted to 6s4p3d1f1g pattern {711111/2111/211/2/1}
 Group   2 Type N   : 12s5p4d2f1g contracted to 6s4p3d1f1g pattern {711111/2111/211/2/1}
 Group   3 Type S   : 14s5p5d2f1g contracted to 8s4p3d1f1g pattern {71111111/2111/311/2/1}
 Group   4 Type O   : 12s5p4d2f1g contracted to 6s4p3d1f1g pattern {711111/2111/211/2/1}
 Group   5 Type H   : 5s2p1d contracted to 3s1p1d pattern {311/2/1}

Atom   0C    basis set group =>   1
Atom   1C    basis set group =>   1
Atom   2N    basis set group =>   2
Atom   3N    basis set group =>   2
Atom   4N    basis set group =>   2
Atom   5C    basis set group =>   1
Atom   6C    basis set group =>   1
Atom   7S    basis set group =>   3
Atom   8C    basis set group =>   1
Atom   9C    basis set group =>   1
Atom  10C    basis set group =>   1
Atom  11C    basis set group =>   1
Atom  12C    basis set group =>   1
Atom  13C    basis set group =>   1
Atom  14N    basis set group =>   2
Atom  15C    basis set group =>   1
Atom  16C    basis set group =>   1
Atom  17C    basis set group =>   1
Atom  18N    basis set group =>   2
Atom  19C    basis set group =>   1
Atom  20O    basis set group =>   4
Atom  21N    basis set group =>   2
Atom  22H    basis set group =>   5
Atom  23H    basis set group =>   5
Atom  24H    basis set group =>   5
Atom  25H    basis set group =>   5
Atom  26H    basis set group =>   5
Atom  27H    basis set group =>   5
Atom  28H    basis set group =>   5
Atom  29H    basis set group =>   5
Atom  30H    basis set group =>   5
Atom  31H    basis set group =>   5
Atom  32H    basis set group =>   5
Atom  33H    basis set group =>   5
Atom  34H    basis set group =>   5
Atom  35H    basis set group =>   5
Atom  36H    basis set group =>   5
Atom  37H    basis set group =>   5
------------------------------------------------------------------------------
                             ORCA STARTUP CALCULATIONS
                           -- RI-GTO INTEGRALS CHOSEN --
------------------------------------------------------------------------------
------------------------------------------------------------------------------
                   ___                                                        
                  /   \      - P O W E R E D   B Y -                         
                 /     \                                                     
                 |  |  |   _    _      __       _____    __    __             
                 |  |  |  | |  | |    /  \     |  _  \  |  |  /  |          
                  \  \/   | |  | |   /    \    | | | |  |  | /  /          
                 / \  \   | |__| |  /  /\  \   | |_| |  |  |/  /          
                |  |  |   |  __  | /  /__\  \  |    /   |      \           
                |  |  |   | |  | | |   __   |  |    \   |  |\   \          
                \     /   | |  | | |  |  |  |  | |\  \  |  | \   \       
                 \___/    |_|  |_| |__|  |__|  |_| \__\ |__|  \__/        
                                                                              
                      - O R C A' S   B I G   F R I E N D -                    
                                      &                                       
                       - I N T E G R A L  F E E D E R -                       
                                                                              
 v1 FN, 2020, v2 2021, v3 2022-2024                                           
------------------------------------------------------------------------------


----------------------
SHARK INTEGRAL PACKAGE
----------------------

Number of atoms                             ...     38
Number of basis functions                   ...    344
Number of shells                            ...    166
Maximum angular momentum                    ...      2
Integral batch strategy                     ... SHARK/LIBINT Hybrid
RI-J (if used) integral strategy            ... SPLIT-RIJ (Revised 2003 algorithm where possible)
Printlevel                                  ...      1
Contraction scheme used                     ... SEGMENTED contraction
Prescreening option                         ... SCHWARTZ
   Thresh                                   ... 1.000e-10
   Tcut                                     ... 1.000e-11
   Tpresel                                  ... 1.000e-11 
Coulomb Range Separation                    ... NOT USED
Exchange Range Separation                   ... NOT USED
Multipole approximations                    ... NOT USED
Finite Nucleus Model                        ... NOT USED
CABS basis                                  ... NOT available
Auxiliary Coulomb fitting basis             ... AVAILABLE
   # of basis functions in Aux-J            ...   1256
   # of shells in Aux-J                     ...    412
   Maximum angular momentum in Aux-J        ...      4
Auxiliary J/K fitting basis                 ... NOT available
Auxiliary Correlation fitting basis         ... NOT available
Auxiliary 'external' fitting basis          ... NOT available

Checking pre-screening integrals            ... done (  0.0 sec) Dimension = 166
Check shell pair data                       ... done (  0.0 sec)
Shell pair information
Shell pair cut-off parameter TPreSel        ...   1.0e-11
Total number of shell pairs                 ...     13861
Shell pairs after pre-screening             ...      8001
Total number of primitive shell pairs       ...     83161
Primitive shell pairs kept                  ...     27087
          la=0 lb=0:   2604 shell pairs
          la=1 lb=0:   2776 shell pairs
          la=1 lb=1:    759 shell pairs
          la=2 lb=0:   1106 shell pairs
          la=2 lb=1:    625 shell pairs
          la=2 lb=2:    131 shell pairs

Calculating one electron integrals          ... done (  0.1 sec)
Calculating RI/J V-Matrix + Cholesky decomp.... done (  0.2 sec)
Calculating Nuclear repulsion               ... done (  0.0 sec) ENN=   1799.223442785336 Eh

Diagonalization of the overlap matrix:
Smallest eigenvalue                        ... 4.262e-04
Time for diagonalization                   ...    0.016 sec
Threshold for overlap eigenvalues          ... 1.000e-07
Number of eigenvalues below threshold      ... 0
Time for construction of square roots      ...    0.019 sec
Total time needed                          ...    0.044 sec

-------------------
DFT GRID GENERATION
-------------------

General Integration Accuracy     IntAcc      ... 4.388
Radial Grid Type                 RadialGrid  ... OptM3 with GC (2021)
Angular Grid (max. ang.)         AngularGrid ... 4 (Lebedev-302)
Angular grid pruning method      GridPruning ... 4 (adaptive)
Weight generation scheme         WeightScheme... mBecke (2022)
Basis function cutoff            BFCut       ... 1.0000e-10
Integration weight cutoff        WCut        ... 1.0000e-14
Partially contracted basis set               ... off
Rotationally invariant grid construction     ... off
Angular grids for H and He will be reduced by one unit

Total number of grid points                  ...   184583
Total number of batches                      ...     2902
Average number of points per batch           ...       63
Average number of grid points per atom       ...     4857

--------------------
COSX GRID GENERATION
--------------------

GRIDX 1
-------
General Integration Accuracy     IntAcc      ... 3.816
Radial Grid Type                 RadialGrid  ... OptM3 with GC (2021)
Angular Grid (max. ang.)         AngularGrid ... 1 (Lebedev-50)
Angular grid pruning method      GridPruning ... 4 (adaptive)
Weight generation scheme         WeightScheme... mBecke (2022)
Basis function cutoff            BFCut       ... 1.0000e-10
Integration weight cutoff        WCut        ... 1.0000e-14
Partially contracted basis set               ... on
Rotationally invariant grid construction     ... off
Angular grids for H and He will be reduced by one unit

Total number of grid points                  ...    24512
Total number of batches                      ...      213
Average number of points per batch           ...      115
Average number of grid points per atom       ...      645
UseSFitting                                  ... on

GRIDX 2
-------
General Integration Accuracy     IntAcc      ... 4.020
Radial Grid Type                 RadialGrid  ... OptM3 with GC (2021)
Angular Grid (max. ang.)         AngularGrid ... 2 (Lebedev-110)
Angular grid pruning method      GridPruning ... 4 (adaptive)
Weight generation scheme         WeightScheme... mBecke (2022)
Basis function cutoff            BFCut       ... 1.0000e-10
Integration weight cutoff        WCut        ... 1.0000e-14
Partially contracted basis set               ... on
Rotationally invariant grid construction     ... off
Angular grids for H and He will be reduced by one unit

Total number of grid points                  ...    51190
Total number of batches                      ...      419
Average number of points per batch           ...      122
Average number of grid points per atom       ...     1347
UseSFitting                                  ... on

GRIDX 3
-------
General Integration Accuracy     IntAcc      ... 4.338
Radial Grid Type                 RadialGrid  ... OptM3 with GC (2021)
Angular Grid (max. ang.)         AngularGrid ... 3 (Lebedev-194)
Angular grid pruning method      GridPruning ... 4 (adaptive)
Weight generation scheme         WeightScheme... mBecke (2022)
Basis function cutoff            BFCut       ... 1.0000e-10
Integration weight cutoff        WCut        ... 1.0000e-14
Partially contracted basis set               ... on
Rotationally invariant grid construction     ... off
Angular grids for H and He will be reduced by one unit

Total number of grid points                  ...   112778
Total number of batches                      ...      899
Average number of points per batch           ...      125
Average number of grid points per atom       ...     2968
UseSFitting                                  ... on
Initializing property integral containers    ... done (  0.0 sec)

SHARK setup successfully completed in   7.5 seconds

Maximum memory used throughout the entire STARTUP-calculation: 75.5 MB
-------------------------------------------------------------------------------
                                 ORCA GUESS
                   Start orbitals & Density for SCF / CASSCF
-------------------------------------------------------------------------------

------------
SCF SETTINGS
------------
Hamiltonian:
 Density Functional     Method          .... DFT(GTOs)
 Exchange Functional    Exchange        .... B88
   X-Alpha parameter    XAlpha          ....  0.666667
   Becke's b parameter  XBeta           ....  0.004200
 Correlation Functional Correlation     .... LYP
 LDA part of GGA corr.  LDAOpt          .... VWN-5
 Gradients option       PostSCFGGA      .... off
 Hybrid DFT is turned on
   Fraction HF Exchange ScalHFX         ....  0.200000
   Scaling of DF-GGA-X  ScalDFX         ....  0.720000
   Scaling of DF-GGA-C  ScalDFC         ....  0.810000
   Scaling of DF-LDA-C  ScalLDAC        ....  1.000000
   Perturbative correction              ....  0.000000
   NL short-range parameter             ....  4.800000
 RI-approximation to the Coulomb term is turned on
   Number of AuxJ basis functions       .... 1256
   RIJ-COSX (HFX calculated with COS-X)).... on


General Settings:
 Integral files         IntName         .... /home/nmrbox/aojoawo/Documents/ERDOS/inputs/CHEMBL5287269
 Hartree-Fock type      HFTyp           .... RHF
 Total Charge           Charge          ....    0
 Multiplicity           Mult            ....    1
 Number of Electrons    NEL             ....  166
 Basis Dimension        Dim             ....  344
 Nuclear Repulsion      ENuc            ....   1799.2234427853 Eh

Convergence Acceleration:
 AO-DIIS                CNVDIIS         .... on
   Start iteration      DIISMaxIt       ....    12
   Startup error        DIISStart       ....  0.200000
   # of expansion vecs  DIISMaxEq       ....     5
   Bias factor          DIISBfac        ....   1.050
   Max. coefficient     DIISMaxC        ....  10.000
 MO-DIIS                CNVKDIIS        .... off
 Trust-Rad. Augm. Hess. CNVTRAH         .... auto
   Auto Start mean grad. ratio tolernc. ....  1.125000
   Auto Start start iteration           ....    50
   Auto Start num. interpolation iter.  ....    10
   Max. Number of Micro iterations      ....    24
   Max. Number of Macro iterations      .... Maxiter - #DIIS iter
   Number of Davidson start vectors     ....     2
   Converg. threshold    (grad. norm)   ....   5.000e-05
   Grad. Scal. Fac. for Micro threshold ....   0.100
   Minimum threshold for Micro iter.    ....   1.000e-02
   NR start threshold (gradient norm)   ....   1.000e-04
   Initial trust radius                 ....   0.400
   Minimum AH scaling param. (alpha)    ....   1.000
   Maximum AH scaling param. (alpha)    .... 1000.000
   Quad. conv. algorithm                .... NR
   White noise on init. David. guess    .... on
   Maximum white noise                  ....   0.010
   Pseudo random numbers                .... off
   Inactive MOs                         .... canonical
   Orbital update algorithm             .... Taylor
   Preconditioner                       .... Diag
   Full preconditioner red. dimension   ....   250
 SOSCF                  CNVSOSCF        .... on
   Start iteration      SOSCFMaxIt      ....   150
   Startup grad/error   SOSCFStart      ....  0.003300
   Hessian update       SOSCFHessUp     .... L-BFGS
 Level Shifting         CNVShift        .... on
   Level shift para.    LevelShift      ....    0.2500
   Turn off err/grad.   ShiftErr        ....    0.0010
 Zerner damping         CNVZerner       .... off
 Static damping         CNVDamp         .... on
   Fraction old density DampFac         ....    0.7000
   Max. Damping (<1)    DampMax         ....    0.9800
   Min. Damping (>=0)   DampMin         ....    0.0000
   Turn off err/grad.   DampErr         ....    0.1000

SCF Procedure:
 Maximum # iterations   MaxIter         ....   125
 SCF integral mode      SCFMode         .... Direct
   Integral package                     .... SHARK and LIBINT hybrid scheme
 Reset frequency        DirectResetFreq ....    20
 Integral Threshold     Thresh          ....  1.000e-10 Eh
 Primitive CutOff       TCut            ....  1.000e-11 Eh

Convergence Tolerance:
 Convergence Check Mode ConvCheckMode   .... Total+1el-Energy
 Convergence forced     ConvForced      .... 0
 Energy Change          TolE            ....  1.000e-06 Eh
 1-El. energy change                    ....  1.000e-03 Eh
 Orbital Gradient       TolG            ....  5.000e-05
 Orbital Rotation angle TolX            ....  5.000e-05
 DIIS Error             TolErr          ....  1.000e-06

------------------------------
INITIAL GUESS: MODEL POTENTIAL
------------------------------
Loading Hartree-Fock densities                     ... done
Calculating cut-offs                               ... done
Initializing the effective Hamiltonian             ... done
Setting up the integral package (SHARK)            ... done
Starting the Coulomb interaction                   ... done (   1.4 sec)
Making the grid                                    ... done (   0.9 sec)
Mapping shells                                     ... done
Starting the XC term evaluation                    ... done (   0.7 sec)
  promolecular density results
     # of electrons  =    165.991355749
     EX              =   -149.387179013
     EC              =     -5.792486970
     EX+EC           =   -155.179665982
Transforming the Hamiltonian                       ... done (   0.0 sec)
Diagonalizing the Hamiltonian                      ... done (   0.0 sec)
Back transforming the eigenvectors                 ... done (   0.0 sec)
Now organizing SCF variables                       ... done
                      ------------------
                      INITIAL GUESS DONE (   3.1 sec)
                      ------------------
             **** ENERGY FILE WAS UPDATED (/home/nmrbox/aojoawo/Documents/ERDOS/inputs/CHEMBL5287269.en.tmp) ****
Finished Guess after   3.3 sec
Maximum memory used throughout the entire GUESS-calculation: 38.6 MB

-------------------------------------------------------------------------------------------
                                      ORCA LEAN-SCF
                              memory conserving SCF solver
-------------------------------------------------------------------------------------------

----------------------------------------D-I-I-S--------------------------------------------
Iteration    Energy (Eh)           Delta-E    RMSDP     MaxDP     DIISErr   Damp  Time(sec)
-------------------------------------------------------------------------------------------
               ***  Starting incremental Fock matrix formation  ***
    1    -1343.8382210824875074     0.00e+00  2.33e-03  8.88e-02  2.19e-01  0.700  32.3
Warning: op=0 Small HOMO/LUMO gap (   0.096) - skipping pre-diagonalization
         Will do a full diagonalization
    2    -1344.0712365021095138    -2.33e-01  1.64e-03  5.53e-02  9.66e-02  0.700  15.2
                               ***Turning on AO-DIIS***
    3    -1344.1627344962839743    -9.15e-02  6.89e-04  2.29e-02  3.27e-02  0.700  15.0
    4    -1344.2164239064027242    -5.37e-02  1.20e-03  5.86e-02  1.62e-02  0.000  13.6
    5    -1344.3346488728539043    -1.18e-01  2.65e-04  9.99e-03  6.14e-03  0.000  14.5
                              *** Initializing SOSCF ***
---------------------------------------S-O-S-C-F--------------------------------------
Iteration    Energy (Eh)           Delta-E    RMSDP     MaxDP     MaxGrad    Time(sec)
--------------------------------------------------------------------------------------
    6    -1344.3354902916757965    -8.41e-04  9.22e-05  3.04e-03  2.56e-03    12.8
               *** Restarting incremental Fock matrix formation ***
    7    -1344.3354750695207258     1.52e-05  7.02e-05  2.53e-03  4.26e-04    32.2
    8    -1344.3354594358252143     1.56e-05  4.09e-05  1.87e-03  8.07e-04    20.5
    9    -1344.3354918264235494    -3.24e-05  2.06e-05  7.68e-04  1.74e-04    18.5
   10    -1344.3354904190832713     1.41e-06  1.06e-05  5.58e-04  1.83e-04    16.7
   11    -1344.3354928973949427    -2.48e-06  5.08e-06  2.28e-04  3.69e-05    14.5
   12    -1344.3354928557537278     4.16e-08  2.92e-06  1.64e-04  5.88e-05    12.7
                 **** Energy Check signals convergence ****

               *****************************************************
               *                     SUCCESS                       *
               *           SCF CONVERGED AFTER  12 CYCLES          *
               *****************************************************

Recomputing exchange energy using gridx3       ... done (   56.214 sec)
Old exchange energy                            :    -30.213112759 Eh
New exchange energy                            :    -30.213135130 Eh
Exchange energy change after final integration :     -0.000022371 Eh
Total energy after final integration           :  -1344.335515227 Eh
             **** ENERGY FILE WAS UPDATED (/home/nmrbox/aojoawo/Documents/ERDOS/inputs/CHEMBL5287269.en.tmp) ****

----------------
TOTAL SCF ENERGY
----------------

Total Energy       :      -1344.33551522695052 Eh          -36581.22912 eV

Components:
Nuclear Repulsion  :       1799.22344278533592 Eh           48959.35892 eV
Electronic Energy  :      -3143.55893564108965 Eh          -85540.58744 eV
One Electron Energy:      -5410.31300709880452 Eh         -147222.10155 eV
Two Electron Energy:       2266.75407145771487 Eh           61681.51411 eV

Virial components:
Potential Energy   :      -2681.72015576519652 Eh          -72973.31533 eV
Kinetic Energy     :       1337.38464053824600 Eh           36392.08621 eV
Virial Ratio       :          2.00519736392808

DFT components:
N(Alpha)           :       82.999998344510 electrons
N(Beta)            :       82.999998344510 electrons
N(Total)           :      165.999996689021 electrons
E(X)               :     -120.079435369818 Eh       
E(C)               :       -6.806194695938 Eh       
E(XC)              :     -126.885630065756 Eh       

---------------
SCF CONVERGENCE
---------------

  Last Energy change         ...   -4.1641e-08  Tolerance :   1.0000e-06
  Last MAX-Density change    ...    1.6376e-04  Tolerance :   1.0000e-05
  Last RMS-Density change    ...    2.9229e-06  Tolerance :   1.0000e-06
  Last DIIS Error            ...    2.5640e-03  Tolerance :   1.0000e-06
  Last Orbital Gradient      ...    5.8801e-05  Tolerance :   5.0000e-05
  Last Orbital Rotation      ...    1.0893e-04  Tolerance :   5.0000e-05


----------------
ORBITAL ENERGIES
----------------

  NO   OCC          E(Eh)            E(eV) 
   0   2.0000     -88.893465     -2418.9142 
   1   2.0000     -19.164684      -521.4976 
   2   2.0000     -14.463488      -393.5715 
   3   2.0000     -14.401906      -391.8958 
   4   2.0000     -14.376210      -391.1966 
   5   2.0000     -14.361528      -390.7970 
   6   2.0000     -14.334065      -390.0497 
   7   2.0000     -14.324384      -389.7863 
   8   2.0000     -10.280635      -279.7503 
   9   2.0000     -10.259940      -279.1872 
  10   2.0000     -10.255626      -279.0698 
  11   2.0000     -10.249890      -278.9137 
  12   2.0000     -10.221564      -278.1429 
  13   2.0000     -10.214877      -277.9609 
  14   2.0000     -10.207861      -277.7700 
  15   2.0000     -10.204931      -277.6903 
  16   2.0000     -10.199692      -277.5477 
  17   2.0000     -10.198717      -277.5212 
  18   2.0000     -10.179142      -276.9885 
  19   2.0000     -10.175048      -276.8771 
  20   2.0000     -10.174302      -276.8568 
  21   2.0000     -10.173927      -276.8466 
  22   2.0000      -7.970252      -216.8816 
  23   2.0000      -5.933188      -161.4503 
  24   2.0000      -5.929235      -161.3427 
  25   2.0000      -5.927322      -161.2906 
  26   2.0000      -1.151052       -31.3217 
  27   2.0000      -1.033939       -28.1349 
  28   2.0000      -0.955639       -26.0043 
  29   2.0000      -0.951469       -25.8908 
  30   2.0000      -0.916448       -24.9378 
  31   2.0000      -0.900450       -24.5025 
  32   2.0000      -0.842018       -22.9125 
  33   2.0000      -0.814903       -22.1746 
  34   2.0000      -0.790271       -21.5044 
  35   2.0000      -0.769486       -20.9388 
  36   2.0000      -0.738245       -20.0887 
  37   2.0000      -0.721801       -19.6412 
  38   2.0000      -0.707389       -19.2490 
  39   2.0000      -0.691031       -18.8039 
  40   2.0000      -0.664898       -18.0928 
  41   2.0000      -0.643788       -17.5184 
  42   2.0000      -0.620379       -16.8814 
  43   2.0000      -0.611287       -16.6340 
  44   2.0000      -0.598755       -16.2930 
  45   2.0000      -0.577207       -15.7066 
  46   2.0000      -0.546770       -14.8784 
  47   2.0000      -0.537345       -14.6219 
  48   2.0000      -0.524797       -14.2804 
  49   2.0000      -0.507374       -13.8063 
  50   2.0000      -0.503375       -13.6975 
  51   2.0000      -0.478944       -13.0327 
  52   2.0000      -0.469838       -12.7849 
  53   2.0000      -0.467775       -12.7288 
  54   2.0000      -0.452670       -12.3178 
  55   2.0000      -0.449485       -12.2311 
  56   2.0000      -0.436810       -11.8862 
  57   2.0000      -0.432620       -11.7722 
  58   2.0000      -0.419455       -11.4139 
  59   2.0000      -0.417680       -11.3657 
  60   2.0000      -0.409159       -11.1338 
  61   2.0000      -0.401026       -10.9125 
  62   2.0000      -0.399587       -10.8733 
  63   2.0000      -0.397945       -10.8286 
  64   2.0000      -0.388749       -10.5784 
  65   2.0000      -0.385792       -10.4979 
  66   2.0000      -0.376634       -10.2487 
  67   2.0000      -0.371802       -10.1172 
  68   2.0000      -0.368226       -10.0200 
  69   2.0000      -0.353382        -9.6160 
  70   2.0000      -0.342785        -9.3277 
  71   2.0000      -0.340518        -9.2660 
  72   2.0000      -0.331815        -9.0291 
  73   2.0000      -0.321241        -8.7414 
  74   2.0000      -0.315578        -8.5873 
  75   2.0000      -0.307038        -8.3549 
  76   2.0000      -0.291410        -7.9297 
  77   2.0000      -0.273029        -7.4295 
  78   2.0000      -0.265133        -7.2146 
  79   2.0000      -0.263976        -7.1832 
  80   2.0000      -0.248787        -6.7698 
  81   2.0000      -0.202901        -5.5212 
  82   2.0000      -0.183408        -4.9908 
  83   0.0000      -0.052438        -1.4269 
  84   0.0000      -0.025439        -0.6922 
  85   0.0000       0.008447         0.2299 
  86   0.0000       0.019714         0.5364 
  87   0.0000       0.043357         1.1798 
  88   0.0000       0.059828         1.6280 
  89   0.0000       0.076825         2.0905 
  90   0.0000       0.085540         2.3277 
  91   0.0000       0.088184         2.3996 
  92   0.0000       0.098035         2.6677 
  93   0.0000       0.108028         2.9396 
*Only the first 10 virtual orbitals were printed.

                    ********************************
                    * MULLIKEN POPULATION ANALYSIS *
                    ********************************

-----------------------
MULLIKEN ATOMIC CHARGES
-----------------------
   0 C :   -0.444777
   1 C :   -0.147447
   2 N :   -0.023787
   3 N :   -0.060315
   4 N :   -0.320589
   5 C :    0.428977
   6 C :   -0.246644
   7 S :    0.292626
   8 C :   -0.016487
   9 C :    0.148533
  10 C :   -0.204966
  11 C :   -0.133972
  12 C :   -0.180493
  13 C :    0.327286
  14 N :   -0.450143
  15 C :   -0.303589
  16 C :   -0.305775
  17 C :   -0.230796
  18 N :   -0.407502
  19 C :    0.491001
  20 O :   -0.656746
  21 N :   -0.362030
  22 H :    0.176721
  23 H :    0.171025
  24 H :    0.159661
  25 H :    0.192065
  26 H :    0.185473
  27 H :    0.139162
  28 H :    0.130943
  29 H :    0.126795
  30 H :    0.153907
  31 H :    0.156364
  32 H :    0.146417
  33 H :    0.151179
  34 H :    0.154527
  35 H :    0.160158
  36 H :    0.162437
  37 H :    0.440801
Sum of atomic charges:   -0.0000000

--------------------------------
MULLIKEN REDUCED ORBITAL CHARGES
--------------------------------
  0 C s       :     3.312775  s :     3.312775
      pz      :     1.090413  p :     3.098562
      px      :     1.065966
      py      :     0.942182
      dz2     :     0.009659  d :     0.033440
      dxz     :     0.004836
      dyz     :     0.004626
      dx2y2   :     0.007350
      dxy     :     0.006970

  1 C s       :     3.226758  s :     3.226758
      pz      :     1.042597  p :     2.868653
      px      :     0.819243
      py      :     1.006812
      dz2     :     0.011983  d :     0.052036
      dxz     :     0.008861
      dyz     :     0.006152
      dx2y2   :     0.011512
      dxy     :     0.013527

  2 N s       :     3.428481  s :     3.428481
      pz      :     1.069791  p :     3.513607
      px      :     1.061632
      py      :     1.382184
      dz2     :     0.020886  d :     0.081699
      dxz     :     0.023271
      dyz     :     0.012367
      dx2y2   :     0.012302
      dxy     :     0.012873

  3 N s       :     3.670871  s :     3.670871
      pz      :     1.030589  p :     3.319227
      px      :     1.167583
      py      :     1.121055
      dz2     :     0.020770  d :     0.070218
      dxz     :     0.012824
      dyz     :     0.012358
      dx2y2   :     0.012800
      dxy     :     0.011465

  4 N s       :     3.739451  s :     3.739451
      pz      :     1.382530  p :     3.526989
      px      :     0.943987
      py      :     1.200472
      dz2     :     0.012453  d :     0.054149
      dxz     :     0.013791
      dyz     :     0.008016
      dx2y2   :     0.010340
      dxy     :     0.009549

  5 C s       :     3.012857  s :     3.012857
      pz      :     0.789613  p :     2.484718
      px      :     0.744413
      py      :     0.950693
      dz2     :     0.017853  d :     0.073449
      dxz     :     0.021604
      dyz     :     0.010587
      dx2y2   :     0.010508
      dxy     :     0.012897

  6 C s       :     3.215600  s :     3.215600
      pz      :     0.913913  p :     2.993670
      px      :     0.897356
      py      :     1.182401
      dz2     :     0.007111  d :     0.037373
      dxz     :     0.011827
      dyz     :     0.005232
      dx2y2   :     0.006327
      dxy     :     0.006877

  7 S s       :     5.801545  s :     5.801545
      pz      :     3.301839  p :     9.799713
      px      :     2.927633
      py      :     3.570240
      dz2     :     0.012408  d :     0.106116
      dxz     :     0.044971
      dyz     :     0.011129
      dx2y2   :     0.012899
      dxy     :     0.024709

  8 C s       :     3.183182  s :     3.183182
      pz      :     0.853919  p :     2.772809
      px      :     0.919497
      py      :     0.999393
      dz2     :     0.013716  d :     0.060496
      dxz     :     0.020259
      dyz     :     0.009526
      dx2y2   :     0.007690
      dxy     :     0.009305

  9 C s       :     3.134617  s :     3.134617
      pz      :     0.867178  p :     2.676175
      px      :     0.835023
      py      :     0.973974
      dz2     :     0.010009  d :     0.040674
      dxz     :     0.010798
      dyz     :     0.006568
      dx2y2   :     0.007166
      dxy     :     0.006132

 10 C s       :     3.188421  s :     3.188421
      pz      :     0.975898  p :     2.980871
      px      :     0.977206
      py      :     1.027766
      dz2     :     0.007488  d :     0.035674
      dxz     :     0.013031
      dyz     :     0.004590
      dx2y2   :     0.005381
      dxy     :     0.005184

 11 C s       :     3.192953  s :     3.192953
      pz      :     0.983591  p :     2.903891
      px      :     0.937315
      py      :     0.982986
      dz2     :     0.009338  d :     0.037128
      dxz     :     0.010454
      dyz     :     0.004081
      dx2y2   :     0.005879
      dxy     :     0.007376

 12 C s       :     3.184833  s :     3.184833
      pz      :     0.955070  p :     2.960944
      px      :     0.962096
      py      :     1.043778
      dz2     :     0.009452  d :     0.034715
      dxz     :     0.009368
      dyz     :     0.005413
      dx2y2   :     0.007214
      dxy     :     0.003268

 13 C s       :     3.081017  s :     3.081017
      pz      :     0.791007  p :     2.536718
      px      :     0.794859
      py      :     0.950853
      dz2     :     0.013907  d :     0.054978
      dxz     :     0.016342
      dyz     :     0.007045
      dx2y2   :     0.007223
      dxy     :     0.010460

 14 N s       :     3.551398  s :     3.551398
      pz      :     1.302986  p :     3.865058
      px      :     1.117568
      py      :     1.444503
      dz2     :     0.006191  d :     0.033687
      dxz     :     0.008628
      dyz     :     0.005307
      dx2y2   :     0.006726
      dxy     :     0.006835

 15 C s       :     3.264049  s :     3.264049
      pz      :     1.082745  p :     2.990374
      px      :     0.859374
      py      :     1.048255
      dz2     :     0.007989  d :     0.049166
      dxz     :     0.013840
      dyz     :     0.003535
      dx2y2   :     0.014273
      dxy     :     0.009529

 16 C s       :     3.266074  s :     3.266074
      pz      :     0.933324  p :     2.990645
      px      :     1.083108
      py      :     0.974213
      dz2     :     0.009564  d :     0.049055
      dxz     :     0.010853
      dyz     :     0.013284
      dx2y2   :     0.007313
      dxy     :     0.008042

 17 C s       :     3.210600  s :     3.210600
      pz      :     0.996357  p :     2.986300
      px      :     0.955523
      py      :     1.034420
      dz2     :     0.008760  d :     0.033896
      dxz     :     0.009573
      dyz     :     0.003892
      dx2y2   :     0.005644
      dxy     :     0.006026

 18 N s       :     3.713447  s :     3.713447
      pz      :     1.249169  p :     3.656151
      px      :     1.192649
      py      :     1.214332
      dz2     :     0.011218  d :     0.037905
      dxz     :     0.005693
      dyz     :     0.006908
      dx2y2   :     0.007793
      dxy     :     0.006294

 19 C s       :     2.994656  s :     2.994656
      pz      :     0.714864  p :     2.427393
      px      :     0.793967
      py      :     0.918562
      dz2     :     0.021396  d :     0.086951
      dxz     :     0.026079
      dyz     :     0.013707
      dx2y2   :     0.012019
      dxy     :     0.013749

 20 O s       :     3.884672  s :     3.884672
      pz      :     1.531983  p :     4.750086
      px      :     1.410360
      py      :     1.807742
      dz2     :     0.007921  d :     0.021988
      dxz     :     0.001434
      dyz     :     0.004491
      dx2y2   :     0.007301
      dxy     :     0.000842

 21 N s       :     3.717771  s :     3.717771
      pz      :     1.439393  p :     3.591737
      px      :     0.881325
      py      :     1.271019
      dz2     :     0.008358  d :     0.052522
      dxz     :     0.018780
      dyz     :     0.007529
      dx2y2   :     0.006837
      dxy     :     0.011018

 22 H s       :     0.823279  s :     0.823279

 23 H s       :     0.828975  s :     0.828975

 24 H s       :     0.840339  s :     0.840339

 25 H s       :     0.807935  s :     0.807935

 26 H s       :     0.814527  s :     0.814527

 27 H s       :     0.860838  s :     0.860838

 28 H s       :     0.869057  s :     0.869057

 29 H s       :     0.873205  s :     0.873205

 30 H s       :     0.846093  s :     0.846093

 31 H s       :     0.843636  s :     0.843636

 32 H s       :     0.853583  s :     0.853583

 33 H s       :     0.848821  s :     0.848821

 34 H s       :     0.845473  s :     0.845473

 35 H s       :     0.839842  s :     0.839842

 36 H s       :     0.837563  s :     0.837563

 37 H s       :     0.559199  s :     0.559199



                     *******************************
                     * LOEWDIN POPULATION ANALYSIS *
                     *******************************

----------------------
LOEWDIN ATOMIC CHARGES
----------------------
   0 C :   -0.362274
   1 C :   -0.153182
   2 N :    0.097121
   3 N :   -0.068612
   4 N :   -0.122577
   5 C :    0.000302
   6 C :   -0.270448
   7 S :    0.421384
   8 C :   -0.109893
   9 C :   -0.024786
  10 C :   -0.149982
  11 C :   -0.121910
  12 C :   -0.156721
  13 C :    0.046542
  14 N :   -0.139572
  15 C :   -0.268024
  16 C :   -0.268737
  17 C :   -0.141149
  18 N :   -0.165031
  19 C :    0.100597
  20 O :   -0.338383
  21 N :   -0.160717
  22 H :    0.140369
  23 H :    0.137424
  24 H :    0.136151
  25 H :    0.152076
  26 H :    0.148476
  27 H :    0.136355
  28 H :    0.133801
  29 H :    0.133685
  30 H :    0.130194
  31 H :    0.124743
  32 H :    0.113432
  33 H :    0.128810
  34 H :    0.117848
  35 H :    0.127004
  36 H :    0.151279
  37 H :    0.344408

-------------------------------
LOEWDIN REDUCED ORBITAL CHARGES
-------------------------------
  0 C s       :     2.987989  s :     2.987989
      pz      :     1.137126  p :     3.308142
      px      :     1.122017
      py      :     1.048999
      dz2     :     0.018194  d :     0.066143
      dxz     :     0.008339
      dyz     :     0.009590
      dx2y2   :     0.015672
      dxy     :     0.014347

  1 C s       :     2.929883  s :     2.929883
      pz      :     1.093640  p :     3.113417
      px      :     0.928793
      py      :     1.090984
      dz2     :     0.024404  d :     0.109882
      dxz     :     0.019118
      dyz     :     0.011312
      dx2y2   :     0.026422
      dxy     :     0.028625

  2 N s       :     3.067197  s :     3.067197
      pz      :     1.163319  p :     3.645900
      px      :     1.142730
      py      :     1.339851
      dz2     :     0.051907  d :     0.189781
      dxz     :     0.057443
      dyz     :     0.028375
      dx2y2   :     0.025975
      dxy     :     0.026081

  3 N s       :     3.306161  s :     3.306161
      pz      :     1.181636  p :     3.608243
      px      :     1.288866
      py      :     1.137740
      dz2     :     0.048042  d :     0.154209
      dxz     :     0.031863
      dyz     :     0.026130
      dx2y2   :     0.027182
      dxy     :     0.020992

  4 N s       :     3.298952  s :     3.298952
      pz      :     1.413992  p :     3.707550
      px      :     1.097002
      py      :     1.196556
      dz2     :     0.025469  d :     0.116075
      dxz     :     0.032409
      dyz     :     0.011858
      dx2y2   :     0.026366
      dxy     :     0.019972

  5 C s       :     2.860044  s :     2.860044
      pz      :     0.991450  p :     2.963738
      px      :     1.000601
      py      :     0.971686
      dz2     :     0.043872  d :     0.175916
      dxz     :     0.057916
      dyz     :     0.024107
      dx2y2   :     0.023179
      dxy     :     0.026843

  6 C s       :     2.918011  s :     2.918011
      pz      :     1.059672  p :     3.256386
      px      :     1.023733
      py      :     1.172981
      dz2     :     0.019426  d :     0.096052
      dxz     :     0.034694
      dyz     :     0.012182
      dx2y2   :     0.014863
      dxy     :     0.014887

  7 S s       :     5.516723  s :     5.516723
      pz      :     3.397407  p :     9.936005
      px      :     2.977836
      py      :     3.560762
      dz2     :     0.013610  d :     0.125888
      dxz     :     0.054813
      dyz     :     0.011743
      dx2y2   :     0.016261
      dxy     :     0.029461

  8 C s       :     2.919019  s :     2.919019
      pz      :     1.008935  p :     3.050893
      px      :     1.037692
      py      :     1.004266
      dz2     :     0.033533  d :     0.139980
      dxz     :     0.050589
      dyz     :     0.020812
      dx2y2   :     0.016279
      dxy     :     0.018768

  9 C s       :     2.864927  s :     2.864927
      pz      :     1.056346  p :     3.055722
      px      :     1.005784
      py      :     0.993593
      dz2     :     0.027015  d :     0.104136
      dxz     :     0.030380
      dyz     :     0.015066
      dx2y2   :     0.017952
      dxy     :     0.013723

 10 C s       :     2.910354  s :     2.910354
      pz      :     1.054126  p :     3.155994
      px      :     1.071853
      py      :     1.030014
      dz2     :     0.018752  d :     0.083634
      dxz     :     0.031347
      dyz     :     0.009629
      dx2y2   :     0.012716
      dxy     :     0.011190

 11 C s       :     2.913903  s :     2.913903
      pz      :     1.061570  p :     3.120459
      px      :     1.071202
      py      :     0.987686
      dz2     :     0.020482  d :     0.087549
      dxz     :     0.027013
      dyz     :     0.007163
      dx2y2   :     0.015896
      dxy     :     0.016994

 12 C s       :     2.914510  s :     2.914510
      pz      :     1.045271  p :     3.160637
      px      :     1.074737
      py      :     1.040629
      dz2     :     0.023965  d :     0.081574
      dxz     :     0.024493
      dyz     :     0.012647
      dx2y2   :     0.013728
      dxy     :     0.006741

 13 C s       :     2.861287  s :     2.861287
      pz      :     0.997196  p :     2.960850
      px      :     0.997659
      py      :     0.965995
      dz2     :     0.033988  d :     0.131322
      dxz     :     0.042342
      dyz     :     0.014977
      dx2y2   :     0.017356
      dxy     :     0.022658

 14 N s       :     3.094677  s :     3.094677
      pz      :     1.326794  p :     3.962027
      px      :     1.171272
      py      :     1.463961
      dz2     :     0.015417  d :     0.082868
      dxz     :     0.021671
      dyz     :     0.012191
      dx2y2   :     0.016649
      dxy     :     0.016941

 15 C s       :     2.972834  s :     2.972834
      pz      :     1.132571  p :     3.198560
      px      :     0.961693
      py      :     1.104296
      dz2     :     0.015220  d :     0.096630
      dxz     :     0.027653
      dyz     :     0.005968
      dx2y2   :     0.028545
      dxy     :     0.019245

 16 C s       :     2.973016  s :     2.973016
      pz      :     1.018693  p :     3.199262
      px      :     1.131875
      py      :     1.048695
      dz2     :     0.019626  d :     0.096459
      dxz     :     0.021369
      dyz     :     0.026119
      dx2y2   :     0.014147
      dxy     :     0.015198

 17 C s       :     2.913844  s :     2.913844
      pz      :     1.075499  p :     3.148607
      px      :     1.036355
      py      :     1.036754
      dz2     :     0.019208  d :     0.078698
      dxz     :     0.024660
      dyz     :     0.006611
      dx2y2   :     0.015077
      dxy     :     0.013141

 18 N s       :     3.247964  s :     3.247964
      pz      :     1.339315  p :     3.834762
      px      :     1.273959
      py      :     1.221489
      dz2     :     0.026117  d :     0.082305
      dxz     :     0.012992
      dyz     :     0.013081
      dx2y2   :     0.018133
      dxy     :     0.011981

 19 C s       :     2.845213  s :     2.845213
      pz      :     0.918147  p :     2.851467
      px      :     0.981438
      py      :     0.951883
      dz2     :     0.051169  d :     0.202723
      dxz     :     0.064334
      dyz     :     0.029975
      dx2y2   :     0.028461
      dxy     :     0.028784

 20 O s       :     3.526302  s :     3.526302
      pz      :     1.550075  p :     4.769998
      px      :     1.421275
      py      :     1.798649
      dz2     :     0.015325  d :     0.042083
      dxz     :     0.005146
      dyz     :     0.008176
      dx2y2   :     0.011257
      dxy     :     0.002178

 21 N s       :     3.274732  s :     3.274732
      pz      :     1.477951  p :     3.769626
      px      :     1.022656
      py      :     1.269018
      dz2     :     0.014718  d :     0.116359
      dxz     :     0.045883
      dyz     :     0.009693
      dx2y2   :     0.019288
      dxy     :     0.026776

 22 H s       :     0.859631  s :     0.859631

 23 H s       :     0.862576  s :     0.862576

 24 H s       :     0.863849  s :     0.863849

 25 H s       :     0.847924  s :     0.847924

 26 H s       :     0.851524  s :     0.851524

 27 H s       :     0.863645  s :     0.863645

 28 H s       :     0.866199  s :     0.866199

 29 H s       :     0.866315  s :     0.866315

 30 H s       :     0.869806  s :     0.869806

 31 H s       :     0.875257  s :     0.875257

 32 H s       :     0.886568  s :     0.886568

 33 H s       :     0.871190  s :     0.871190

 34 H s       :     0.882152  s :     0.882152

 35 H s       :     0.872996  s :     0.872996

 36 H s       :     0.848721  s :     0.848721

 37 H s       :     0.655592  s :     0.655592



                      *****************************
                      * MAYER POPULATION ANALYSIS *
                      *****************************

  NA   - Mulliken gross atomic population
  ZA   - Total nuclear charge
  QA   - Mulliken gross atomic charge
  VA   - Mayer's total valence
  BVA  - Mayer's bonded valence
  FA   - Mayer's free valence

  ATOM       NA         ZA         QA         VA         BVA        FA
  0 C      6.4448     6.0000    -0.4448     3.8123     3.8123    -0.0000
  1 C      6.1474     6.0000    -0.1474     3.7805     3.7805    -0.0000
  2 N      7.0238     7.0000    -0.0238     3.4822     3.4822     0.0000
  3 N      7.0603     7.0000    -0.0603     2.8533     2.8533    -0.0000
  4 N      7.3206     7.0000    -0.3206     2.9118     2.9118    -0.0000
  5 C      5.5710     6.0000     0.4290     3.7843     3.7843     0.0000
  6 C      6.2466     6.0000    -0.2466     3.7208     3.7208    -0.0000
  7 S     15.7074    16.0000     0.2926     2.4756     2.4756     0.0000
  8 C      6.0165     6.0000    -0.0165     3.8280     3.8280     0.0000
  9 C      5.8515     6.0000     0.1485     3.9658     3.9658     0.0000
 10 C      6.2050     6.0000    -0.2050     3.9188     3.9188    -0.0000
 11 C      6.1340     6.0000    -0.1340     3.9640     3.9640    -0.0000
 12 C      6.1805     6.0000    -0.1805     3.9061     3.9061    -0.0000
 13 C      5.6727     6.0000     0.3273     3.8687     3.8687     0.0000
 14 N      7.4501     7.0000    -0.4501     3.0301     3.0301     0.0000
 15 C      6.3036     6.0000    -0.3036     3.8321     3.8321    -0.0000
 16 C      6.3058     6.0000    -0.3058     3.8268     3.8268     0.0000
 17 C      6.2308     6.0000    -0.2308     3.8580     3.8580    -0.0000
 18 N      7.4075     7.0000    -0.4075     2.9643     2.9643     0.0000
 19 C      5.5090     6.0000     0.4910     3.8693     3.8693    -0.0000
 20 O      8.6567     8.0000    -0.6567     1.8401     1.8401    -0.0000
 21 N      7.3620     7.0000    -0.3620     2.8497     2.8497     0.0000
 22 H      0.8233     1.0000     0.1767     0.9323     0.9323     0.0000
 23 H      0.8290     1.0000     0.1710     0.9336     0.9336     0.0000
 24 H      0.8403     1.0000     0.1597     0.9345     0.9345     0.0000
 25 H      0.8079     1.0000     0.1921     0.9261     0.9261    -0.0000
 26 H      0.8145     1.0000     0.1855     0.9272     0.9272     0.0000
 27 H      0.8608     1.0000     0.1392     0.9369     0.9369    -0.0000
 28 H      0.8691     1.0000     0.1309     0.9376     0.9376    -0.0000
 29 H      0.8732     1.0000     0.1268     0.9414     0.9414    -0.0000
 30 H      0.8461     1.0000     0.1539     0.9383     0.9383    -0.0000
 31 H      0.8436     1.0000     0.1564     0.9313     0.9313     0.0000
 32 H      0.8536     1.0000     0.1464     0.9239     0.9239    -0.0000
 33 H      0.8488     1.0000     0.1512     0.9382     0.9382    -0.0000
 34 H      0.8455     1.0000     0.1545     0.9230     0.9230    -0.0000
 35 H      0.8398     1.0000     0.1602     0.9310     0.9310     0.0000
 36 H      0.8376     1.0000     0.1624     0.9472     0.9472    -0.0000
 37 H      0.5592     1.0000     0.4408     0.7983     0.7983    -0.0000

  Mayer bond orders larger than 0.100000
B(  0-C ,  1-C ) :   1.0033 B(  0-C , 22-H ) :   0.9434 B(  0-C , 23-H ) :   0.9443 
B(  0-C , 24-H ) :   0.9417 B(  1-C ,  2-N ) :   0.8980 B(  1-C , 25-H ) :   0.9259 
B(  1-C , 26-H ) :   0.9275 B(  2-N ,  3-N ) :   1.2489 B(  2-N , 21-N ) :   1.2188 
B(  3-N ,  4-N ) :   1.4262 B(  3-N , 21-N ) :   0.1318 B(  4-N ,  5-C ) :   1.2862 
B(  5-C ,  6-C ) :   1.0581 B(  5-C , 21-N ) :   1.3582 B(  6-C ,  7-S ) :   1.0777 
B(  6-C ,  8-C ) :   0.1198 B(  6-C , 19-C ) :   1.3806 B(  7-S ,  8-C ) :   1.1521 
B(  8-C ,  9-C ) :   1.0199 B(  8-C , 18-N ) :   1.4285 B(  9-C , 10-C ) :   1.3853 
B(  9-C , 17-C ) :   1.4043 B( 10-C , 11-C ) :   1.4407 B( 10-C , 27-H ) :   0.9166 
B( 11-C , 12-C ) :   1.4483 B( 11-C , 28-H ) :   0.9289 B( 12-C , 13-C ) :   1.3673 
B( 12-C , 29-H ) :   0.9194 B( 13-C , 14-N ) :   0.9971 B( 13-C , 17-C ) :   1.3454 
B( 14-N , 15-C ) :   0.9771 B( 14-N , 16-C ) :   0.9723 B( 15-C , 30-H ) :   0.9453 
B( 15-C , 31-H ) :   0.9363 B( 15-C , 32-H ) :   0.9313 B( 16-C , 33-H ) :   0.9452 
B( 16-C , 34-H ) :   0.9307 B( 16-C , 35-H ) :   0.9359 B( 17-C , 36-H ) :   0.8985 
B( 18-N , 19-C ) :   1.3195 B( 19-C , 20-O ) :   1.0084 B( 20-O , 37-H ) :   0.7201 


-------
TIMINGS
-------

Total SCF time: 0 days 0 hours 4 min 34 sec 

Total time                  ....     274.925 sec
Sum of individual times     ....     274.558 sec  ( 99.9%)

SCF preparation             ....       0.242 sec  (  0.1%)
Fock matrix formation       ....     273.062 sec  ( 99.3%)
  Startup                   ....       0.067 sec  (  0.0% of F)
  Split-RI-J                ....      31.692 sec  ( 11.6% of F)
  Chain of spheres X        ....     213.385 sec  ( 78.1% of F)
  XC integration            ....      27.150 sec  (  9.9% of F)
    XC Preparation          ....       0.000 sec  (  0.0% of XC)
    Basis function eval.    ....      10.849 sec  ( 40.0% of XC)
    Density eval.           ....       6.023 sec  ( 22.2% of XC)
    XC-Functional eval.     ....       1.647 sec  (  6.1% of XC)
    XC-Potential eval.      ....       7.185 sec  ( 26.5% of XC)
Diagonalization             ....       0.000 sec  (  0.0%)
Density matrix formation    ....       0.222 sec  (  0.1%)
Total Energy calculation    ....       0.049 sec  (  0.0%)
Population analysis         ....       0.046 sec  (  0.0%)
Orbital Transformation      ....       0.106 sec  (  0.0%)
Orbital Orthonormalization  ....       0.000 sec  (  0.0%)
DIIS solution               ....       0.492 sec  (  0.2%)
SOSCF solution              ....       0.339 sec  (  0.1%)
Finished LeanSCF after 275.0 sec

Maximum memory used throughout the entire LEANSCF-calculation: 49.4 MB

-------------------------   --------------------
FINAL SINGLE POINT ENERGY     -1344.335515226951
-------------------------   --------------------


------------------------------------------------------------------------------
                              ORCA PROPERTY CALCULATIONS
------------------------------------------------------------------------------

GBWName                                 ... /home/nmrbox/aojoawo/Documents/ERDOS/inputs/CHEMBL5287269.gbw
Number of atoms                         ...     38
Number of basis functions               ...    344
Max core memory                         ...   1024 MB

Electric properties:
Dipole moment                           ... YES
Quadrupole moment                       ...  NO
Static polarizability (Dipole/Dipole)   ...  NO
Static polarizability (Dipole/Quad.)    ...  NO
Static polarizability (Quad./Quad.)     ...  NO
Static polarizability (Velocity)        ...  NO

Atomic electric properties:
Dipole moment                           ...  NO
Quadrupole moment                       ...  NO
Static polarizability                   ...  NO

Choice of electric origin               ... Center of mass
Position of electric origin             ...     0.892375    -0.342393    -0.261265

General magnetic properties:
Magnetizability                         ...  NO

EPR properties:
g-Tensor (aka g-matrix)                 ...  NO
Zero-Field splitting spin-orbit         ...  NO
Zero-field splitting spin-spin          ...  NO
Hyperfine couplings                     ...  NO (   0 nuclei)
Quadrupole couplings                    ...  NO (   0 nuclei)
Contact density                         ...  NO (   0 nuclei)

NMR properties:
Chemical shifts                         ...  NO (   0 nuclei)
Spin-rotation constants                 ...  NO (   0 nuclei)
Spin-spin couplings                     ...  NO (   0 nuclei,    0 pairs)

Choice of magnetic origin               ... GIAO
Position of magnetic origin             ...     0.000000     0.000000     0.000000

Properties with geometric perturbations:
SCF Hessian                             ...  NO
IR spectrum                             ...  NO
VCD spectrum                            ...  NO
X-ray spectroscopy properties:
SCF XES/XAS/RIXS spectra                ...  NO


-------------
DIPOLE MOMENT
-------------

Method             : SCF
Type of density    : Electron Density
Multiplicity       :   1
Irrep              :   0
Energy             : -1344.3355152269505197 Eh
Relativity type    : 
Basis              : AO
                                X                 Y                 Z
Electronic contribution:     15.366497958      -6.024480453      -7.123855325
Nuclear contribution   :    -14.902865035       6.416105371       7.835282559
                        -----------------------------------------
Total Dipole Moment    :      0.463632923       0.391624918       0.711427234
                        -----------------------------------------
Magnitude (a.u.)       :      0.935122598
Magnitude (Debye)      :      2.376892748



--------------------
Rotational spectrum 
--------------------
 
Rotational constants in cm-1:             0.028536             0.003096             0.002831 
Rotational constants in MHz :           855.481268            92.824231            84.862593 

Dipole components along the rotational axes: 
x,y,z [a.u.] :     0.483109    -0.798774     0.054965 
x,y,z [Debye]:     1.227964    -2.030321     0.139710 

 

Dipole moment calculation done in   0.0 sec 

Maximum memory used throughout the entire PROP-calculation: 23.4 MB

--------------------------------
SUGGESTED CITATIONS FOR THIS RUN
--------------------------------

Below you find a list of papers that are relevant to this ORCA run
We neither can nor want to force you to cite these papers, but we appreciate if you do
You receive ORCA, which is the product of decades of hard work by many enthusiastic individuals, for free
The only thing we kindly ask in return is that you cite our papers,
We deeply appreciate it, if you show your appreciation for ORCA by not just citing the generic ORCA reference.

Please note that relegating all ORCA citations to the supporting information does *not* help us.
SI sections are not indexed - citations you put there will not count into any citation statistics
But we need these citations in order to attract the funding resources that allow us to do what we are doing

Therefore, if you are a happy ORCA user, please consider citing a few of the papers listed below in the main body of your paper

In addition to the list printed below, the program has created the file /home/nmrbox/aojoawo/Documents/ERDOS/inputs/CHEMBL5287269.bibtex that contains the list in bibtex format
You can import this file easily into all common literature databanks and citation aid programs


List of essential papers. We consider these as the minimum necessary citations

  1. Neese,F.
     Software update: the ORCA program system, version 5.0
     WIRES Comput. Molec. Sci., 2022 12(1)e1606
     doi.org/10.1002/wcms.1606

List of papers to cite with high priority. The work reported in these papers was absolutely
necessary for this run to complete.
Our perspective: the developers of density functionals and basis sets usually get cited in chemistry papers
Good! But without the algorithms to do something with them, the functionals or basis sets would not do anything.
Hence, in our opinion, the algorithm design and method developments papers are equally worthy of getting cited

  1. Neese,F.
     An improvement of the resolution of the identity approximation for the formation of the Coulomb matrix
     J. Comp. Chem., 2003 24(14)1740-1747
     doi.org/10.1002/jcc.10318
  2. Neese,F.; Wennmohs,F.; Hansen,A.; Becker,U.
     Efficient, approximate and parallel Hartree-Fock and hybrid DFT calculations. A 'chain-of-spheres' algorithm for the Hartree-Fock exchange
     Chem. Phys., 2009 356(1-3)98-109
     doi.org/10.1016/j.chemphys.2008.10.036
  3. Helmich-Paris,B.; de Souza,B.; Neese,F.; Izsák,R.
     An improved chain of spheres for exchange algorithm
     J. Chem. Phys., 2021 155 104109
     doi.org/doi: 10.1063/5.0058766.
  4. Neese,F.
     The SHARK Integral Generation and Digestion System
     J. Comp. Chem., 2022  1-16
     doi.org/10.1002/jcc.26942

List of suggested additional citations. These are papers that are important in the 'surrounding' of 
of this run, or papers that preceded the highly important papers. If you like your results we are grateful for a citation.

  1. Izsak,R.; Neese,F.
     An overlap fitted chain of spheres exchange method
     J. Chem. Phys., 2011 135 144105
     doi.org/10.1063/1.3646921
  2. Izsak,R.; Hansen,A.; Neese,F.
     The resolution of identity and chain of spheres approximations for the LPNO-CCSD singles Fock term
     Molec. Phys., 2012 110 2413-2417
     doi.org/10.1080/00268976.2012.687466
  3. Neese,F.
     The ORCA program system
     WIRES Comput. Molec. Sci., 2012 2(1)73-78
     doi.org/10.1002/wcms.81
  4. Izsak,R.; Neese,F.; Klopper,W.
     Robust fitting techniques in the chain of spheres approximation to the Fock exchange: The role of the complementary space
     J. Chem. Phys., 2013 139 
     doi.org/10.1063/1.4819264
  5. Neese,F.
     Software update: the ORCA program system, version 4.0
     WIRES Comput. Molec. Sci., 2018 8(1)1-6
     doi.org/10.1002/wcms.1327
  6. Neese,F.; Wennmohs,F.; Becker,U.; Riplinger,C.
     The ORCA quantum chemistry program package
     J. Chem. Phys., 2020 152 Art. No. L224108
     doi.org/10.1063/5.0004608

List of optional additional citations

  1. Neese,F.
     Approximate second-order SCF convergence for spin unrestricted wavefunctions
     Chem. Phys. Lett., 2000 325(1-3)93-98
     doi.org/10.1016/s0009-2614(00)00662-x

Timings for individual modules:

Sum of individual times          ...      286.109 sec (=   4.768 min)
Startup calculation              ...        7.549 sec (=   0.126 min)   2.6 %
SCF iterations                   ...      278.405 sec (=   4.640 min)  97.3 %
Property calculations            ...        0.155 sec (=   0.003 min)   0.1 %
                             ****ORCA TERMINATED NORMALLY****
TOTAL RUN TIME: 0 days 0 hours 4 minutes 46 seconds 769 msec
