
                                 *****************
                                 * O   R   C   A *
                                 *****************

                                            #,                                       
                                            ###                                      
                                            ####                                     
                                            #####                                    
                                            ######                                   
                                           ########,                                 
                                     ,,################,,,,,                         
                               ,,#################################,,                 
                          ,,##########################################,,             
                       ,#########################################, ''#####,          
                    ,#############################################,,   '####,        
                  ,##################################################,,,,####,       
                ,###########''''           ''''###############################       
              ,#####''   ,,,,##########,,,,          '''####'''          '####       
            ,##' ,,,,###########################,,,                        '##       
           ' ,,###''''                  '''############,,,                           
         ,,##''                                '''############,,,,        ,,,,,,###''
      ,#''                                            '''#######################'''  
     '                                                          ''''####''''         
             ,#######,   #######,   ,#######,      ##                                
            ,#'     '#,  ##    ##  ,#'     '#,    #''#        ,####,   ,####,        
            ##       ##  ##   ,#'  ##            #'  '#       #'       #'  '#        
            ##       ##  #######   ##           ,######,      #####,   #    #        
            '#,     ,#'  ##    ##  '#,     ,#' ,#      #,     #,   #   #,  ,#        
             '#######'   ##     ##  '#######'  #'      '#     '####' # '####'        



                #########################################################
                #                        -***-                          #
                #          Department of theory and spectroscopy        #
                #                                                       #
                #                      Frank Neese                      #
                #                                                       #
                #     Directorship, Architecture, Infrastructure        #
                #                    SHARK, DRIVERS                     #
                #        Core code/Algorithms in most modules           #
                #                                                       #
                #        Max Planck Institute fuer Kohlenforschung      #
                #                Kaiser Wilhelm Platz 1                 #
                #                 D-45470 Muelheim/Ruhr                 #
                #                      Germany                          #
                #                                                       #
                #                  All rights reserved                  #
                #                        -***-                          #
                #########################################################


                         Program Version 6.0.0  -   RELEASE  -


 With contributions from (in alphabetic order):
   Daniel Aravena         : Magnetic Suceptibility
   Michael Atanasov       : Ab Initio Ligand Field Theory (pilot matlab implementation)
   Alexander A. Auer      : GIAO ZORA, VPT2 properties, NMR spectrum
   Ute Becker             : All parallelization in ORCA, NUMFREQ, NUMCALC
   Giovanni Bistoni       : ED, misc. LED, open-shell LED, HFLD
   Martin Brehm           : Molecular dynamics
   Dmytro Bykov           : pre 5.0 version of the SCF Hessian
   Marcos Casanova-Páez   : Triplet and SCS-CIS(D). UHF-(DLPNO)-IP/EA/STEOM-CCSD. UHF-CVS-IP/STEOM-CCSD
   Vijay G. Chilkuri      : MRCI spin determinant printing, contributions to CSF-ICE
   Pauline Colinet        : FMM embedding
   Dipayan Datta          : RHF DLPNO-CCSD density
   Achintya Kumar Dutta   : EOM-CC, STEOM-CC
   Nicolas Foglia         : Exact transition moments, OPA infrastructure, MCD improvements
   Dmitry Ganyushin       : Spin-Orbit,Spin-Spin,Magnetic field MRCI
   Miquel Garcia          : C-PCM and meta-GGA Hessian, CCSD/C-PCM, Gaussian charge scheme
   Tiago L. C. Gouveia    : GS-ROHF, GS-ROCIS
   Yang Guo               : DLPNO-NEVPT2, F12-NEVPT2, CIM, IAO-localization
   Andreas Hansen         : Spin unrestricted coupled pair/coupled cluster methods
   Ingolf Harden          : AUTO-CI MPn and infrastructure 
   Benjamin Helmich-Paris : MC-RPA, TRAH-(SCF,CASSCF), AVAS, COSX integrals, SCF dyn. polar.
   Lee Huntington         : MR-EOM, pCC
   Robert Izsak           : Overlap fitted RIJCOSX, COSX-SCS-MP3, EOM
   Riya Kayal             : Wick's Theorem for AUTO-CI, AUTO-CI UHF-CCSDT
   Emily Kempfer          : AUTO-CI, RHF CISDT and CCSDT
   Christian Kollmar      : KDIIS, OOCD, Brueckner-CCSD(T), CCSD density, CASPT2, CASPT2-K, improved NEVPT2
   Axel Koslowski         : Symmetry handling
   Simone Kossmann        : Meta GGA functionals, TD-DFT gradient, OOMP2, (MP2 Hessian; deprecated post 5.0)
   Lucas Lang             : DCDCAS
   Marvin Lechner         : AUTO-CI (C++ implementation), FIC-MRCC
   Spencer Leger          : CASSCF response
   Dagmar Lenk            : GEPOL surface, SMD, ORCA-2-JSON
   Dimitrios Liakos       : Extrapolation schemes; Compound Job, initial MDCI parallelization
   Dimitrios Manganas     : Further ROCIS development; embedding schemes. LFT, Crystal Embedding
   Dimitrios Pantazis     : SARC Basis sets
   Anastasios Papadopoulos: AUTO-CI, single reference methods and gradients
   Taras Petrenko         : pre 6.0 DFT Hessian and TD-DFT gradient, (ASA, deprecated), ECA, 1-Electron XAS/XES, NRVS
   Peter Pinski           : DLPNO-MP2, DLPNO-MP2 Gradient
   Christoph Reimann      : Effective Core Potentials
   Marius Retegan         : Local ZFS, SOC
   Christoph Riplinger    : Optimizer, TS searches, QM/MM, DLPNO-CCSD(T), (RO)-DLPNO pert. Triples
   Michael Roemelt        : Original ROCIS implementation
   Masaaki Saitow         : Open-shell DLPNO-CCSD energy and density
   Barbara Sandhoefer     : DKH picture change effects
   Kantharuban Sivalingam : CASSCF convergence/infrastructure, NEVPT2 and variants, FIC-MRCI
   Bernardo de Souza      : ESD, SOC TD-DFT
   Georgi Stoychev        : AutoAux, RI-MP2 NMR, DLPNO-MP2 response, X2C
   Van Anh Tran           : RI-MP2 g-tensors
   Willem Van den Heuvel  : Paramagnetic NMR
   Zikuan Wang            : NOTCH, Electric field optimization 
   Frank Wennmohs         : Technical directorship and infrastructure
   Hang Xu                : AUTO-CI-Response properties 


 We gratefully acknowledge several colleagues who have allowed us to
 interface, adapt or use parts of their codes:
   Stefan Grimme, W. Hujo, H. Kruse, P. Pracht,  : VdW corrections, initial TS optimization,
                  C. Bannwarth, S. Ehlert,         DFT functionals, gCP, sTDA/sTD-DF
                  L. Wittmann, M. Mueller
   Ed Valeev, F. Pavosevic, A. Kumar             : LibInt (2-el integral package), F12 methods
   Garnet Chan, S. Sharma, J. Yang, R. Olivares  : DMRG
   Ulf Ekstrom                                   : XCFun DFT Library
   Mihaly Kallay                                 : mrcc  (arbitrary order and MRCC methods)
   Frank Weinhold                                : gennbo (NPA and NBO analysis)
   Simon Mueller                                 : openCOSMO-RS
   Christopher J. Cramer and Donald G. Truhlar   : smd solvation model
   Lars Goerigk                                  : TD-DFT with DH, B97 family of functionals
   V. Asgeirsson, H. Jonsson                     : NEB implementation
   FAccTs GmbH                                   : IRC, NEB, NEB-TS, DLPNO-Multilevel, CI-OPT
                                                   MM, QMMM, 2- and 3-layer-ONIOM, Crystal-QMMM,
                                                   LR-CPCM, SF, NACMEs, symmetry and pop. for TD-DFT,
                                                   nearIR, NL-DFT gradient (VV10), updates on ESD,
                                                   ML-optimized integration grids, MBIS, APM,
                                                   GOAT, DOCKER, SOLVATOR, interface openCOSMO-RS
   S Lehtola, MJT Oliveira, MAL Marques          : LibXC Library
   Liviu Ungur et al                             : ANISO software


 Your calculation uses the libint2 library for the computation of 2-el integrals
 For citations please refer to: http://libint.valeyev.net

 Your ORCA version has been built with support for libXC version: 6.2.2
 For citations please refer to: https://libxc.gitlab.io

 This ORCA versions uses:
   CBLAS   interface :  Fast vector & matrix operations
   LAPACKE interface :  Fast linear algebra routines
   SCALAPACK package :  Parallel linear algebra routines
   Shared memory     :  Shared parallel matrices
   BLAS/LAPACK       :  OpenBLAS 0.3.27  USE64BITINT DYNAMIC_ARCH NO_AFFINITY SkylakeX SINGLE_THREADED
        Core in use  :  SkylakeX
   Copyright (c) 2011-2014, The OpenBLAS Project


Warning: RI is on but no J-basis has been assigned. Assigning Def2/J (nothing to worry about!)
================================================================================

----- Orbital basis set information -----
Your calculation utilizes the basis: 6-31G*
   H-He, Li-Ne : W. J. Hehre, R. Ditchfield and J.A. Pople, J. Chem. Phys. 56, 2257 (1972).
                 Note: He and Ne are unpublished basis sets taken from the Gaussian program.
                 Note: Li and B from J. D. Dill and J. A. Pople, J. Chem. Phys. 62, 2921 (1975).
   Na - Ar     : M. M. Francl, W. J. Pietro, W. J. Hehre, J. S. Binkley, M. S. Gordon, 
                 D. J. DeFrees and J. A. Pople, J. Chem. Phys. 77, 3654 (1982).
   K - Zn      : V. A. Rassolov, J. A. Pople, M. A. Ratner, and T. L. Windus, J. Chem. Phys. 109, 1223 (1998).

----- AuxJ basis set information -----
Your calculation utilizes the auxiliary basis: def2/J
   F. Weigend, Phys. Chem. Chem. Phys. 8, 1057 (2006).

================================================================================
                                        WARNINGS
                       Please study these warnings very carefully!
================================================================================


================================================================================
                                       INPUT FILE
================================================================================
NAME = /home/nmrbox/aojoawo/Documents/ERDOS/inputs/CHEMBL460302.inp
|  1> ! B3LYP 6-31G* SP
|  2> 
|  3> * xyz 0 1
|  4> N -4.9582 1.0295 -1.0714
|  5> C -5.1581 -0.4132 -0.9594
|  6> C -4.5363 -0.9527 0.3321
|  7> C -3.0370 -0.8811 0.2976
|  8> C -2.1816 -1.7943 -0.3101
|  9> N -0.8981 -1.3832 -0.2012
| 10> C -0.9348 -0.2124 0.4607
| 11> C 0.1481 0.6034 0.7960
| 12> O 1.4465 0.2074 0.4455
| 13> C 2.6198 0.9607 0.7353
| 14> C 3.8176 0.2261 0.2094
| 15> C 4.2509 0.4318 -1.1108
| 16> C 5.3436 -0.2827 -1.6124
| 17> C 6.0017 -1.2145 -0.8048
| 18> C 5.5650 -1.4370 0.5042
| 19> C 4.4728 -0.7246 1.0095
| 20> C -0.1335 1.8092 1.4831
| 21> C -1.4637 2.1575 1.8038
| 22> C -2.5291 1.3130 1.4488
| 23> C -2.2254 0.1290 0.7780
| 24> H -5.5493 1.3717 -1.8632
| 25> H -3.9661 1.2034 -1.3530
| 26> H -6.2493 -0.6268 -0.9372
| 27> H -4.7263 -0.9328 -1.8445
| 28> H -4.8392 -2.0142 0.4602
| 29> H -4.9288 -0.3885 1.2050
| 30> H -2.4840 -2.7036 -0.8130
| 31> H -0.0537 -1.8741 -0.5708
| 32> H 2.7138 1.1025 1.8343
| 33> H 2.5503 1.9632 0.2591
| 34> H 3.7432 1.1433 -1.7504
| 35> H 5.6775 -0.1169 -2.6285
| 36> H 6.8462 -1.7677 -1.1949
| 37> H 6.0704 -2.1646 1.1261
| 38> H 4.1380 -0.9140 2.0219
| 39> H 0.6618 2.4831 1.7706
| 40> H -1.6652 3.0837 2.3262
| 41> H -3.5497 1.5802 1.6890
| 42> *
| 43> 
| 44>                          ****END OF INPUT****
================================================================================

                       ****************************
                       * Single Point Calculation *
                       ****************************

---------------------------------
CARTESIAN COORDINATES (ANGSTROEM)
---------------------------------
  N     -4.958200    1.029500   -1.071400
  C     -5.158100   -0.413200   -0.959400
  C     -4.536300   -0.952700    0.332100
  C     -3.037000   -0.881100    0.297600
  C     -2.181600   -1.794300   -0.310100
  N     -0.898100   -1.383200   -0.201200
  C     -0.934800   -0.212400    0.460700
  C      0.148100    0.603400    0.796000
  O      1.446500    0.207400    0.445500
  C      2.619800    0.960700    0.735300
  C      3.817600    0.226100    0.209400
  C      4.250900    0.431800   -1.110800
  C      5.343600   -0.282700   -1.612400
  C      6.001700   -1.214500   -0.804800
  C      5.565000   -1.437000    0.504200
  C      4.472800   -0.724600    1.009500
  C     -0.133500    1.809200    1.483100
  C     -1.463700    2.157500    1.803800
  C     -2.529100    1.313000    1.448800
  C     -2.225400    0.129000    0.778000
  H     -5.549300    1.371700   -1.863200
  H     -3.966100    1.203400   -1.353000
  H     -6.249300   -0.626800   -0.937200
  H     -4.726300   -0.932800   -1.844500
  H     -4.839200   -2.014200    0.460200
  H     -4.928800   -0.388500    1.205000
  H     -2.484000   -2.703600   -0.813000
  H     -0.053700   -1.874100   -0.570800
  H      2.713800    1.102500    1.834300
  H      2.550300    1.963200    0.259100
  H      3.743200    1.143300   -1.750400
  H      5.677500   -0.116900   -2.628500
  H      6.846200   -1.767700   -1.194900
  H      6.070400   -2.164600    1.126100
  H      4.138000   -0.914000    2.021900
  H      0.661800    2.483100    1.770600
  H     -1.665200    3.083700    2.326200
  H     -3.549700    1.580200    1.689000

----------------------------
CARTESIAN COORDINATES (A.U.)
----------------------------
  NO LB      ZA    FRAG     MASS         X           Y           Z
   0 N     7.0000    0    14.007   -9.369640    1.945473   -2.024653
   1 C     6.0000    0    12.011   -9.747396   -0.780835   -1.813003
   2 C     6.0000    0    12.011   -8.572365   -1.800342    0.627578
   3 C     6.0000    0    12.011   -5.739098   -1.665038    0.562382
   4 C     6.0000    0    12.011   -4.122627   -3.390736   -0.586004
   5 N     7.0000    0    14.007   -1.697163   -2.613869   -0.380213
   6 C     6.0000    0    12.011   -1.766516   -0.401378    0.870597
   7 C     6.0000    0    12.011    0.279868    1.140261    1.504222
   8 O     8.0000    0    15.999    2.733489    0.391929    0.841873
   9 C     6.0000    0    12.011    4.950705    1.815460    1.389516
  10 C     6.0000    0    12.011    7.214218    0.427267    0.395709
  11 C     6.0000    0    12.011    8.033037    0.815984   -2.099108
  12 C     6.0000    0    12.011   10.097941   -0.534226   -3.046994
  13 C     6.0000    0    12.011   11.341569   -2.295072   -1.520852
  14 C     6.0000    0    12.011   10.516326   -2.715536    0.952800
  15 C     6.0000    0    12.011    8.452367   -1.369296    1.907679
  16 C     6.0000    0    12.011   -0.252278    3.418893    2.802653
  17 C     6.0000    0    12.011   -2.765992    4.077084    3.408688
  18 C     6.0000    0    12.011   -4.779306    2.481210    2.737835
  19 C     6.0000    0    12.011   -4.205397    0.243775    1.470207
  20 H     1.0000    0     1.008  -10.486657    2.592137   -3.520938
  21 H     1.0000    0     1.008   -7.494843    2.274096   -2.556799
  22 H     1.0000    0     1.008  -11.809466   -1.184480   -1.771051
  23 H     1.0000    0     1.008   -8.931413   -1.762737   -3.485600
  24 H     1.0000    0     1.008   -9.144763   -3.806286    0.869652
  25 H     1.0000    0     1.008   -9.314082   -0.734159    2.277120
  26 H     1.0000    0     1.008   -4.694080   -5.109064   -1.536347
  27 H     1.0000    0     1.008   -0.101478   -3.541536   -1.078656
  28 H     1.0000    0     1.008    5.128339    2.083423    3.466325
  29 H     1.0000    0     1.008    4.819369    3.709910    0.489628
  30 H     1.0000    0     1.008    7.073623    2.160524   -3.307777
  31 H     1.0000    0     1.008   10.728920   -0.220909   -4.967145
  32 H     1.0000    0     1.008   12.937443   -3.340469   -2.258034
  33 H     1.0000    0     1.008   11.471394   -4.090501    2.128021
  34 H     1.0000    0     1.008    7.819687   -1.727210    3.820837
  35 H     1.0000    0     1.008    1.250621    4.692379    3.345949
  36 H     1.0000    0     1.008   -3.146772    5.827348    4.395881
  37 H     1.0000    0     1.008   -6.707961    2.986145    3.191747

--------------------------------
INTERNAL COORDINATES (ANGSTROEM)
--------------------------------
 N      0   0   0     0.000000000000     0.00000000     0.00000000
 C      1   0   0     1.460783111896     0.00000000     0.00000000
 C      2   1   0     1.531557292431   110.91553117     0.00000000
 C      3   2   1     1.501405108557   111.66920585   291.44132250
 C      4   3   2     1.391022174518   126.35684940   278.17119995
 N      5   4   3     1.352122283671   110.42292696   177.03135547
 C      6   5   4     1.345448304470   106.15896698   359.51657917
 C      7   6   5     1.396648896466   127.24662592   180.90860915
 O      8   7   6     1.401966051657   119.54256620   359.20760960
 C      9   8   7     1.424105972180   124.24527293   179.91630330
 C     10   9   8     1.500310904446   109.11317995   180.03464389
 C     11  10   9     1.404631417846   120.26723542    88.26646598
 C     12  11  10     1.398608630032   120.21717761   181.88535910
 C     13  12  11     1.397699756743   120.08015266     0.59862285
 C     14  13  12     1.397746092822   120.00904041     0.24089564
 C     15  14  13     1.398478705594   120.08578153   359.75857245
 C      8   7   6     1.416106849782   117.36563368   179.11935694
 C     17   8   7     1.411946677463   120.50369292   359.80076331
 C     18  17   8     1.405091601996   120.57693951     0.10951048
 C      7   6   5     1.372181332769   110.84976802     0.09130710
 H      1   2   3     1.045680300092   107.69206507   190.57629509
 H      1   2   3     1.045849979682   108.34110195    76.17723673
 H      2   1   3     1.112130945528   108.99499450   119.13755974
 H      2   1   3     1.113479865108   110.29511077   237.37813015
 H      3   2   1     1.111278664422   108.84570866   171.44832889
 H      3   2   1     1.111005085497   109.89029631    54.15207249
 H      5   4   3     1.082211005303   125.64664226   357.69019984
 H      6   5   4     1.044317159679   126.59155545   180.29367842
 H     10   9   8     1.112090032327   109.76645746    59.47616986
 H     10   9   8     1.112026501483   109.76908702   300.58331440
 H     12  11  10     1.083088038896   120.44017597     1.83806519
 H     13  12  11     1.082329921974   119.96443906   180.34533388
 H     14  13  12     1.082307026680   119.99222932   179.90821792
 H     15  14  13     1.082400355691   119.94707877   179.50730646
 H     16  15  14     1.083013000845   119.34779070   179.35939635
 H     17   8   7     1.081341551037   120.89084966   179.97708491
 H     18  17   8     1.082289448345   119.74475900   180.20929935
 H     19  18  17     1.081996414042   120.71075472   180.31468015

---------------------------
INTERNAL COORDINATES (A.U.)
---------------------------
 N      0   0   0     0.000000000000     0.00000000     0.00000000
 C      1   0   0     2.760480022540     0.00000000     0.00000000
 C      2   1   0     2.894223841105   110.91553117     0.00000000
 C      3   2   1     2.837244471242   111.66920585   291.44132250
 C      4   3   2     2.628650956050   126.35684940   278.17119995
 N      5   4   3     2.555140815711   110.42292696   177.03135547
 C      6   5   4     2.542528822796   106.15896698   359.51657917
 C      7   6   5     2.639283919564   127.24662592   180.90860915
 O      8   7   6     2.649331886687   119.54256620   359.20760960
 C      9   8   7     2.691170273103   124.24527293   179.91630330
 C     10   9   8     2.835176725139   109.11317995   180.03464389
 C     11  10   9     2.654368698830   120.26723542    88.26646598
 C     12  11  10     2.642987279299   120.21717761   181.88535910
 C     13  12  11     2.641269757693   120.08015266     0.59862285
 C     14  13  12     2.641357320193   120.00904041     0.24089564
 C     15  14  13     2.642741757693   120.08578153   359.75857245
 C      8   7   6     2.676054122458   117.36563368   179.11935694
 C     17   8   7     2.668192536106   120.50369292   359.80076331
 C     18  17   8     2.655238320845   120.57693951     0.10951048
 C      7   6   5     2.593046925013   110.84976802     0.09130710
 H      1   2   3     1.976049390810   107.69206507   190.57629509
 H      1   2   3     1.976370038765   108.34110195    76.17723673
 H      2   1   3     2.101622912106   108.99499450   119.13755974
 H      2   1   3     2.104172000689   110.29511077   237.37813015
 H      3   2   1     2.100012334228   108.84570866   171.44832889
 H      3   2   1     2.099495344983   109.89029631    54.15207249
 H      5   4   3     2.045082419139   125.64664226   357.69019984
 H      6   5   4     1.973473428748   126.59155545   180.29367842
 H     10   9   8     2.101545597361   109.76645746    59.47616986
 H     10   9   8     2.101425541465   109.76908702   300.58331440
 H     12  11  10     2.046739772440   120.44017597     1.83806519
 H     13  12  11     2.045307139079   119.96443906   180.34533388
 H     14  13  12     2.045263873243   119.99222932   179.90821792
 H     15  14  13     2.045440239515   119.94707877   179.50730646
 H     16  15  14     2.046597971074   119.34779070   179.35939635
 H     17   8   7     2.043439388690   120.89084966   179.97708491
 H     18  17   8     2.045230655006   119.74475900   180.20929935
 H     19  18  17     2.044676900424   120.71075472   180.31468015

---------------------
BASIS SET INFORMATION
---------------------
There are 4 groups of distinct atoms

 Group   1 Type N   : 10s4p1d contracted to 3s2p1d pattern {631/31/1}
 Group   2 Type C   : 10s4p1d contracted to 3s2p1d pattern {631/31/1}
 Group   3 Type O   : 10s4p1d contracted to 3s2p1d pattern {631/31/1}
 Group   4 Type H   : 4s contracted to 2s pattern {31}

Atom   0N    basis set group =>   1
Atom   1C    basis set group =>   2
Atom   2C    basis set group =>   2
Atom   3C    basis set group =>   2
Atom   4C    basis set group =>   2
Atom   5N    basis set group =>   1
Atom   6C    basis set group =>   2
Atom   7C    basis set group =>   2
Atom   8O    basis set group =>   3
Atom   9C    basis set group =>   2
Atom  10C    basis set group =>   2
Atom  11C    basis set group =>   2
Atom  12C    basis set group =>   2
Atom  13C    basis set group =>   2
Atom  14C    basis set group =>   2
Atom  15C    basis set group =>   2
Atom  16C    basis set group =>   2
Atom  17C    basis set group =>   2
Atom  18C    basis set group =>   2
Atom  19C    basis set group =>   2
Atom  20H    basis set group =>   4
Atom  21H    basis set group =>   4
Atom  22H    basis set group =>   4
Atom  23H    basis set group =>   4
Atom  24H    basis set group =>   4
Atom  25H    basis set group =>   4
Atom  26H    basis set group =>   4
Atom  27H    basis set group =>   4
Atom  28H    basis set group =>   4
Atom  29H    basis set group =>   4
Atom  30H    basis set group =>   4
Atom  31H    basis set group =>   4
Atom  32H    basis set group =>   4
Atom  33H    basis set group =>   4
Atom  34H    basis set group =>   4
Atom  35H    basis set group =>   4
Atom  36H    basis set group =>   4
Atom  37H    basis set group =>   4
---------------------------------
AUXILIARY/J BASIS SET INFORMATION
---------------------------------
There are 4 groups of distinct atoms

 Group   1 Type N   : 12s5p4d2f1g contracted to 6s4p3d1f1g pattern {711111/2111/211/2/1}
 Group   2 Type C   : 12s5p4d2f1g contracted to 6s4p3d1f1g pattern {711111/2111/211/2/1}
 Group   3 Type O   : 12s5p4d2f1g contracted to 6s4p3d1f1g pattern {711111/2111/211/2/1}
 Group   4 Type H   : 5s2p1d contracted to 3s1p1d pattern {311/2/1}

Atom   0N    basis set group =>   1
Atom   1C    basis set group =>   2
Atom   2C    basis set group =>   2
Atom   3C    basis set group =>   2
Atom   4C    basis set group =>   2
Atom   5N    basis set group =>   1
Atom   6C    basis set group =>   2
Atom   7C    basis set group =>   2
Atom   8O    basis set group =>   3
Atom   9C    basis set group =>   2
Atom  10C    basis set group =>   2
Atom  11C    basis set group =>   2
Atom  12C    basis set group =>   2
Atom  13C    basis set group =>   2
Atom  14C    basis set group =>   2
Atom  15C    basis set group =>   2
Atom  16C    basis set group =>   2
Atom  17C    basis set group =>   2
Atom  18C    basis set group =>   2
Atom  19C    basis set group =>   2
Atom  20H    basis set group =>   4
Atom  21H    basis set group =>   4
Atom  22H    basis set group =>   4
Atom  23H    basis set group =>   4
Atom  24H    basis set group =>   4
Atom  25H    basis set group =>   4
Atom  26H    basis set group =>   4
Atom  27H    basis set group =>   4
Atom  28H    basis set group =>   4
Atom  29H    basis set group =>   4
Atom  30H    basis set group =>   4
Atom  31H    basis set group =>   4
Atom  32H    basis set group =>   4
Atom  33H    basis set group =>   4
Atom  34H    basis set group =>   4
Atom  35H    basis set group =>   4
Atom  36H    basis set group =>   4
Atom  37H    basis set group =>   4
------------------------------------------------------------------------------
                             ORCA STARTUP CALCULATIONS
                           -- RI-GTO INTEGRALS CHOSEN --
------------------------------------------------------------------------------
------------------------------------------------------------------------------
                   ___                                                        
                  /   \      - P O W E R E D   B Y -                         
                 /     \                                                     
                 |  |  |   _    _      __       _____    __    __             
                 |  |  |  | |  | |    /  \     |  _  \  |  |  /  |          
                  \  \/   | |  | |   /    \    | | | |  |  | /  /          
                 / \  \   | |__| |  /  /\  \   | |_| |  |  |/  /          
                |  |  |   |  __  | /  /__\  \  |    /   |      \           
                |  |  |   | |  | | |   __   |  |    \   |  |\   \          
                \     /   | |  | | |  |  |  |  | |\  \  |  | \   \       
                 \___/    |_|  |_| |__|  |__|  |_| \__\ |__|  \__/        
                                                                              
                      - O R C A' S   B I G   F R I E N D -                    
                                      &                                       
                       - I N T E G R A L  F E E D E R -                       
                                                                              
 v1 FN, 2020, v2 2021, v3 2022-2024                                           
------------------------------------------------------------------------------


----------------------
SHARK INTEGRAL PACKAGE
----------------------

Number of atoms                             ...     38
Number of basis functions                   ...    316
Number of shells                            ...    156
Maximum angular momentum                    ...      2
Integral batch strategy                     ... SHARK/LIBINT Hybrid
RI-J (if used) integral strategy            ... SPLIT-RIJ (Revised 2003 algorithm where possible)
Printlevel                                  ...      1
Contraction scheme used                     ... SEGMENTED contraction
Prescreening option                         ... SCHWARTZ
   Thresh                                   ... 1.000e-10
   Tcut                                     ... 1.000e-11
   Tpresel                                  ... 1.000e-11 
Coulomb Range Separation                    ... NOT USED
Exchange Range Separation                   ... NOT USED
Multipole approximations                    ... NOT USED
Finite Nucleus Model                        ... NOT USED
CABS basis                                  ... NOT available
Auxiliary Coulomb fitting basis             ... AVAILABLE
   # of basis functions in Aux-J            ...   1178
   # of shells in Aux-J                     ...    390
   Maximum angular momentum in Aux-J        ...      4
Auxiliary J/K fitting basis                 ... NOT available
Auxiliary Correlation fitting basis         ... NOT available
Auxiliary 'external' fitting basis          ... NOT available

Checking pre-screening integrals            ... done (  0.0 sec) Dimension = 156
Check shell pair data                       ... done (  0.0 sec)
Shell pair information
Shell pair cut-off parameter TPreSel        ...   1.0e-11
Total number of shell pairs                 ...     12246
Shell pairs after pre-screening             ...      8104
Total number of primitive shell pairs       ...     69852
Primitive shell pairs kept                  ...     26135
          la=0 lb=0:   2883 shell pairs
          la=1 lb=0:   2749 shell pairs
          la=1 lb=1:    663 shell pairs
          la=2 lb=0:   1128 shell pairs
          la=2 lb=1:    558 shell pairs
          la=2 lb=2:    123 shell pairs

Calculating one electron integrals          ... done (  0.1 sec)
Calculating RI/J V-Matrix + Cholesky decomp.... done (  0.2 sec)
Calculating Nuclear repulsion               ... done (  0.0 sec) ENN=   1417.158782118514 Eh

Diagonalization of the overlap matrix:
Smallest eigenvalue                        ... 3.419e-04
Time for diagonalization                   ...    0.017 sec
Threshold for overlap eigenvalues          ... 1.000e-07
Number of eigenvalues below threshold      ... 0
Time for construction of square roots      ...    0.024 sec
Total time needed                          ...    0.053 sec

-------------------
DFT GRID GENERATION
-------------------

General Integration Accuracy     IntAcc      ... 4.388
Radial Grid Type                 RadialGrid  ... OptM3 with GC (2021)
Angular Grid (max. ang.)         AngularGrid ... 4 (Lebedev-302)
Angular grid pruning method      GridPruning ... 4 (adaptive)
Weight generation scheme         WeightScheme... mBecke (2022)
Basis function cutoff            BFCut       ... 1.0000e-10
Integration weight cutoff        WCut        ... 1.0000e-14
Partially contracted basis set               ... off
Rotationally invariant grid construction     ... off
Angular grids for H and He will be reduced by one unit

Total number of grid points                  ...   177224
Total number of batches                      ...     2787
Average number of points per batch           ...       63
Average number of grid points per atom       ...     4664

--------------------
COSX GRID GENERATION
--------------------

GRIDX 1
-------
General Integration Accuracy     IntAcc      ... 3.816
Radial Grid Type                 RadialGrid  ... OptM3 with GC (2021)
Angular Grid (max. ang.)         AngularGrid ... 1 (Lebedev-50)
Angular grid pruning method      GridPruning ... 4 (adaptive)
Weight generation scheme         WeightScheme... mBecke (2022)
Basis function cutoff            BFCut       ... 1.0000e-10
Integration weight cutoff        WCut        ... 1.0000e-14
Partially contracted basis set               ... on
Rotationally invariant grid construction     ... off
Angular grids for H and He will be reduced by one unit

Total number of grid points                  ...    22554
Total number of batches                      ...      197
Average number of points per batch           ...      114
Average number of grid points per atom       ...      594
UseSFitting                                  ... on

GRIDX 2
-------
General Integration Accuracy     IntAcc      ... 4.020
Radial Grid Type                 RadialGrid  ... OptM3 with GC (2021)
Angular Grid (max. ang.)         AngularGrid ... 2 (Lebedev-110)
Angular grid pruning method      GridPruning ... 4 (adaptive)
Weight generation scheme         WeightScheme... mBecke (2022)
Basis function cutoff            BFCut       ... 1.0000e-10
Integration weight cutoff        WCut        ... 1.0000e-14
Partially contracted basis set               ... on
Rotationally invariant grid construction     ... off
Angular grids for H and He will be reduced by one unit

Total number of grid points                  ...    48683
Total number of batches                      ...      399
Average number of points per batch           ...      122
Average number of grid points per atom       ...     1281
UseSFitting                                  ... on

GRIDX 3
-------
General Integration Accuracy     IntAcc      ... 4.338
Radial Grid Type                 RadialGrid  ... OptM3 with GC (2021)
Angular Grid (max. ang.)         AngularGrid ... 3 (Lebedev-194)
Angular grid pruning method      GridPruning ... 4 (adaptive)
Weight generation scheme         WeightScheme... mBecke (2022)
Basis function cutoff            BFCut       ... 1.0000e-10
Integration weight cutoff        WCut        ... 1.0000e-14
Partially contracted basis set               ... on
Rotationally invariant grid construction     ... off
Angular grids for H and He will be reduced by one unit

Total number of grid points                  ...   106380
Total number of batches                      ...      847
Average number of points per batch           ...      125
Average number of grid points per atom       ...     2799
UseSFitting                                  ... on
Initializing property integral containers    ... done (  0.0 sec)

SHARK setup successfully completed in   7.7 seconds

Maximum memory used throughout the entire STARTUP-calculation: 72.4 MB
-------------------------------------------------------------------------------
                                 ORCA GUESS
                   Start orbitals & Density for SCF / CASSCF
-------------------------------------------------------------------------------

------------
SCF SETTINGS
------------
Hamiltonian:
 Density Functional     Method          .... DFT(GTOs)
 Exchange Functional    Exchange        .... B88
   X-Alpha parameter    XAlpha          ....  0.666667
   Becke's b parameter  XBeta           ....  0.004200
 Correlation Functional Correlation     .... LYP
 LDA part of GGA corr.  LDAOpt          .... VWN-5
 Gradients option       PostSCFGGA      .... off
 Hybrid DFT is turned on
   Fraction HF Exchange ScalHFX         ....  0.200000
   Scaling of DF-GGA-X  ScalDFX         ....  0.720000
   Scaling of DF-GGA-C  ScalDFC         ....  0.810000
   Scaling of DF-LDA-C  ScalLDAC        ....  1.000000
   Perturbative correction              ....  0.000000
   NL short-range parameter             ....  4.800000
 RI-approximation to the Coulomb term is turned on
   Number of AuxJ basis functions       .... 1178
   RIJ-COSX (HFX calculated with COS-X)).... on


General Settings:
 Integral files         IntName         .... /home/nmrbox/aojoawo/Documents/ERDOS/inputs/CHEMBL460302
 Hartree-Fock type      HFTyp           .... RHF
 Total Charge           Charge          ....    0
 Multiplicity           Mult            ....    1
 Number of Electrons    NEL             ....  142
 Basis Dimension        Dim             ....  316
 Nuclear Repulsion      ENuc            ....   1417.1587821185 Eh

Convergence Acceleration:
 AO-DIIS                CNVDIIS         .... on
   Start iteration      DIISMaxIt       ....    12
   Startup error        DIISStart       ....  0.200000
   # of expansion vecs  DIISMaxEq       ....     5
   Bias factor          DIISBfac        ....   1.050
   Max. coefficient     DIISMaxC        ....  10.000
 MO-DIIS                CNVKDIIS        .... off
 Trust-Rad. Augm. Hess. CNVTRAH         .... auto
   Auto Start mean grad. ratio tolernc. ....  1.125000
   Auto Start start iteration           ....    50
   Auto Start num. interpolation iter.  ....    10
   Max. Number of Micro iterations      ....    24
   Max. Number of Macro iterations      .... Maxiter - #DIIS iter
   Number of Davidson start vectors     ....     2
   Converg. threshold    (grad. norm)   ....   5.000e-05
   Grad. Scal. Fac. for Micro threshold ....   0.100
   Minimum threshold for Micro iter.    ....   1.000e-02
   NR start threshold (gradient norm)   ....   1.000e-04
   Initial trust radius                 ....   0.400
   Minimum AH scaling param. (alpha)    ....   1.000
   Maximum AH scaling param. (alpha)    .... 1000.000
   Quad. conv. algorithm                .... NR
   White noise on init. David. guess    .... on
   Maximum white noise                  ....   0.010
   Pseudo random numbers                .... off
   Inactive MOs                         .... canonical
   Orbital update algorithm             .... Taylor
   Preconditioner                       .... Diag
   Full preconditioner red. dimension   ....   250
 SOSCF                  CNVSOSCF        .... on
   Start iteration      SOSCFMaxIt      ....   150
   Startup grad/error   SOSCFStart      ....  0.003300
   Hessian update       SOSCFHessUp     .... L-BFGS
 Level Shifting         CNVShift        .... on
   Level shift para.    LevelShift      ....    0.2500
   Turn off err/grad.   ShiftErr        ....    0.0010
 Zerner damping         CNVZerner       .... off
 Static damping         CNVDamp         .... on
   Fraction old density DampFac         ....    0.7000
   Max. Damping (<1)    DampMax         ....    0.9800
   Min. Damping (>=0)   DampMin         ....    0.0000
   Turn off err/grad.   DampErr         ....    0.1000

SCF Procedure:
 Maximum # iterations   MaxIter         ....   125
 SCF integral mode      SCFMode         .... Direct
   Integral package                     .... SHARK and LIBINT hybrid scheme
 Reset frequency        DirectResetFreq ....    20
 Integral Threshold     Thresh          ....  1.000e-10 Eh
 Primitive CutOff       TCut            ....  1.000e-11 Eh

Convergence Tolerance:
 Convergence Check Mode ConvCheckMode   .... Total+1el-Energy
 Convergence forced     ConvForced      .... 0
 Energy Change          TolE            ....  1.000e-06 Eh
 1-El. energy change                    ....  1.000e-03 Eh
 Orbital Gradient       TolG            ....  5.000e-05
 Orbital Rotation angle TolX            ....  5.000e-05
 DIIS Error             TolErr          ....  1.000e-06

------------------------------
INITIAL GUESS: MODEL POTENTIAL
------------------------------
Loading Hartree-Fock densities                     ... done
Calculating cut-offs                               ... done
Initializing the effective Hamiltonian             ... done
Setting up the integral package (SHARK)            ... done
Starting the Coulomb interaction                   ... done (   1.6 sec)
Making the grid                                    ... done (   1.0 sec)
Mapping shells                                     ... done
Starting the XC term evaluation                    ... done (   0.7 sec)
  promolecular density results
     # of electrons  =    141.993515173
     EX              =   -114.170474103
     EC              =     -4.784942100
     EX+EC           =   -118.955416202
Transforming the Hamiltonian                       ... done (   0.0 sec)
Diagonalizing the Hamiltonian                      ... done (   0.0 sec)
Back transforming the eigenvectors                 ... done (   0.0 sec)
Now organizing SCF variables                       ... done
                      ------------------
                      INITIAL GUESS DONE (   3.5 sec)
                      ------------------
             **** ENERGY FILE WAS UPDATED (/home/nmrbox/aojoawo/Documents/ERDOS/inputs/CHEMBL460302.en.tmp) ****
Finished Guess after   3.7 sec
Maximum memory used throughout the entire GUESS-calculation: 36.9 MB

-------------------------------------------------------------------------------------------
                                      ORCA LEAN-SCF
                              memory conserving SCF solver
-------------------------------------------------------------------------------------------

----------------------------------------D-I-I-S--------------------------------------------
Iteration    Energy (Eh)           Delta-E    RMSDP     MaxDP     DIISErr   Damp  Time(sec)
-------------------------------------------------------------------------------------------
               ***  Starting incremental Fock matrix formation  ***
    1    -842.3050896739550808     0.00e+00  2.50e-03  9.11e-02  2.56e-01  0.700  30.6
    2    -842.5334544032898521    -2.28e-01  1.81e-03  5.57e-02  1.15e-01  0.700  14.3
                               ***Turning on AO-DIIS***
    3    -842.6288211699843487    -9.54e-02  7.81e-04  1.70e-02  3.24e-02  0.700  13.5
    4    -842.6845287685928270    -5.57e-02  1.50e-03  3.25e-02  1.69e-02  0.000  13.0
    5    -842.8049305635854580    -1.20e-01  2.73e-04  8.13e-03  7.19e-03  0.000  13.3
                              *** Initializing SOSCF ***
---------------------------------------S-O-S-C-F--------------------------------------
Iteration    Energy (Eh)           Delta-E    RMSDP     MaxDP     MaxGrad    Time(sec)
--------------------------------------------------------------------------------------
    6    -842.8056876284481405    -7.57e-04  8.96e-05  2.36e-03  1.39e-03    11.6
               *** Restarting incremental Fock matrix formation ***
    7    -842.8056620859092618     2.55e-05  6.08e-05  2.27e-03  2.47e-04    29.8
    8    -842.8056534325414759     8.65e-06  3.02e-05  1.33e-03  8.71e-04    17.6
    9    -842.8056687282542043    -1.53e-05  1.20e-05  3.62e-04  1.13e-04    16.0
   10    -842.8056682691194510     4.59e-07  6.02e-06  2.53e-04  1.40e-04    13.6
                 **** Energy Check signals convergence ****

               *****************************************************
               *                     SUCCESS                       *
               *           SCF CONVERGED AFTER  10 CYCLES          *
               *****************************************************

Recomputing exchange energy using gridx3       ... done (   49.976 sec)
Old exchange energy                            :    -23.230534505 Eh
New exchange energy                            :    -23.230538965 Eh
Exchange energy change after final integration :     -0.000004461 Eh
Total energy after final integration           :   -842.805672730 Eh
             **** ENERGY FILE WAS UPDATED (/home/nmrbox/aojoawo/Documents/ERDOS/inputs/CHEMBL460302.en.tmp) ****

----------------
TOTAL SCF ENERGY
----------------

Total Energy       :       -842.80567272987355 Eh          -22933.90829 eV

Components:
Nuclear Repulsion  :       1417.15878211851395 Eh           38562.85096 eV
Electronic Energy  :      -2259.96445038763341 Eh          -61496.75913 eV
One Electron Energy:      -3956.99992800397877 Eh         -107675.44215 eV
Two Electron Energy:       1697.03547761634559 Eh           46178.68302 eV

Virial components:
Potential Energy   :      -1680.81765418916984 Eh          -45737.37361 eV
Kinetic Energy     :        838.01198145929629 Eh           22803.46532 eV
Virial Ratio       :          2.00572031352372

DFT components:
N(Alpha)           :       71.000011298542 electrons
N(Beta)            :       71.000011298542 electrons
N(Total)           :      142.000022597084 electrons
E(X)               :      -92.220631884652 Eh       
E(C)               :       -5.642633691005 Eh       
E(XC)              :      -97.863265575657 Eh       

---------------
SCF CONVERGENCE
---------------

  Last Energy change         ...   -4.5913e-07  Tolerance :   1.0000e-06
  Last MAX-Density change    ...    2.5250e-04  Tolerance :   1.0000e-05
  Last RMS-Density change    ...    6.0235e-06  Tolerance :   1.0000e-06
  Last DIIS Error            ...    1.3875e-03  Tolerance :   1.0000e-06
  Last Orbital Gradient      ...    1.3975e-04  Tolerance :   5.0000e-05
  Last Orbital Rotation      ...    2.5805e-04  Tolerance :   5.0000e-05


----------------
ORBITAL ENERGIES
----------------

  NO   OCC          E(Eh)            E(eV) 
   0   2.0000     -19.158877      -521.3396 
   1   2.0000     -14.365175      -390.8963 
   2   2.0000     -14.294411      -388.9707 
   3   2.0000     -10.236040      -278.5368 
   4   2.0000     -10.229260      -278.3523 
   5   2.0000     -10.193283      -277.3733 
   6   2.0000     -10.192059      -277.3400 
   7   2.0000     -10.190923      -277.3091 
   8   2.0000     -10.189084      -277.2591 
   9   2.0000     -10.185899      -277.1724 
  10   2.0000     -10.185790      -277.1695 
  11   2.0000     -10.185674      -277.1663 
  12   2.0000     -10.184987      -277.1476 
  13   2.0000     -10.184850      -277.1439 
  14   2.0000     -10.165859      -276.6271 
  15   2.0000     -10.160553      -276.4827 
  16   2.0000     -10.159495      -276.4539 
  17   2.0000     -10.152798      -276.2717 
  18   2.0000     -10.152021      -276.2505 
  19   2.0000     -10.151505      -276.2365 
  20   2.0000      -1.038839       -28.2682 
  21   2.0000      -0.981621       -26.7113 
  22   2.0000      -0.863328       -23.4924 
  23   2.0000      -0.854553       -23.2536 
  24   2.0000      -0.824140       -22.4260 
  25   2.0000      -0.788212       -21.4483 
  26   2.0000      -0.766609       -20.8605 
  27   2.0000      -0.744971       -20.2717 
  28   2.0000      -0.723513       -19.6878 
  29   2.0000      -0.719790       -19.5865 
  30   2.0000      -0.687696       -18.7132 
  31   2.0000      -0.674620       -18.3573 
  32   2.0000      -0.609319       -16.5804 
  33   2.0000      -0.606850       -16.5132 
  34   2.0000      -0.600417       -16.3382 
  35   2.0000      -0.589385       -16.0380 
  36   2.0000      -0.573029       -15.5929 
  37   2.0000      -0.541801       -14.7432 
  38   2.0000      -0.530706       -14.4412 
  39   2.0000      -0.512663       -13.9503 
  40   2.0000      -0.490168       -13.3381 
  41   2.0000      -0.474738       -12.9183 
  42   2.0000      -0.473394       -12.8817 
  43   2.0000      -0.466049       -12.6818 
  44   2.0000      -0.464118       -12.6293 
  45   2.0000      -0.452390       -12.3101 
  46   2.0000      -0.434394       -11.8205 
  47   2.0000      -0.430434       -11.7127 
  48   2.0000      -0.429165       -11.6782 
  49   2.0000      -0.421804       -11.4779 
  50   2.0000      -0.413316       -11.2469 
  51   2.0000      -0.411111       -11.1869 
  52   2.0000      -0.395377       -10.7587 
  53   2.0000      -0.390494       -10.6259 
  54   2.0000      -0.365625        -9.9492 
  55   2.0000      -0.361573        -9.8389 
  56   2.0000      -0.359894        -9.7932 
  57   2.0000      -0.349508        -9.5106 
  58   2.0000      -0.348030        -9.4704 
  59   2.0000      -0.346782        -9.4364 
  60   2.0000      -0.331969        -9.0333 
  61   2.0000      -0.328706        -8.9445 
  62   2.0000      -0.320860        -8.7310 
  63   2.0000      -0.308421        -8.3926 
  64   2.0000      -0.299170        -8.1408 
  65   2.0000      -0.251110        -6.8330 
  66   2.0000      -0.249394        -6.7864 
  67   2.0000      -0.240501        -6.5444 
  68   2.0000      -0.220239        -5.9930 
  69   2.0000      -0.204211        -5.5569 
  70   2.0000      -0.173413        -4.7188 
  71   0.0000      -0.010065        -0.2739 
  72   0.0000      -0.002640        -0.0718 
  73   0.0000       0.012874         0.3503 
  74   0.0000       0.044430         1.2090 
  75   0.0000       0.079048         2.1510 
  76   0.0000       0.082525         2.2456 
  77   0.0000       0.091832         2.4989 
  78   0.0000       0.100121         2.7244 
  79   0.0000       0.113348         3.0844 
  80   0.0000       0.119412         3.2494 
  81   0.0000       0.133763         3.6399 
*Only the first 10 virtual orbitals were printed.

                    ********************************
                    * MULLIKEN POPULATION ANALYSIS *
                    ********************************

-----------------------
MULLIKEN ATOMIC CHARGES
-----------------------
   0 N :   -0.704962
   1 C :   -0.124139
   2 C :   -0.316392
   3 C :    0.033562
   4 C :   -0.022786
   5 N :   -0.627468
   6 C :    0.239303
   7 C :    0.325446
   8 O :   -0.536491
   9 C :   -0.096364
  10 C :    0.133089
  11 C :   -0.158926
  12 C :   -0.130331
  13 C :   -0.121630
  14 C :   -0.130402
  15 C :   -0.158702
  16 C :   -0.235437
  17 C :   -0.145688
  18 C :   -0.203992
  19 C :    0.109249
  20 H :    0.287060
  21 H :    0.300465
  22 H :    0.125739
  23 H :    0.107640
  24 H :    0.127161
  25 H :    0.149188
  26 H :    0.133276
  27 H :    0.343277
  28 H :    0.136032
  29 H :    0.135227
  30 H :    0.132072
  31 H :    0.130431
  32 H :    0.130063
  33 H :    0.130868
  34 H :    0.133144
  35 H :    0.121447
  36 H :    0.116092
  37 H :    0.133879
Sum of atomic charges:   -0.0000000

--------------------------------
MULLIKEN REDUCED ORBITAL CHARGES
--------------------------------
  0 N s       :     3.688715  s :     3.688715
      pz      :     1.567272  p :     3.982770
      px      :     1.196067
      py      :     1.219432
      dz2     :     0.006323  d :     0.033478
      dxz     :     0.009031
      dyz     :     0.004582
      dx2y2   :     0.010428
      dxy     :     0.003114

  1 C s       :     3.209052  s :     3.209052
      pz      :     0.985114  p :     2.859383
      px      :     1.041643
      py      :     0.832626
      dz2     :     0.011090  d :     0.055704
      dxz     :     0.005413
      dyz     :     0.015463
      dx2y2   :     0.016319
      dxy     :     0.007419

  2 C s       :     3.252244  s :     3.252244
      pz      :     0.990084  p :     3.023497
      px      :     1.009133
      py      :     1.024279
      dz2     :     0.009091  d :     0.040651
      dxz     :     0.008601
      dyz     :     0.006340
      dx2y2   :     0.011025
      dxy     :     0.005594

  3 C s       :     3.119690  s :     3.119690
      pz      :     1.001509  p :     2.803745
      px      :     0.846816
      py      :     0.955420
      dz2     :     0.005777  d :     0.043003
      dxz     :     0.008799
      dyz     :     0.004614
      dx2y2   :     0.010026
      dxy     :     0.013787

  4 C s       :     3.111144  s :     3.111144
      pz      :     1.049351  p :     2.857425
      px      :     0.800639
      py      :     1.007436
      dz2     :     0.005241  d :     0.054216
      dxz     :     0.012317
      dyz     :     0.006831
      dx2y2   :     0.015748
      dxy     :     0.014080

  5 N s       :     3.639319  s :     3.639319
      pz      :     1.496701  p :     3.947801
      px      :     1.161490
      py      :     1.289611
      dz2     :     0.005389  d :     0.040347
      dxz     :     0.008223
      dyz     :     0.005805
      dx2y2   :     0.009890
      dxy     :     0.011040

  6 C s       :     3.047151  s :     3.047151
      pz      :     0.964440  p :     2.652373
      px      :     0.942986
      py      :     0.744947
      dz2     :     0.009892  d :     0.061173
      dxz     :     0.009014
      dyz     :     0.011335
      dx2y2   :     0.016954
      dxy     :     0.013977

  7 C s       :     3.094348  s :     3.094348
      pz      :     0.970813  p :     2.514237
      px      :     0.633269
      py      :     0.910155
      dz2     :     0.008313  d :     0.065969
      dxz     :     0.015227
      dyz     :     0.006396
      dx2y2   :     0.016891
      dxy     :     0.019141

  8 O s       :     3.877911  s :     3.877911
      pz      :     1.774176  p :     4.632309
      px      :     1.193867
      py      :     1.664267
      dz2     :     0.003535  d :     0.026270
      dxz     :     0.006235
      dyz     :     0.002821
      dx2y2   :     0.005018
      dxy     :     0.008660

  9 C s       :     3.209922  s :     3.209922
      pz      :     1.055456  p :     2.820456
      px      :     0.801896
      py      :     0.963104
      dz2     :     0.015454  d :     0.065985
      dxz     :     0.009954
      dyz     :     0.008412
      dx2y2   :     0.016229
      dxy     :     0.015936

 10 C s       :     3.117030  s :     3.117030
      pz      :     0.882059  p :     2.710390
      px      :     0.915029
      py      :     0.913301
      dz2     :     0.010108  d :     0.039492
      dxz     :     0.009655
      dyz     :     0.008033
      dx2y2   :     0.005150
      dxy     :     0.006545

 11 C s       :     3.197639  s :     3.197639
      pz      :     0.960719  p :     2.925343
      px      :     0.974265
      py      :     0.990359
      dz2     :     0.007828  d :     0.035944
      dxz     :     0.008919
      dyz     :     0.008925
      dx2y2   :     0.004302
      dxy     :     0.005968

 12 C s       :     3.189917  s :     3.189917
      pz      :     0.983352  p :     2.904417
      px      :     0.961043
      py      :     0.960022
      dz2     :     0.010127  d :     0.035997
      dxz     :     0.007850
      dyz     :     0.005774
      dx2y2   :     0.006408
      dxy     :     0.005838

 13 C s       :     3.186521  s :     3.186521
      pz      :     0.946658  p :     2.898967
      px      :     0.981981
      py      :     0.970328
      dz2     :     0.008993  d :     0.036142
      dxz     :     0.008802
      dyz     :     0.007827
      dx2y2   :     0.003935
      dxy     :     0.006586

 14 C s       :     3.190012  s :     3.190012
      pz      :     0.949775  p :     2.904391
      px      :     0.967648
      py      :     0.986968
      dz2     :     0.007726  d :     0.035999
      dxz     :     0.008884
      dyz     :     0.008980
      dx2y2   :     0.004339
      dxy     :     0.006069

 15 C s       :     3.197738  s :     3.197738
      pz      :     0.987759  p :     2.925023
      px      :     0.973545
      py      :     0.963720
      dz2     :     0.009861  d :     0.035941
      dxz     :     0.007775
      dyz     :     0.005863
      dx2y2   :     0.006598
      dxy     :     0.005845

 16 C s       :     3.192116  s :     3.192116
      pz      :     1.061337  p :     3.009372
      px      :     0.972184
      py      :     0.975851
      dz2     :     0.004781  d :     0.033949
      dxz     :     0.005418
      dyz     :     0.004763
      dx2y2   :     0.007947
      dxy     :     0.011039

 17 C s       :     3.201406  s :     3.201406
      pz      :     1.008138  p :     2.907939
      px      :     0.915166
      py      :     0.984634
      dz2     :     0.002767  d :     0.036343
      dxz     :     0.007648
      dyz     :     0.005562
      dx2y2   :     0.011121
      dxy     :     0.009245

 18 C s       :     3.185499  s :     3.185499
      pz      :     1.026129  p :     2.982294
      px      :     0.946032
      py      :     1.010133
      dz2     :     0.004969  d :     0.036199
      dxz     :     0.004886
      dyz     :     0.005704
      dx2y2   :     0.011862
      dxy     :     0.008778

 19 C s       :     3.100651  s :     3.100651
      pz      :     0.984804  p :     2.743329
      px      :     0.883555
      py      :     0.874970
      dz2     :     0.006622  d :     0.046771
      dxz     :     0.008348
      dyz     :     0.007760
      dx2y2   :     0.012826
      dxy     :     0.011214

 20 H s       :     0.712940  s :     0.712940

 21 H s       :     0.699535  s :     0.699535

 22 H s       :     0.874261  s :     0.874261

 23 H s       :     0.892360  s :     0.892360

 24 H s       :     0.872839  s :     0.872839

 25 H s       :     0.850812  s :     0.850812

 26 H s       :     0.866724  s :     0.866724

 27 H s       :     0.656723  s :     0.656723

 28 H s       :     0.863968  s :     0.863968

 29 H s       :     0.864773  s :     0.864773

 30 H s       :     0.867928  s :     0.867928

 31 H s       :     0.869569  s :     0.869569

 32 H s       :     0.869937  s :     0.869937

 33 H s       :     0.869132  s :     0.869132

 34 H s       :     0.866856  s :     0.866856

 35 H s       :     0.878553  s :     0.878553

 36 H s       :     0.883908  s :     0.883908

 37 H s       :     0.866121  s :     0.866121



                     *******************************
                     * LOEWDIN POPULATION ANALYSIS *
                     *******************************

----------------------
LOEWDIN ATOMIC CHARGES
----------------------
   0 N :   -0.478521
   1 C :   -0.168046
   2 C :   -0.224235
   3 C :   -0.077783
   4 C :   -0.120665
   5 N :   -0.107284
   6 C :   -0.015197
   7 C :    0.067811
   8 O :   -0.198823
   9 C :   -0.078738
  10 C :   -0.031863
  11 C :   -0.121824
  12 C :   -0.129077
  13 C :   -0.125749
  14 C :   -0.128852
  15 C :   -0.121404
  16 C :   -0.199068
  17 C :   -0.143072
  18 C :   -0.150097
  19 C :   -0.043920
  20 H :    0.219765
  21 H :    0.226716
  22 H :    0.112161
  23 H :    0.092867
  24 H :    0.123117
  25 H :    0.132354
  26 H :    0.129076
  27 H :    0.272817
  28 H :    0.115631
  29 H :    0.115220
  30 H :    0.133722
  31 H :    0.132232
  32 H :    0.132235
  33 H :    0.132433
  34 H :    0.134204
  35 H :    0.129371
  36 H :    0.126496
  37 H :    0.135990

-------------------------------
LOEWDIN REDUCED ORBITAL CHARGES
-------------------------------
  0 N s       :     3.308904  s :     3.308904
      pz      :     1.578133  p :     4.107346
      px      :     1.229650
      py      :     1.299562
      dz2     :     0.009981  d :     0.062272
      dxz     :     0.013488
      dyz     :     0.008745
      dx2y2   :     0.021469
      dxy     :     0.008588

  1 C s       :     2.935845  s :     2.935845
      pz      :     1.066212  p :     3.115140
      px      :     1.089404
      py      :     0.959525
      dz2     :     0.023155  d :     0.117060
      dxz     :     0.011182
      dyz     :     0.033759
      dx2y2   :     0.034227
      dxy     :     0.014738

  2 C s       :     2.929843  s :     2.929843
      pz      :     1.071857  p :     3.208685
      px      :     1.047857
      py      :     1.088971
      dz2     :     0.019117  d :     0.085707
      dxz     :     0.019299
      dyz     :     0.012879
      dx2y2   :     0.022714
      dxy     :     0.011698

  3 C s       :     2.859360  s :     2.859360
      pz      :     1.045102  p :     3.111742
      px      :     1.021244
      py      :     1.045396
      dz2     :     0.012806  d :     0.106680
      dxz     :     0.019746
      dyz     :     0.012018
      dx2y2   :     0.026322
      dxy     :     0.035789

  4 C s       :     2.901438  s :     2.901438
      pz      :     1.072100  p :     3.096560
      px      :     0.952609
      py      :     1.071851
      dz2     :     0.010856  d :     0.122667
      dxz     :     0.028974
      dyz     :     0.011703
      dx2y2   :     0.036817
      dxy     :     0.034317

  5 N s       :     3.084472  s :     3.084472
      pz      :     1.457511  p :     3.925846
      px      :     1.190631
      py      :     1.277703
      dz2     :     0.011255  d :     0.096967
      dxz     :     0.018004
      dyz     :     0.013328
      dx2y2   :     0.026890
      dxy     :     0.027490

  6 C s       :     2.822316  s :     2.822316
      pz      :     1.021240  p :     3.040516
      px      :     1.054085
      py      :     0.965191
      dz2     :     0.021838  d :     0.152364
      dxz     :     0.020690
      dyz     :     0.028387
      dx2y2   :     0.044896
      dxy     :     0.036553

  7 C s       :     2.855322  s :     2.855322
      pz      :     1.010883  p :     2.919815
      px      :     0.861313
      py      :     1.047619
      dz2     :     0.017984  d :     0.157051
      dxz     :     0.033732
      dyz     :     0.015155
      dx2y2   :     0.043361
      dxy     :     0.046820

  8 O s       :     3.465171  s :     3.465171
      pz      :     1.767158  p :     4.671419
      px      :     1.226696
      py      :     1.677565
      dz2     :     0.007436  d :     0.062232
      dxz     :     0.014971
      dyz     :     0.004102
      dx2y2   :     0.015039
      dxy     :     0.020684

  9 C s       :     2.927084  s :     2.927084
      pz      :     1.099099  p :     3.011853
      px      :     0.883488
      py      :     1.029266
      dz2     :     0.031039  d :     0.139801
      dxz     :     0.021512
      dyz     :     0.016369
      dx2y2   :     0.034287
      dxy     :     0.036593

 10 C s       :     2.876769  s :     2.876769
      pz      :     1.051650  p :     3.055815
      px      :     1.001393
      py      :     1.002771
      dz2     :     0.026762  d :     0.099279
      dxz     :     0.024196
      dyz     :     0.021320
      dx2y2   :     0.011489
      dxy     :     0.015513

 11 C s       :     2.919421  s :     2.919421
      pz      :     1.053089  p :     3.118419
      px      :     1.036615
      py      :     1.028715
      dz2     :     0.019959  d :     0.083984
      dxz     :     0.022748
      dyz     :     0.019075
      dx2y2   :     0.009378
      dxy     :     0.012823

 12 C s       :     2.918150  s :     2.918150
      pz      :     1.063740  p :     3.126175
      px      :     1.037586
      py      :     1.024848
      dz2     :     0.021786  d :     0.084753
      dxz     :     0.018353
      dyz     :     0.014022
      dx2y2   :     0.014642
      dxy     :     0.015951

 13 C s       :     2.918558  s :     2.918558
      pz      :     1.062081  p :     3.122305
      px      :     1.037062
      py      :     1.023162
      dz2     :     0.023334  d :     0.084886
      dxz     :     0.020717
      dyz     :     0.020078
      dx2y2   :     0.007940
      dxy     :     0.012818

 14 C s       :     2.918161  s :     2.918161
      pz      :     1.062047  p :     3.125940
      px      :     1.037665
      py      :     1.026228
      dz2     :     0.020156  d :     0.084751
      dxz     :     0.022672
      dyz     :     0.019443
      dx2y2   :     0.009524
      dxy     :     0.012957

 15 C s       :     2.919451  s :     2.919451
      pz      :     1.064166  p :     3.117978
      px      :     1.035162
      py      :     1.018650
      dz2     :     0.021197  d :     0.083976
      dxz     :     0.018058
      dyz     :     0.013965
      dx2y2   :     0.014734
      dxy     :     0.016022

 16 C s       :     2.918097  s :     2.918097
      pz      :     1.075646  p :     3.201163
      px      :     1.070356
      py      :     1.055162
      dz2     :     0.009318  d :     0.079808
      dxz     :     0.012645
      dyz     :     0.010900
      dx2y2   :     0.020911
      dxy     :     0.026034

 17 C s       :     2.917790  s :     2.917790
      pz      :     1.024349  p :     3.140171
      px      :     1.059176
      py      :     1.056645
      dz2     :     0.005874  d :     0.085112
      dxz     :     0.018089
      dyz     :     0.009662
      dx2y2   :     0.027541
      dxy     :     0.023945

 18 C s       :     2.909957  s :     2.909957
      pz      :     1.033304  p :     3.155908
      px      :     1.074065
      py      :     1.048540
      dz2     :     0.009971  d :     0.084232
      dxz     :     0.010563
      dyz     :     0.013409
      dx2y2   :     0.027053
      dxy     :     0.023236

 19 C s       :     2.833946  s :     2.833946
      pz      :     1.017053  p :     3.088185
      px      :     1.031308
      py      :     1.039824
      dz2     :     0.014266  d :     0.121789
      dxz     :     0.021190
      dyz     :     0.018163
      dx2y2   :     0.035646
      dxy     :     0.032525

 20 H s       :     0.780235  s :     0.780235

 21 H s       :     0.773284  s :     0.773284

 22 H s       :     0.887839  s :     0.887839

 23 H s       :     0.907133  s :     0.907133

 24 H s       :     0.876883  s :     0.876883

 25 H s       :     0.867646  s :     0.867646

 26 H s       :     0.870924  s :     0.870924

 27 H s       :     0.727183  s :     0.727183

 28 H s       :     0.884369  s :     0.884369

 29 H s       :     0.884780  s :     0.884780

 30 H s       :     0.866278  s :     0.866278

 31 H s       :     0.867768  s :     0.867768

 32 H s       :     0.867765  s :     0.867765

 33 H s       :     0.867567  s :     0.867567

 34 H s       :     0.865796  s :     0.865796

 35 H s       :     0.870629  s :     0.870629

 36 H s       :     0.873504  s :     0.873504

 37 H s       :     0.864010  s :     0.864010



                      *****************************
                      * MAYER POPULATION ANALYSIS *
                      *****************************

  NA   - Mulliken gross atomic population
  ZA   - Total nuclear charge
  QA   - Mulliken gross atomic charge
  VA   - Mayer's total valence
  BVA  - Mayer's bonded valence
  FA   - Mayer's free valence

  ATOM       NA         ZA         QA         VA         BVA        FA
  0 N      7.7050     7.0000    -0.7050     2.7409     2.7409    -0.0000
  1 C      6.1241     6.0000    -0.1241     3.8698     3.8698    -0.0000
  2 C      6.3164     6.0000    -0.3164     3.8411     3.8411    -0.0000
  3 C      5.9664     6.0000     0.0336     3.9694     3.9694    -0.0000
  4 C      6.0228     6.0000    -0.0228     3.7373     3.7373    -0.0000
  5 N      7.6275     7.0000    -0.6275     3.1041     3.1041    -0.0000
  6 C      5.7607     6.0000     0.2393     3.7622     3.7622    -0.0000
  7 C      5.6746     6.0000     0.3254     3.7323     3.7323    -0.0000
  8 O      8.5365     8.0000    -0.5365     1.9312     1.9312    -0.0000
  9 C      6.0964     6.0000    -0.0964     3.8059     3.8059    -0.0000
 10 C      5.8669     6.0000     0.1331     3.9695     3.9695    -0.0000
 11 C      6.1589     6.0000    -0.1589     3.9379     3.9379     0.0000
 12 C      6.1303     6.0000    -0.1303     3.9435     3.9435     0.0000
 13 C      6.1216     6.0000    -0.1216     3.9471     3.9471     0.0000
 14 C      6.1304     6.0000    -0.1304     3.9434     3.9434     0.0000
 15 C      6.1587     6.0000    -0.1587     3.9378     3.9378    -0.0000
 16 C      6.2354     6.0000    -0.2354     3.8723     3.8723     0.0000
 17 C      6.1457     6.0000    -0.1457     3.9274     3.9274     0.0000
 18 C      6.2040     6.0000    -0.2040     3.8678     3.8678     0.0000
 19 C      5.8908     6.0000     0.1092     4.1506     4.1506    -0.0000
 20 H      0.7129     1.0000     0.2871     0.8704     0.8704     0.0000
 21 H      0.6995     1.0000     0.3005     0.8701     0.8701     0.0000
 22 H      0.8743     1.0000     0.1257     0.9342     0.9342    -0.0000
 23 H      0.8924     1.0000     0.1076     0.9340     0.9340     0.0000
 24 H      0.8728     1.0000     0.1272     0.9357     0.9357    -0.0000
 25 H      0.8508     1.0000     0.1492     0.9387     0.9387     0.0000
 26 H      0.8667     1.0000     0.1333     0.9411     0.9411    -0.0000
 27 H      0.6567     1.0000     0.3433     0.8602     0.8602     0.0000
 28 H      0.8640     1.0000     0.1360     0.9310     0.9310     0.0000
 29 H      0.8648     1.0000     0.1352     0.9312     0.9312     0.0000
 30 H      0.8679     1.0000     0.1321     0.9377     0.9377    -0.0000
 31 H      0.8696     1.0000     0.1304     0.9365     0.9365     0.0000
 32 H      0.8699     1.0000     0.1301     0.9362     0.9362     0.0000
 33 H      0.8691     1.0000     0.1309     0.9364     0.9364     0.0000
 34 H      0.8669     1.0000     0.1331     0.9375     0.9375     0.0000
 35 H      0.8786     1.0000     0.1214     0.9433     0.9433     0.0000
 36 H      0.8839     1.0000     0.1161     0.9415     0.9415     0.0000
 37 H      0.8661     1.0000     0.1339     0.9458     0.9458     0.0000

  Mayer bond orders larger than 0.100000
B(  0-N ,  1-C ) :   1.0098 B(  0-N , 20-H ) :   0.8684 B(  0-N , 21-H ) :   0.8538 
B(  1-C ,  2-C ) :   0.9858 B(  1-C , 22-H ) :   0.9398 B(  1-C , 23-H ) :   0.9348 
B(  2-C ,  3-C ) :   1.0097 B(  2-C , 24-H ) :   0.9343 B(  2-C , 25-H ) :   0.9243 
B(  3-C ,  4-C ) :   1.5242 B(  3-C , 19-C ) :   1.3068 B(  4-C ,  5-N ) :   1.0968 
B(  4-C , 26-H ) :   0.9304 B(  5-N ,  6-C ) :   1.0099 B(  5-N , 27-H ) :   0.8294 
B(  6-C ,  7-C ) :   1.2793 B(  6-C , 19-C ) :   1.3220 B(  7-C ,  8-O ) :   0.8985 
B(  7-C , 16-C ) :   1.4027 B(  8-O ,  9-C ) :   0.9008 B(  9-C , 10-C ) :   0.9898 
B(  9-C , 28-H ) :   0.9126 B(  9-C , 29-H ) :   0.9127 B( 10-C , 11-C ) :   1.4363 
B( 10-C , 15-C ) :   1.4361 B( 11-C , 12-C ) :   1.4405 B( 11-C , 30-H ) :   0.9250 
B( 12-C , 13-C ) :   1.4531 B( 12-C , 31-H ) :   0.9295 B( 13-C , 14-C ) :   1.4529 
B( 13-C , 32-H ) :   0.9302 B( 14-C , 15-C ) :   1.4407 B( 14-C , 33-H ) :   0.9294 
B( 15-C , 34-H ) :   0.9248 B( 16-C , 17-C ) :   1.3551 B( 16-C , 35-H ) :   0.9217 
B( 17-C , 18-C ) :   1.4810 B( 17-C , 36-H ) :   0.9328 B( 18-C , 19-C ) :   1.3373 
B( 18-C , 37-H ) :   0.9157 

-------
TIMINGS
-------

Total SCF time: 0 days 0 hours 3 min 43 sec 

Total time                  ....     223.768 sec
Sum of individual times     ....     223.364 sec  ( 99.8%)

SCF preparation             ....       0.303 sec  (  0.1%)
Fock matrix formation       ....     221.449 sec  ( 99.0%)
  Startup                   ....       0.074 sec  (  0.0% of F)
  Split-RI-J                ....      23.800 sec  ( 10.7% of F)
  Chain of spheres X        ....     172.770 sec  ( 78.0% of F)
  XC integration            ....      24.060 sec  ( 10.9% of F)
    Basis function eval.    ....       9.528 sec  ( 39.6% of XC)
    Density eval.           ....       5.106 sec  ( 21.2% of XC)
    XC-Functional eval.     ....       1.286 sec  (  5.3% of XC)
    XC-Potential eval.      ....       6.498 sec  ( 27.0% of XC)
Diagonalization             ....       0.000 sec  (  0.0%)
Density matrix formation    ....       0.367 sec  (  0.2%)
Total Energy calculation    ....       0.070 sec  (  0.0%)
Population analysis         ....       0.052 sec  (  0.0%)
Orbital Transformation      ....       0.167 sec  (  0.1%)
Orbital Orthonormalization  ....       0.000 sec  (  0.0%)
DIIS solution               ....       0.670 sec  (  0.3%)
SOSCF solution              ....       0.288 sec  (  0.1%)
Finished LeanSCF after 223.9 sec

Maximum memory used throughout the entire LEANSCF-calculation: 47.2 MB

-------------------------   --------------------
FINAL SINGLE POINT ENERGY      -842.805672729874
-------------------------   --------------------


------------------------------------------------------------------------------
                              ORCA PROPERTY CALCULATIONS
------------------------------------------------------------------------------

GBWName                                 ... /home/nmrbox/aojoawo/Documents/ERDOS/inputs/CHEMBL460302.gbw
Number of atoms                         ...     38
Number of basis functions               ...    316
Max core memory                         ...   1024 MB

Electric properties:
Dipole moment                           ... YES
Quadrupole moment                       ...  NO
Static polarizability (Dipole/Dipole)   ...  NO
Static polarizability (Dipole/Quad.)    ...  NO
Static polarizability (Quad./Quad.)     ...  NO
Static polarizability (Velocity)        ...  NO

Atomic electric properties:
Dipole moment                           ...  NO
Quadrupole moment                       ...  NO
Static polarizability                   ...  NO

Choice of electric origin               ... Center of mass
Position of electric origin             ...     0.395963    -0.032562     0.353509

General magnetic properties:
Magnetizability                         ...  NO

EPR properties:
g-Tensor (aka g-matrix)                 ...  NO
Zero-Field splitting spin-orbit         ...  NO
Zero-field splitting spin-spin          ...  NO
Hyperfine couplings                     ...  NO (   0 nuclei)
Quadrupole couplings                    ...  NO (   0 nuclei)
Contact density                         ...  NO (   0 nuclei)

NMR properties:
Chemical shifts                         ...  NO (   0 nuclei)
Spin-rotation constants                 ...  NO (   0 nuclei)
Spin-spin couplings                     ...  NO (   0 nuclei,    0 pairs)

Choice of magnetic origin               ... GIAO
Position of magnetic origin             ...     0.000000     0.000000     0.000000

Properties with geometric perturbations:
SCF Hessian                             ...  NO
IR spectrum                             ...  NO
VCD spectrum                            ...  NO
X-ray spectroscopy properties:
SCF XES/XAS/RIXS spectra                ...  NO


-------------
DIPOLE MOMENT
-------------

Method             : SCF
Type of density    : Electron Density
Multiplicity       :   1
Irrep              :   0
Energy             :  -842.8056727298735495 Eh
Relativity type    : 
Basis              : AO
                                X                 Y                 Z
Electronic contribution:      9.698200138      -1.315057304       2.574770936
Nuclear contribution   :     -8.818255769       0.693998300      -3.411147680
                        -----------------------------------------
Total Dipole Moment    :      0.879944370      -0.621059004      -0.836376744
                        -----------------------------------------
Magnitude (a.u.)       :      1.363650409
Magnitude (Debye)      :      3.466123882



--------------------
Rotational spectrum 
--------------------
 
Rotational constants in cm-1:             0.028855             0.004594             0.004308 
Rotational constants in MHz :           865.056405           137.715932           129.148203 

Dipole components along the rotational axes: 
x,y,z [a.u.] :     0.932654    -0.937594    -0.332590 
x,y,z [Debye]:     2.370618    -2.383175    -0.845376 

 

Dipole moment calculation done in   0.0 sec 

Maximum memory used throughout the entire PROP-calculation: 22.0 MB

--------------------------------
SUGGESTED CITATIONS FOR THIS RUN
--------------------------------

Below you find a list of papers that are relevant to this ORCA run
We neither can nor want to force you to cite these papers, but we appreciate if you do
You receive ORCA, which is the product of decades of hard work by many enthusiastic individuals, for free
The only thing we kindly ask in return is that you cite our papers,
We deeply appreciate it, if you show your appreciation for ORCA by not just citing the generic ORCA reference.

Please note that relegating all ORCA citations to the supporting information does *not* help us.
SI sections are not indexed - citations you put there will not count into any citation statistics
But we need these citations in order to attract the funding resources that allow us to do what we are doing

Therefore, if you are a happy ORCA user, please consider citing a few of the papers listed below in the main body of your paper

In addition to the list printed below, the program has created the file /home/nmrbox/aojoawo/Documents/ERDOS/inputs/CHEMBL460302.bibtex that contains the list in bibtex format
You can import this file easily into all common literature databanks and citation aid programs


List of essential papers. We consider these as the minimum necessary citations

  1. Neese,F.
     Software update: the ORCA program system, version 5.0
     WIRES Comput. Molec. Sci., 2022 12(1)e1606
     doi.org/10.1002/wcms.1606

List of papers to cite with high priority. The work reported in these papers was absolutely
necessary for this run to complete.
Our perspective: the developers of density functionals and basis sets usually get cited in chemistry papers
Good! But without the algorithms to do something with them, the functionals or basis sets would not do anything.
Hence, in our opinion, the algorithm design and method developments papers are equally worthy of getting cited

  1. Neese,F.
     An improvement of the resolution of the identity approximation for the formation of the Coulomb matrix
     J. Comp. Chem., 2003 24(14)1740-1747
     doi.org/10.1002/jcc.10318
  2. Neese,F.; Wennmohs,F.; Hansen,A.; Becker,U.
     Efficient, approximate and parallel Hartree-Fock and hybrid DFT calculations. A 'chain-of-spheres' algorithm for the Hartree-Fock exchange
     Chem. Phys., 2009 356(1-3)98-109
     doi.org/10.1016/j.chemphys.2008.10.036
  3. Helmich-Paris,B.; de Souza,B.; Neese,F.; Izsák,R.
     An improved chain of spheres for exchange algorithm
     J. Chem. Phys., 2021 155 104109
     doi.org/doi: 10.1063/5.0058766.
  4. Neese,F.
     The SHARK Integral Generation and Digestion System
     J. Comp. Chem., 2022  1-16
     doi.org/10.1002/jcc.26942

List of suggested additional citations. These are papers that are important in the 'surrounding' of 
of this run, or papers that preceded the highly important papers. If you like your results we are grateful for a citation.

  1. Izsak,R.; Neese,F.
     An overlap fitted chain of spheres exchange method
     J. Chem. Phys., 2011 135 144105
     doi.org/10.1063/1.3646921
  2. Izsak,R.; Hansen,A.; Neese,F.
     The resolution of identity and chain of spheres approximations for the LPNO-CCSD singles Fock term
     Molec. Phys., 2012 110 2413-2417
     doi.org/10.1080/00268976.2012.687466
  3. Neese,F.
     The ORCA program system
     WIRES Comput. Molec. Sci., 2012 2(1)73-78
     doi.org/10.1002/wcms.81
  4. Izsak,R.; Neese,F.; Klopper,W.
     Robust fitting techniques in the chain of spheres approximation to the Fock exchange: The role of the complementary space
     J. Chem. Phys., 2013 139 
     doi.org/10.1063/1.4819264
  5. Neese,F.
     Software update: the ORCA program system, version 4.0
     WIRES Comput. Molec. Sci., 2018 8(1)1-6
     doi.org/10.1002/wcms.1327
  6. Neese,F.; Wennmohs,F.; Becker,U.; Riplinger,C.
     The ORCA quantum chemistry program package
     J. Chem. Phys., 2020 152 Art. No. L224108
     doi.org/10.1063/5.0004608

List of optional additional citations

  1. Neese,F.
     Approximate second-order SCF convergence for spin unrestricted wavefunctions
     Chem. Phys. Lett., 2000 325(1-3)93-98
     doi.org/10.1016/s0009-2614(00)00662-x

Timings for individual modules:

Sum of individual times          ...      235.616 sec (=   3.927 min)
Startup calculation              ...        7.789 sec (=   0.130 min)   3.3 %
SCF iterations                   ...      227.654 sec (=   3.794 min)  96.6 %
Property calculations            ...        0.173 sec (=   0.003 min)   0.1 %
                             ****ORCA TERMINATED NORMALLY****
TOTAL RUN TIME: 0 days 0 hours 3 minutes 56 seconds 641 msec
