
                                 *****************
                                 * O   R   C   A *
                                 *****************

                                            #,                                       
                                            ###                                      
                                            ####                                     
                                            #####                                    
                                            ######                                   
                                           ########,                                 
                                     ,,################,,,,,                         
                               ,,#################################,,                 
                          ,,##########################################,,             
                       ,#########################################, ''#####,          
                    ,#############################################,,   '####,        
                  ,##################################################,,,,####,       
                ,###########''''           ''''###############################       
              ,#####''   ,,,,##########,,,,          '''####'''          '####       
            ,##' ,,,,###########################,,,                        '##       
           ' ,,###''''                  '''############,,,                           
         ,,##''                                '''############,,,,        ,,,,,,###''
      ,#''                                            '''#######################'''  
     '                                                          ''''####''''         
             ,#######,   #######,   ,#######,      ##                                
            ,#'     '#,  ##    ##  ,#'     '#,    #''#        ,####,   ,####,        
            ##       ##  ##   ,#'  ##            #'  '#       #'       #'  '#        
            ##       ##  #######   ##           ,######,      #####,   #    #        
            '#,     ,#'  ##    ##  '#,     ,#' ,#      #,     #,   #   #,  ,#        
             '#######'   ##     ##  '#######'  #'      '#     '####' # '####'        



                #########################################################
                #                        -***-                          #
                #          Department of theory and spectroscopy        #
                #                                                       #
                #                      Frank Neese                      #
                #                                                       #
                #     Directorship, Architecture, Infrastructure        #
                #                    SHARK, DRIVERS                     #
                #        Core code/Algorithms in most modules           #
                #                                                       #
                #        Max Planck Institute fuer Kohlenforschung      #
                #                Kaiser Wilhelm Platz 1                 #
                #                 D-45470 Muelheim/Ruhr                 #
                #                      Germany                          #
                #                                                       #
                #                  All rights reserved                  #
                #                        -***-                          #
                #########################################################


                         Program Version 6.0.0  -   RELEASE  -


 With contributions from (in alphabetic order):
   Daniel Aravena         : Magnetic Suceptibility
   Michael Atanasov       : Ab Initio Ligand Field Theory (pilot matlab implementation)
   Alexander A. Auer      : GIAO ZORA, VPT2 properties, NMR spectrum
   Ute Becker             : All parallelization in ORCA, NUMFREQ, NUMCALC
   Giovanni Bistoni       : ED, misc. LED, open-shell LED, HFLD
   Martin Brehm           : Molecular dynamics
   Dmytro Bykov           : pre 5.0 version of the SCF Hessian
   Marcos Casanova-Páez   : Triplet and SCS-CIS(D). UHF-(DLPNO)-IP/EA/STEOM-CCSD. UHF-CVS-IP/STEOM-CCSD
   Vijay G. Chilkuri      : MRCI spin determinant printing, contributions to CSF-ICE
   Pauline Colinet        : FMM embedding
   Dipayan Datta          : RHF DLPNO-CCSD density
   Achintya Kumar Dutta   : EOM-CC, STEOM-CC
   Nicolas Foglia         : Exact transition moments, OPA infrastructure, MCD improvements
   Dmitry Ganyushin       : Spin-Orbit,Spin-Spin,Magnetic field MRCI
   Miquel Garcia          : C-PCM and meta-GGA Hessian, CCSD/C-PCM, Gaussian charge scheme
   Tiago L. C. Gouveia    : GS-ROHF, GS-ROCIS
   Yang Guo               : DLPNO-NEVPT2, F12-NEVPT2, CIM, IAO-localization
   Andreas Hansen         : Spin unrestricted coupled pair/coupled cluster methods
   Ingolf Harden          : AUTO-CI MPn and infrastructure 
   Benjamin Helmich-Paris : MC-RPA, TRAH-(SCF,CASSCF), AVAS, COSX integrals, SCF dyn. polar.
   Lee Huntington         : MR-EOM, pCC
   Robert Izsak           : Overlap fitted RIJCOSX, COSX-SCS-MP3, EOM
   Riya Kayal             : Wick's Theorem for AUTO-CI, AUTO-CI UHF-CCSDT
   Emily Kempfer          : AUTO-CI, RHF CISDT and CCSDT
   Christian Kollmar      : KDIIS, OOCD, Brueckner-CCSD(T), CCSD density, CASPT2, CASPT2-K, improved NEVPT2
   Axel Koslowski         : Symmetry handling
   Simone Kossmann        : Meta GGA functionals, TD-DFT gradient, OOMP2, (MP2 Hessian; deprecated post 5.0)
   Lucas Lang             : DCDCAS
   Marvin Lechner         : AUTO-CI (C++ implementation), FIC-MRCC
   Spencer Leger          : CASSCF response
   Dagmar Lenk            : GEPOL surface, SMD, ORCA-2-JSON
   Dimitrios Liakos       : Extrapolation schemes; Compound Job, initial MDCI parallelization
   Dimitrios Manganas     : Further ROCIS development; embedding schemes. LFT, Crystal Embedding
   Dimitrios Pantazis     : SARC Basis sets
   Anastasios Papadopoulos: AUTO-CI, single reference methods and gradients
   Taras Petrenko         : pre 6.0 DFT Hessian and TD-DFT gradient, (ASA, deprecated), ECA, 1-Electron XAS/XES, NRVS
   Peter Pinski           : DLPNO-MP2, DLPNO-MP2 Gradient
   Christoph Reimann      : Effective Core Potentials
   Marius Retegan         : Local ZFS, SOC
   Christoph Riplinger    : Optimizer, TS searches, QM/MM, DLPNO-CCSD(T), (RO)-DLPNO pert. Triples
   Michael Roemelt        : Original ROCIS implementation
   Masaaki Saitow         : Open-shell DLPNO-CCSD energy and density
   Barbara Sandhoefer     : DKH picture change effects
   Kantharuban Sivalingam : CASSCF convergence/infrastructure, NEVPT2 and variants, FIC-MRCI
   Bernardo de Souza      : ESD, SOC TD-DFT
   Georgi Stoychev        : AutoAux, RI-MP2 NMR, DLPNO-MP2 response, X2C
   Van Anh Tran           : RI-MP2 g-tensors
   Willem Van den Heuvel  : Paramagnetic NMR
   Zikuan Wang            : NOTCH, Electric field optimization 
   Frank Wennmohs         : Technical directorship and infrastructure
   Hang Xu                : AUTO-CI-Response properties 


 We gratefully acknowledge several colleagues who have allowed us to
 interface, adapt or use parts of their codes:
   Stefan Grimme, W. Hujo, H. Kruse, P. Pracht,  : VdW corrections, initial TS optimization,
                  C. Bannwarth, S. Ehlert,         DFT functionals, gCP, sTDA/sTD-DF
                  L. Wittmann, M. Mueller
   Ed Valeev, F. Pavosevic, A. Kumar             : LibInt (2-el integral package), F12 methods
   Garnet Chan, S. Sharma, J. Yang, R. Olivares  : DMRG
   Ulf Ekstrom                                   : XCFun DFT Library
   Mihaly Kallay                                 : mrcc  (arbitrary order and MRCC methods)
   Frank Weinhold                                : gennbo (NPA and NBO analysis)
   Simon Mueller                                 : openCOSMO-RS
   Christopher J. Cramer and Donald G. Truhlar   : smd solvation model
   Lars Goerigk                                  : TD-DFT with DH, B97 family of functionals
   V. Asgeirsson, H. Jonsson                     : NEB implementation
   FAccTs GmbH                                   : IRC, NEB, NEB-TS, DLPNO-Multilevel, CI-OPT
                                                   MM, QMMM, 2- and 3-layer-ONIOM, Crystal-QMMM,
                                                   LR-CPCM, SF, NACMEs, symmetry and pop. for TD-DFT,
                                                   nearIR, NL-DFT gradient (VV10), updates on ESD,
                                                   ML-optimized integration grids, MBIS, APM,
                                                   GOAT, DOCKER, SOLVATOR, interface openCOSMO-RS
   S Lehtola, MJT Oliveira, MAL Marques          : LibXC Library
   Liviu Ungur et al                             : ANISO software


 Your calculation uses the libint2 library for the computation of 2-el integrals
 For citations please refer to: http://libint.valeyev.net

 Your ORCA version has been built with support for libXC version: 6.2.2
 For citations please refer to: https://libxc.gitlab.io

 This ORCA versions uses:
   CBLAS   interface :  Fast vector & matrix operations
   LAPACKE interface :  Fast linear algebra routines
   SCALAPACK package :  Parallel linear algebra routines
   Shared memory     :  Shared parallel matrices
   BLAS/LAPACK       :  OpenBLAS 0.3.27  USE64BITINT DYNAMIC_ARCH NO_AFFINITY SkylakeX SINGLE_THREADED
        Core in use  :  SkylakeX
   Copyright (c) 2011-2014, The OpenBLAS Project


Warning: RI is on but no J-basis has been assigned. Assigning Def2/J (nothing to worry about!)
================================================================================

----- Orbital basis set information -----
Your calculation utilizes the basis: 6-31G*
   H-He, Li-Ne : W. J. Hehre, R. Ditchfield and J.A. Pople, J. Chem. Phys. 56, 2257 (1972).
                 Note: He and Ne are unpublished basis sets taken from the Gaussian program.
                 Note: Li and B from J. D. Dill and J. A. Pople, J. Chem. Phys. 62, 2921 (1975).
   Na - Ar     : M. M. Francl, W. J. Pietro, W. J. Hehre, J. S. Binkley, M. S. Gordon, 
                 D. J. DeFrees and J. A. Pople, J. Chem. Phys. 77, 3654 (1982).
   K - Zn      : V. A. Rassolov, J. A. Pople, M. A. Ratner, and T. L. Windus, J. Chem. Phys. 109, 1223 (1998).

----- AuxJ basis set information -----
Your calculation utilizes the auxiliary basis: def2/J
   F. Weigend, Phys. Chem. Chem. Phys. 8, 1057 (2006).

================================================================================
                                        WARNINGS
                       Please study these warnings very carefully!
================================================================================


================================================================================
                                       INPUT FILE
================================================================================
NAME = /home/nmrbox/aojoawo/Documents/ERDOS/inputs/CHEMBL3682585.inp
|  1> ! B3LYP 6-31G* SP
|  2> 
|  3> * xyz 0 1
|  4> C -5.0915 2.6949 -1.0863
|  5> C -4.0722 1.9834 -0.2000
|  6> C -3.6463 0.6444 -0.8135
|  7> C -2.6346 -0.0468 0.0664
|  8> N -1.3262 0.1500 -0.2259
|  9> C -0.3091 -0.3840 0.4933
| 10> N 1.0362 -0.0507 0.1227
| 11> C 1.5313 -0.4009 -1.2094
| 12> C 2.0219 -1.8215 -1.2177
| 13> C 3.3961 -2.0984 -1.2165
| 14> C 3.8514 -3.4199 -1.1889
| 15> C 2.9336 -4.4874 -1.1419
| 16> O 3.3353 -5.8326 -1.0817
| 17> C 4.6841 -6.2933 -1.1551
| 18> F 5.2483 -5.9167 -2.3630
| 19> F 4.6915 -7.6741 -1.0681
| 20> F 5.4254 -5.7797 -0.1034
| 21> C 1.5614 -4.2060 -1.1449
| 22> C 1.1064 -2.8859 -1.1891
| 23> S 1.9130 1.0984 1.0882
| 24> O 3.3427 0.6467 1.2094
| 25> O 1.3179 1.1838 2.4673
| 26> C 1.8163 2.6846 0.3314
| 27> C 2.9770 3.4055 0.0209
| 28> C 2.8832 4.6695 -0.5699
| 29> C 1.6248 5.2315 -0.8594
| 30> C 1.5176 6.5758 -1.4669
| 31> O 2.5507 7.2680 -1.6720
| 32> O 0.2718 7.0929 -1.8116
| 33> C 0.4656 4.4985 -0.5534
| 34> C 0.5627 3.2373 0.0418
| 35> C -0.5874 -1.2221 1.5920
| 36> C 0.5380 -1.9105 2.3352
| 37> C -1.9421 -1.4127 1.9707
| 38> C -2.2886 -2.1758 3.1084
| 39> C -3.6237 -2.3429 3.4773
| 40> C -4.6370 -1.7534 2.7272
| 41> C -4.3252 -0.9963 1.5997
| 42> C -2.9817 -0.8137 1.2032
| 43> H -5.9983 2.0646 -1.2121
| 44> H -5.3886 3.6561 -0.6128
| 45> H -4.6509 2.9094 -2.0849
| 46> H -4.5221 1.8183 0.8038
| 47> H -3.1820 2.6391 -0.0788
| 48> H -3.1875 0.8360 -1.8093
| 49> H -4.5249 -0.0096 -1.0005
| 50> H 2.3505 0.2902 -1.5070
| 51> H 0.7242 -0.2746 -1.9632
| 52> H 4.1176 -1.2920 -1.2355
| 53> H 4.9170 -3.5963 -1.1948
| 54> H 0.8440 -5.0158 -1.1085
| 55> H 0.0407 -2.6928 -1.1856
| 56> H 3.9551 2.9971 0.2381
| 57> H 3.7951 5.2067 -0.7981
| 58> H 0.1839 8.0169 -2.2165
| 59> H -0.5175 4.9017 -0.7644
| 60> H -0.3425 2.6957 0.2837
| 61> H 1.5248 -1.7750 1.8478
| 62> H 0.6045 -1.5121 3.3697
| 63> H 0.3485 -3.0033 2.3713
| 64> H -1.5371 -2.6410 3.7313
| 65> H -3.8734 -2.9288 4.3528
| 66> H -5.6716 -1.8784 3.0228
| 67> H -5.1484 -0.5520 1.0587
| 68> *
| 69> 
| 70>                          ****END OF INPUT****
================================================================================

                       ****************************
                       * Single Point Calculation *
                       ****************************

---------------------------------
CARTESIAN COORDINATES (ANGSTROEM)
---------------------------------
  C     -5.091500    2.694900   -1.086300
  C     -4.072200    1.983400   -0.200000
  C     -3.646300    0.644400   -0.813500
  C     -2.634600   -0.046800    0.066400
  N     -1.326200    0.150000   -0.225900
  C     -0.309100   -0.384000    0.493300
  N      1.036200   -0.050700    0.122700
  C      1.531300   -0.400900   -1.209400
  C      2.021900   -1.821500   -1.217700
  C      3.396100   -2.098400   -1.216500
  C      3.851400   -3.419900   -1.188900
  C      2.933600   -4.487400   -1.141900
  O      3.335300   -5.832600   -1.081700
  C      4.684100   -6.293300   -1.155100
  F      5.248300   -5.916700   -2.363000
  F      4.691500   -7.674100   -1.068100
  F      5.425400   -5.779700   -0.103400
  C      1.561400   -4.206000   -1.144900
  C      1.106400   -2.885900   -1.189100
  S      1.913000    1.098400    1.088200
  O      3.342700    0.646700    1.209400
  O      1.317900    1.183800    2.467300
  C      1.816300    2.684600    0.331400
  C      2.977000    3.405500    0.020900
  C      2.883200    4.669500   -0.569900
  C      1.624800    5.231500   -0.859400
  C      1.517600    6.575800   -1.466900
  O      2.550700    7.268000   -1.672000
  O      0.271800    7.092900   -1.811600
  C      0.465600    4.498500   -0.553400
  C      0.562700    3.237300    0.041800
  C     -0.587400   -1.222100    1.592000
  C      0.538000   -1.910500    2.335200
  C     -1.942100   -1.412700    1.970700
  C     -2.288600   -2.175800    3.108400
  C     -3.623700   -2.342900    3.477300
  C     -4.637000   -1.753400    2.727200
  C     -4.325200   -0.996300    1.599700
  C     -2.981700   -0.813700    1.203200
  H     -5.998300    2.064600   -1.212100
  H     -5.388600    3.656100   -0.612800
  H     -4.650900    2.909400   -2.084900
  H     -4.522100    1.818300    0.803800
  H     -3.182000    2.639100   -0.078800
  H     -3.187500    0.836000   -1.809300
  H     -4.524900   -0.009600   -1.000500
  H      2.350500    0.290200   -1.507000
  H      0.724200   -0.274600   -1.963200
  H      4.117600   -1.292000   -1.235500
  H      4.917000   -3.596300   -1.194800
  H      0.844000   -5.015800   -1.108500
  H      0.040700   -2.692800   -1.185600
  H      3.955100    2.997100    0.238100
  H      3.795100    5.206700   -0.798100
  H      0.183900    8.016900   -2.216500
  H     -0.517500    4.901700   -0.764400
  H     -0.342500    2.695700    0.283700
  H      1.524800   -1.775000    1.847800
  H      0.604500   -1.512100    3.369700
  H      0.348500   -3.003300    2.371300
  H     -1.537100   -2.641000    3.731300
  H     -3.873400   -2.928800    4.352800
  H     -5.671600   -1.878400    3.022800
  H     -5.148400   -0.552000    1.058700

----------------------------
CARTESIAN COORDINATES (A.U.)
----------------------------
  NO LB      ZA    FRAG     MASS         X           Y           Z
   0 C     6.0000    0    12.011   -9.621541    5.092623   -2.052809
   1 C     6.0000    0    12.011   -7.695343    3.748083   -0.377945
   2 C     6.0000    0    12.011   -6.890508    1.217740   -1.537292
   3 C     6.0000    0    12.011   -4.978672   -0.088439    0.125478
   4 N     7.0000    0    14.007   -2.506155    0.283459   -0.426889
   5 C     6.0000    0    12.011   -0.584114   -0.725655    0.932202
   6 N     7.0000    0    14.007    1.958134   -0.095809    0.231869
   7 C     6.0000    0    12.011    2.893738   -0.757591   -2.285435
   8 C     6.0000    0    12.011    3.820837   -3.442136   -2.301120
   9 C     6.0000    0    12.011    6.417699   -3.965401   -2.298852
  10 C     6.0000    0    12.011    7.278091   -6.462674   -2.246695
  11 C     6.0000    0    12.011    5.543701   -8.479957   -2.157878
  12 O     8.0000    0    15.999    6.302804  -11.022017   -2.044117
  13 C     6.0000    0    12.011    8.851666  -11.892613   -2.182823
  14 F     9.0000    0    18.998    9.917850  -11.180943   -4.465423
  15 F     9.0000    0    18.998    8.865650  -14.501947   -2.018416
  16 F     9.0000    0    18.998   10.252520  -10.922050   -0.195398
  17 C     6.0000    0    12.011    2.950618   -7.948188   -2.163547
  18 C     6.0000    0    12.011    2.090793   -5.453561   -2.247073
  19 S    16.0000    0    32.060    3.615046    2.075675    2.056400
  20 O     8.0000    0    15.999    6.316788    1.222086    2.285435
  21 O     8.0000    0    15.999    2.490470    2.237058    4.662521
  22 C     6.0000    0    12.011    3.432310    5.073159    0.626255
  23 C     6.0000    0    12.011    5.625715    6.435462    0.039495
  24 C     6.0000    0    12.011    5.448458    8.824076   -1.076955
  25 C     6.0000    0    12.011    3.070427    9.886102   -1.624031
  26 C     6.0000    0    12.011    2.867848   12.426461   -2.772039
  27 O     8.0000    0    15.999    4.820124   13.734530   -3.159622
  28 O     8.0000    0    15.999    0.513628   13.403638   -3.423428
  29 C     6.0000    0    12.011    0.879856    8.500933   -1.045774
  30 C     6.0000    0    12.011    1.063349    6.117610    0.078991
  31 C     6.0000    0    12.011   -1.110025   -2.309434    3.008444
  32 C     6.0000    0    12.011    1.016673   -3.610322    4.412888
  33 C     6.0000    0    12.011   -3.670037   -2.669616    3.724083
  34 C     6.0000    0    12.011   -4.324827   -4.111666    5.874025
  35 C     6.0000    0    12.011   -6.847801   -4.427439    6.571145
  36 C     6.0000    0    12.011   -8.762660   -3.313446    5.153661
  37 C     6.0000    0    12.011   -8.173443   -1.882734    3.022995
  38 C     6.0000    0    12.011   -5.634596   -1.537670    2.273718
  39 H     1.0000    0     1.008  -11.335144    3.901529   -2.290537
  40 H     1.0000    0     1.008  -10.182978    6.909028   -1.158024
  41 H     1.0000    0     1.008   -8.788927    5.497969   -3.939890
  42 H     1.0000    0     1.008   -8.545531    3.436089    1.518962
  43 H     1.0000    0     1.008   -6.013109    4.987176   -0.148910
  44 H     1.0000    0     1.008   -6.023502    1.579811   -3.419081
  45 H     1.0000    0     1.008   -8.550822   -0.018141   -1.890671
  46 H     1.0000    0     1.008    4.441801    0.548399   -2.847817
  47 H     1.0000    0     1.008    1.368540   -0.518919   -3.709910
  48 H     1.0000    0     1.008    7.781136   -2.441526   -2.334757
  49 H     1.0000    0     1.008    9.291783   -6.796022   -2.257845
  50 H     1.0000    0     1.008    1.594929   -9.478488   -2.094761
  51 H     1.0000    0     1.008    0.076912   -5.088655   -2.240459
  52 H     1.0000    0     1.008    7.474056    5.663698    0.449944
  53 H     1.0000    0     1.008    7.171700    9.839237   -1.508190
  54 H     1.0000    0     1.008    0.347521   15.149745   -4.188578
  55 H     1.0000    0     1.008   -0.977933    9.262871   -1.444507
  56 H     1.0000    0     1.008   -0.647231    5.094135    0.536115
  57 H     1.0000    0     1.008    2.881454   -3.354264    3.491836
  58 H     1.0000    0     1.008    1.142339   -2.857455    6.367810
  59 H     1.0000    0     1.008    0.658570   -5.675414    4.481108
  60 H     1.0000    0     1.008   -2.904698   -4.990767    7.051135
  61 H     1.0000    0     1.008   -7.319665   -5.534630    8.225600
  62 H     1.0000    0     1.008  -10.717771   -3.549662    5.712264
  63 H     1.0000    0     1.008   -9.729066   -1.043129    2.000653

--------------------------------
INTERNAL COORDINATES (ANGSTROEM)
--------------------------------
 C      0   0   0     0.000000000000     0.00000000     0.00000000
 C      1   0   0     1.526673648820     0.00000000     0.00000000
 C      2   1   0     1.533197332374   111.11132662     0.00000000
 C      3   2   1     1.508482131150   110.67522154   179.72454227
 N      4   3   2     1.355020328261   117.07924036   265.38825735
 C      5   4   3     1.355321751467   123.56865625   178.59777677
 N      6   5   4     1.434665584727   118.36541138   182.94311416
 C      7   6   5     1.463644239561   119.78260742   299.04843821
 C      8   7   6     1.502950967264   109.97438125   275.75167294
 C      9   8   7     1.401820491361   120.44385586   255.34493364
 C     10   9   8     1.398006473519   120.39755864   178.32138793
 C     11  10   9     1.408588687304   120.32022796   359.05317722
 O     12  11  10     1.405186809645   122.72876677   181.49791321
 C     13  12  11     1.427197775363   125.23863368   355.34111650
 F     14  13  12     1.385341694312   109.99771246   299.54707280
 F     14  13  12     1.383557877358   108.90365196   180.27102457
 F     14  13  12     1.385418182355   110.30219858    61.15084147
 C     12  11  10     1.400759722436   119.07621065     1.01175609
 C     18  12  11     1.397012043613   120.59413882   359.77754648
 S      7   6   5     1.738217276407   118.88817120   103.76442308
 O     20   7   6     1.504248789263   109.00612723   140.99846103
 O     20   7   6     1.504444741425   110.31438625    21.82556783
 C     20   7   6     1.760149871460   109.22083116   262.36331254
 C     23  20   7     1.401189334102   120.89160311   234.90596713
 C     24  23  20     1.398405906738   120.20521858   180.54525131
 C     25  24  23     1.408270148089   120.49764734     0.00000000
 C     26  25  24     1.479084372171   120.79066416   179.14185784
 O     27  26  25     1.260358068170   120.43701092   356.35117384
 O     27  26  25     1.392202621747   120.27347299   176.70683296
 C     26  25  24     1.405229390527   118.96008088   359.58365408
 C     30  26  25     1.397968844431   120.39817049     0.65783844
 C      6   5   4     1.409611361333   119.98036824     1.66541569
 C     32   6   5     1.514188218155   120.40672380   175.19144244
 C     32   6   5     1.419490803070   118.43716946   355.84388096
 C     34  32   6     1.413062330543   121.42145998   183.74481936
 C     35  34  32     1.395170824666   120.81184131   179.29976581
 C     36  35  34     1.391738894333   120.23137677   359.81231722
 C     37  36  35     1.393440310885   120.22024331     0.23720371
 C     38  37  36     1.412638403839   120.67417109   359.88005034
 H      1   2   3     1.111480980494   110.25086812    59.92638222
 H      1   2   3     1.111924502833   109.51476471   179.47088413
 H      1   2   3     1.112358112300   110.27854391   299.10772176
 H      2   1   3     1.112331991808   108.84606364   238.58529346
 H      2   1   3     1.112244563934   108.83748789   120.82556430
 H      3   2   1     1.113025444453   108.79402006    60.08412340
 H      3   2   1     1.111135887279   111.20629678   303.62573893
 H      8   7   6     1.112328013672   110.11872522   154.11597160
 H      8   7   6     1.111564905887   110.14498251    37.04528592
 H     10   9   8     1.082221885752   120.42085480   358.40876237
 H     11  10   9     1.080118109282   118.39651149   179.63930851
 H     18  12  11     1.082480373956   119.92506384   180.03801506
 H     19  18  12     1.083058793418   119.26491426   180.29900384
 H     24  23  20     1.081963959659   120.67463727     0.22922661
 H     25  24  23     1.082691410329   118.75293138   179.88210644
 H     29  27  26     1.012643283689   121.03661870   179.15979449
 H     30  26  25     1.083317520397   120.80044438   180.06994732
 H     31  30  26     1.082235284030   119.24564024   179.04458503
 H     33  32   6     1.108915348437   112.96114329   353.09978899
 H     33  32   6     1.110556193986   109.79283959   113.96021776
 H     33  32   6     1.109696039463   109.67944352   234.27805569
 H     35  34  32     1.081280583383   121.71744220     0.03890802
 H     36  35  34     1.082649135223   119.95665010   180.12272214
 H     37  36  35     1.083236594655   119.96278722   180.56338446
 H     38  37  36     1.080620992763   117.25965180   180.61909440

---------------------------
INTERNAL COORDINATES (A.U.)
---------------------------
 C      0   0   0     0.000000000000     0.00000000     0.00000000
 C      1   0   0     2.884995092143     0.00000000     0.00000000
 C      2   1   0     2.897323067446   111.11132662     0.00000000
 C      3   2   1     2.850618105788   110.67522154   179.72454227
 N      4   3   2     2.560617326309   117.07924036   265.38825735
 C      5   4   3     2.561186933619   123.56865625   178.59777677
 N      6   5   4     2.711125048896   118.36541138   182.94311416
 C      7   6   5     2.765886770262   119.78260742   299.04843821
 C      8   7   6     2.840165720841   109.97438125   275.75167294
 C      9   8   7     2.649056817591   120.44385586   255.34493364
 C     10   9   8     2.641849368399   120.39755864   178.32138793
 C     11  10   9     2.661846854344   120.32022796   359.05317722
 O     12  11  10     2.655418237227   122.72876677   181.49791321
 C     13  12  11     2.697012934377   125.23863368   355.34111650
 F     14  13  12     2.617916404153   109.99771246   299.54707280
 F     14  13  12     2.614545478636   108.90365196   180.27102457
 F     14  13  12     2.618060945606   110.30219858    61.15084147
 C     12  11  10     2.647052254832   119.07621065     1.01175609
 C     18  12  11     2.639970168218   120.59413882   359.77754648
 S      7   6   5     3.284754613660   118.88817120   103.76442308
 O     20   7   6     2.842618248990   109.00612723   140.99846103
 O     20   7   6     2.842988544910   110.31438625    21.82556783
 C     20   7   6     3.326201211716   109.22083116   262.36331254
 C     23  20   7     2.647864103223   120.89160311   234.90596713
 C     24  23  20     2.642604187793   120.20521858   180.54525131
 C     25  24  23     2.661244902466   120.49764734     0.00000000
 C     26  25  24     2.795064392366   120.79066416   179.14185784
 O     27  26  25     2.381731579518   120.43701092   356.35117384
 O     27  26  25     2.630881678030   120.27347299   176.70683296
 C     26  25  24     2.655498703433   118.96008088   359.58365408
 C     30  26  25     2.641778259729   120.39817049     0.65783844
 C      6   5   4     2.663779428184   119.98036824     1.66541569
 C     32   6   5     2.861401047524   120.40672380   175.19144244
 C     32   6   5     2.682448867422   118.43716946   355.84388096
 C     34  32   6     2.670300814887   121.42145998   183.74481936
 C     35  34  32     2.636490768656   120.81184131   179.29976581
 C     36  35  34     2.630005360216   120.23137677   359.81231722
 C     37  36  35     2.633220571539   120.22024331     0.23720371
 C     38  37  36     2.669499709515   120.67417109   359.88005034
 H      1   2   3     2.100394656196   110.25086812    59.92638222
 H      1   2   3     2.101232791951   109.51476471   179.47088413
 H      1   2   3     2.102052195093   110.27854391   299.10772176
 H      2   1   3     2.102002834517   108.84606364   238.58529346
 H      2   1   3     2.101837619777   108.83748789   120.82556430
 H      3   2   1     2.103313270102   108.79402006    60.08412340
 H      3   2   1     2.099742524530   111.20629678   303.62573893
 H      8   7   6     2.101995316929   110.11872522   154.11597160
 H      8   7   6     2.100553252205   110.14498251    37.04528592
 H     10   9   8     2.045102980207   120.42085480   358.40876237
 H     11  10   9     2.041127418833   118.39651149   179.63930851
 H     18  12  11     2.045591452122   119.92506384   180.03801506
 H     19  18  12     2.046684506495   119.26491426   180.29900384
 H     24  23  20     2.044615570528   120.67463727     0.22922661
 H     25  24  23     2.045990253071   118.75293138   179.88210644
 H     29  27  26     1.913618477527   121.03661870   179.15979449
 H     30  26  25     2.047173429630   120.80044438   180.06994732
 H     31  30  26     2.045128299284   119.24564024   179.04458503
 H     33  32   6     2.095546314249   112.96114329   353.09978899
 H     33  32   6     2.098647062963   109.79283959   113.96021776
 H     33  32   6     2.097021606482   109.67944352   234.27805569
 H     35  34  32     2.043324176520   121.71744220     0.03890802
 H     36  35  34     2.045910364699   119.95665010   180.12272214
 H     37  36  35     2.047020502140   119.96278722   180.56338446
 H     38  37  36     2.042077730888   117.25965180   180.61909440

---------------------
BASIS SET INFORMATION
---------------------
There are 6 groups of distinct atoms

 Group   1 Type C   : 10s4p1d contracted to 3s2p1d pattern {631/31/1}
 Group   2 Type N   : 10s4p1d contracted to 3s2p1d pattern {631/31/1}
 Group   3 Type O   : 10s4p1d contracted to 3s2p1d pattern {631/31/1}
 Group   4 Type F   : 10s4p1d contracted to 3s2p1d pattern {631/31/1}
 Group   5 Type S   : 16s10p1d contracted to 4s3p1d pattern {6631/631/1}
 Group   6 Type H   : 4s contracted to 2s pattern {31}

Atom   0C    basis set group =>   1
Atom   1C    basis set group =>   1
Atom   2C    basis set group =>   1
Atom   3C    basis set group =>   1
Atom   4N    basis set group =>   2
Atom   5C    basis set group =>   1
Atom   6N    basis set group =>   2
Atom   7C    basis set group =>   1
Atom   8C    basis set group =>   1
Atom   9C    basis set group =>   1
Atom  10C    basis set group =>   1
Atom  11C    basis set group =>   1
Atom  12O    basis set group =>   3
Atom  13C    basis set group =>   1
Atom  14F    basis set group =>   4
Atom  15F    basis set group =>   4
Atom  16F    basis set group =>   4
Atom  17C    basis set group =>   1
Atom  18C    basis set group =>   1
Atom  19S    basis set group =>   5
Atom  20O    basis set group =>   3
Atom  21O    basis set group =>   3
Atom  22C    basis set group =>   1
Atom  23C    basis set group =>   1
Atom  24C    basis set group =>   1
Atom  25C    basis set group =>   1
Atom  26C    basis set group =>   1
Atom  27O    basis set group =>   3
Atom  28O    basis set group =>   3
Atom  29C    basis set group =>   1
Atom  30C    basis set group =>   1
Atom  31C    basis set group =>   1
Atom  32C    basis set group =>   1
Atom  33C    basis set group =>   1
Atom  34C    basis set group =>   1
Atom  35C    basis set group =>   1
Atom  36C    basis set group =>   1
Atom  37C    basis set group =>   1
Atom  38C    basis set group =>   1
Atom  39H    basis set group =>   6
Atom  40H    basis set group =>   6
Atom  41H    basis set group =>   6
Atom  42H    basis set group =>   6
Atom  43H    basis set group =>   6
Atom  44H    basis set group =>   6
Atom  45H    basis set group =>   6
Atom  46H    basis set group =>   6
Atom  47H    basis set group =>   6
Atom  48H    basis set group =>   6
Atom  49H    basis set group =>   6
Atom  50H    basis set group =>   6
Atom  51H    basis set group =>   6
Atom  52H    basis set group =>   6
Atom  53H    basis set group =>   6
Atom  54H    basis set group =>   6
Atom  55H    basis set group =>   6
Atom  56H    basis set group =>   6
Atom  57H    basis set group =>   6
Atom  58H    basis set group =>   6
Atom  59H    basis set group =>   6
Atom  60H    basis set group =>   6
Atom  61H    basis set group =>   6
Atom  62H    basis set group =>   6
Atom  63H    basis set group =>   6
---------------------------------
AUXILIARY/J BASIS SET INFORMATION
---------------------------------
There are 6 groups of distinct atoms

 Group   1 Type C   : 12s5p4d2f1g contracted to 6s4p3d1f1g pattern {711111/2111/211/2/1}
 Group   2 Type N   : 12s5p4d2f1g contracted to 6s4p3d1f1g pattern {711111/2111/211/2/1}
 Group   3 Type O   : 12s5p4d2f1g contracted to 6s4p3d1f1g pattern {711111/2111/211/2/1}
 Group   4 Type F   : 12s5p4d2f1g contracted to 6s4p3d1f1g pattern {711111/2111/211/2/1}
 Group   5 Type S   : 14s5p5d2f1g contracted to 8s4p3d1f1g pattern {71111111/2111/311/2/1}
 Group   6 Type H   : 5s2p1d contracted to 3s1p1d pattern {311/2/1}

Atom   0C    basis set group =>   1
Atom   1C    basis set group =>   1
Atom   2C    basis set group =>   1
Atom   3C    basis set group =>   1
Atom   4N    basis set group =>   2
Atom   5C    basis set group =>   1
Atom   6N    basis set group =>   2
Atom   7C    basis set group =>   1
Atom   8C    basis set group =>   1
Atom   9C    basis set group =>   1
Atom  10C    basis set group =>   1
Atom  11C    basis set group =>   1
Atom  12O    basis set group =>   3
Atom  13C    basis set group =>   1
Atom  14F    basis set group =>   4
Atom  15F    basis set group =>   4
Atom  16F    basis set group =>   4
Atom  17C    basis set group =>   1
Atom  18C    basis set group =>   1
Atom  19S    basis set group =>   5
Atom  20O    basis set group =>   3
Atom  21O    basis set group =>   3
Atom  22C    basis set group =>   1
Atom  23C    basis set group =>   1
Atom  24C    basis set group =>   1
Atom  25C    basis set group =>   1
Atom  26C    basis set group =>   1
Atom  27O    basis set group =>   3
Atom  28O    basis set group =>   3
Atom  29C    basis set group =>   1
Atom  30C    basis set group =>   1
Atom  31C    basis set group =>   1
Atom  32C    basis set group =>   1
Atom  33C    basis set group =>   1
Atom  34C    basis set group =>   1
Atom  35C    basis set group =>   1
Atom  36C    basis set group =>   1
Atom  37C    basis set group =>   1
Atom  38C    basis set group =>   1
Atom  39H    basis set group =>   6
Atom  40H    basis set group =>   6
Atom  41H    basis set group =>   6
Atom  42H    basis set group =>   6
Atom  43H    basis set group =>   6
Atom  44H    basis set group =>   6
Atom  45H    basis set group =>   6
Atom  46H    basis set group =>   6
Atom  47H    basis set group =>   6
Atom  48H    basis set group =>   6
Atom  49H    basis set group =>   6
Atom  50H    basis set group =>   6
Atom  51H    basis set group =>   6
Atom  52H    basis set group =>   6
Atom  53H    basis set group =>   6
Atom  54H    basis set group =>   6
Atom  55H    basis set group =>   6
Atom  56H    basis set group =>   6
Atom  57H    basis set group =>   6
Atom  58H    basis set group =>   6
Atom  59H    basis set group =>   6
Atom  60H    basis set group =>   6
Atom  61H    basis set group =>   6
Atom  62H    basis set group =>   6
Atom  63H    basis set group =>   6
------------------------------------------------------------------------------
                             ORCA STARTUP CALCULATIONS
                           -- RI-GTO INTEGRALS CHOSEN --
------------------------------------------------------------------------------
------------------------------------------------------------------------------
                   ___                                                        
                  /   \      - P O W E R E D   B Y -                         
                 /     \                                                     
                 |  |  |   _    _      __       _____    __    __             
                 |  |  |  | |  | |    /  \     |  _  \  |  |  /  |          
                  \  \/   | |  | |   /    \    | | | |  |  | /  /          
                 / \  \   | |__| |  /  /\  \   | |_| |  |  |/  /          
                |  |  |   |  __  | /  /__\  \  |    /   |      \           
                |  |  |   | |  | | |   __   |  |    \   |  |\   \          
                \     /   | |  | | |  |  |  |  | |\  \  |  | \   \       
                 \___/    |_|  |_| |__|  |__|  |_| \__\ |__|  \__/        
                                                                              
                      - O R C A' S   B I G   F R I E N D -                    
                                      &                                       
                       - I N T E G R A L  F E E D E R -                       
                                                                              
 v1 FN, 2020, v2 2021, v3 2022-2024                                           
------------------------------------------------------------------------------


----------------------
SHARK INTEGRAL PACKAGE
----------------------

Number of atoms                             ...     64
Number of basis functions                   ...    600
Number of shells                            ...    286
Maximum angular momentum                    ...      2
Integral batch strategy                     ... SHARK/LIBINT Hybrid
RI-J (if used) integral strategy            ... SPLIT-RIJ (Revised 2003 algorithm where possible)
Printlevel                                  ...      1
Contraction scheme used                     ... SEGMENTED contraction
Prescreening option                         ... SCHWARTZ
   Thresh                                   ... 1.000e-10
   Tcut                                     ... 1.000e-11
   Tpresel                                  ... 1.000e-11 
Coulomb Range Separation                    ... NOT USED
Exchange Range Separation                   ... NOT USED
Multipole approximations                    ... NOT USED
Finite Nucleus Model                        ... NOT USED
CABS basis                                  ... NOT available
Auxiliary Coulomb fitting basis             ... AVAILABLE
   # of basis functions in Aux-J            ...   2188
   # of shells in Aux-J                     ...    712
   Maximum angular momentum in Aux-J        ...      4
Auxiliary J/K fitting basis                 ... NOT available
Auxiliary Correlation fitting basis         ... NOT available
Auxiliary 'external' fitting basis          ... NOT available

Checking pre-screening integrals            ... done (  0.0 sec) Dimension = 286
Check shell pair data                       ... done (  0.0 sec)
Shell pair information
Shell pair cut-off parameter TPreSel        ...   1.0e-11
Total number of shell pairs                 ...     41041
Shell pairs after pre-screening             ...     20697
Total number of primitive shell pairs       ...    244177
Primitive shell pairs kept                  ...     61622
          la=0 lb=0:   6765 shell pairs
          la=1 lb=0:   7365 shell pairs
          la=1 lb=1:   2001 shell pairs
          la=2 lb=0:   2721 shell pairs
          la=2 lb=1:   1566 shell pairs
          la=2 lb=2:    279 shell pairs

Calculating one electron integrals          ... done (  0.3 sec)
Calculating RI/J V-Matrix + Cholesky decomp.... done (  0.6 sec)
Calculating Nuclear repulsion               ... done (  0.0 sec) ENN=   4565.205442718744 Eh

Diagonalization of the overlap matrix:
Smallest eigenvalue                        ... 3.335e-04
Time for diagonalization                   ...    0.066 sec
Threshold for overlap eigenvalues          ... 1.000e-07
Number of eigenvalues below threshold      ... 0
Time for construction of square roots      ...    0.045 sec
Total time needed                          ...    0.121 sec

-------------------
DFT GRID GENERATION
-------------------

General Integration Accuracy     IntAcc      ... 4.388
Radial Grid Type                 RadialGrid  ... OptM3 with GC (2021)
Angular Grid (max. ang.)         AngularGrid ... 4 (Lebedev-302)
Angular grid pruning method      GridPruning ... 4 (adaptive)
Weight generation scheme         WeightScheme... mBecke (2022)
Basis function cutoff            BFCut       ... 1.0000e-10
Integration weight cutoff        WCut        ... 1.0000e-14
Partially contracted basis set               ... off
Rotationally invariant grid construction     ... off
Angular grids for H and He will be reduced by one unit

Total number of grid points                  ...   313332
Total number of batches                      ...     4927
Average number of points per batch           ...       63
Average number of grid points per atom       ...     4896

--------------------
COSX GRID GENERATION
--------------------

GRIDX 1
-------
General Integration Accuracy     IntAcc      ... 3.816
Radial Grid Type                 RadialGrid  ... OptM3 with GC (2021)
Angular Grid (max. ang.)         AngularGrid ... 1 (Lebedev-50)
Angular grid pruning method      GridPruning ... 4 (adaptive)
Weight generation scheme         WeightScheme... mBecke (2022)
Basis function cutoff            BFCut       ... 1.0000e-10
Integration weight cutoff        WCut        ... 1.0000e-14
Partially contracted basis set               ... on
Rotationally invariant grid construction     ... off
Angular grids for H and He will be reduced by one unit

Total number of grid points                  ...    40699
Total number of batches                      ...      354
Average number of points per batch           ...      114
Average number of grid points per atom       ...      636
UseSFitting                                  ... on

GRIDX 2
-------
General Integration Accuracy     IntAcc      ... 4.020
Radial Grid Type                 RadialGrid  ... OptM3 with GC (2021)
Angular Grid (max. ang.)         AngularGrid ... 2 (Lebedev-110)
Angular grid pruning method      GridPruning ... 4 (adaptive)
Weight generation scheme         WeightScheme... mBecke (2022)
Basis function cutoff            BFCut       ... 1.0000e-10
Integration weight cutoff        WCut        ... 1.0000e-14
Partially contracted basis set               ... on
Rotationally invariant grid construction     ... off
Angular grids for H and He will be reduced by one unit

Total number of grid points                  ...    86483
Total number of batches                      ...      710
Average number of points per batch           ...      121
Average number of grid points per atom       ...     1351
UseSFitting                                  ... on

GRIDX 3
-------
General Integration Accuracy     IntAcc      ... 4.338
Radial Grid Type                 RadialGrid  ... OptM3 with GC (2021)
Angular Grid (max. ang.)         AngularGrid ... 3 (Lebedev-194)
Angular grid pruning method      GridPruning ... 4 (adaptive)
Weight generation scheme         WeightScheme... mBecke (2022)
Basis function cutoff            BFCut       ... 1.0000e-10
Integration weight cutoff        WCut        ... 1.0000e-14
Partially contracted basis set               ... on
Rotationally invariant grid construction     ... off
Angular grids for H and He will be reduced by one unit

Total number of grid points                  ...   189247
Total number of batches                      ...     1512
Average number of points per batch           ...      125
Average number of grid points per atom       ...     2957
UseSFitting                                  ... on
Initializing property integral containers    ... done (  0.0 sec)

SHARK setup successfully completed in  19.5 seconds

Maximum memory used throughout the entire STARTUP-calculation: 137.2 MB
-------------------------------------------------------------------------------
                                 ORCA GUESS
                   Start orbitals & Density for SCF / CASSCF
-------------------------------------------------------------------------------

------------
SCF SETTINGS
------------
Hamiltonian:
 Density Functional     Method          .... DFT(GTOs)
 Exchange Functional    Exchange        .... B88
   X-Alpha parameter    XAlpha          ....  0.666667
   Becke's b parameter  XBeta           ....  0.004200
 Correlation Functional Correlation     .... LYP
 LDA part of GGA corr.  LDAOpt          .... VWN-5
 Gradients option       PostSCFGGA      .... off
 Hybrid DFT is turned on
   Fraction HF Exchange ScalHFX         ....  0.200000
   Scaling of DF-GGA-X  ScalDFX         ....  0.720000
   Scaling of DF-GGA-C  ScalDFC         ....  0.810000
   Scaling of DF-LDA-C  ScalLDAC        ....  1.000000
   Perturbative correction              ....  0.000000
   NL short-range parameter             ....  4.800000
 RI-approximation to the Coulomb term is turned on
   Number of AuxJ basis functions       .... 2188
   RIJ-COSX (HFX calculated with COS-X)).... on


General Settings:
 Integral files         IntName         .... /home/nmrbox/aojoawo/Documents/ERDOS/inputs/CHEMBL3682585
 Hartree-Fock type      HFTyp           .... RHF
 Total Charge           Charge          ....    0
 Multiplicity           Mult            ....    1
 Number of Electrons    NEL             ....  290
 Basis Dimension        Dim             ....  600
 Nuclear Repulsion      ENuc            ....   4565.2054427187 Eh

Convergence Acceleration:
 AO-DIIS                CNVDIIS         .... on
   Start iteration      DIISMaxIt       ....    12
   Startup error        DIISStart       ....  0.200000
   # of expansion vecs  DIISMaxEq       ....     5
   Bias factor          DIISBfac        ....   1.050
   Max. coefficient     DIISMaxC        ....  10.000
 MO-DIIS                CNVKDIIS        .... off
 Trust-Rad. Augm. Hess. CNVTRAH         .... auto
   Auto Start mean grad. ratio tolernc. ....  1.125000
   Auto Start start iteration           ....    50
   Auto Start num. interpolation iter.  ....    10
   Max. Number of Micro iterations      ....    24
   Max. Number of Macro iterations      .... Maxiter - #DIIS iter
   Number of Davidson start vectors     ....     2
   Converg. threshold    (grad. norm)   ....   5.000e-05
   Grad. Scal. Fac. for Micro threshold ....   0.100
   Minimum threshold for Micro iter.    ....   1.000e-02
   NR start threshold (gradient norm)   ....   1.000e-04
   Initial trust radius                 ....   0.400
   Minimum AH scaling param. (alpha)    ....   1.000
   Maximum AH scaling param. (alpha)    .... 1000.000
   Quad. conv. algorithm                .... NR
   White noise on init. David. guess    .... on
   Maximum white noise                  ....   0.010
   Pseudo random numbers                .... off
   Inactive MOs                         .... canonical
   Orbital update algorithm             .... Taylor
   Preconditioner                       .... Diag
   Full preconditioner red. dimension   ....   250
 SOSCF                  CNVSOSCF        .... on
   Start iteration      SOSCFMaxIt      ....   150
   Startup grad/error   SOSCFStart      ....  0.003300
   Hessian update       SOSCFHessUp     .... L-BFGS
 Level Shifting         CNVShift        .... on
   Level shift para.    LevelShift      ....    0.2500
   Turn off err/grad.   ShiftErr        ....    0.0010
 Zerner damping         CNVZerner       .... off
 Static damping         CNVDamp         .... on
   Fraction old density DampFac         ....    0.7000
   Max. Damping (<1)    DampMax         ....    0.9800
   Min. Damping (>=0)   DampMin         ....    0.0000
   Turn off err/grad.   DampErr         ....    0.1000

SCF Procedure:
 Maximum # iterations   MaxIter         ....   125
 SCF integral mode      SCFMode         .... Direct
   Integral package                     .... SHARK and LIBINT hybrid scheme
 Reset frequency        DirectResetFreq ....    20
 Integral Threshold     Thresh          ....  1.000e-10 Eh
 Primitive CutOff       TCut            ....  1.000e-11 Eh

Convergence Tolerance:
 Convergence Check Mode ConvCheckMode   .... Total+1el-Energy
 Convergence forced     ConvForced      .... 0
 Energy Change          TolE            ....  1.000e-06 Eh
 1-El. energy change                    ....  1.000e-03 Eh
 Orbital Gradient       TolG            ....  5.000e-05
 Orbital Rotation angle TolX            ....  5.000e-05
 DIIS Error             TolErr          ....  1.000e-06

------------------------------
INITIAL GUESS: MODEL POTENTIAL
------------------------------
Loading Hartree-Fock densities                     ... done
Calculating cut-offs                               ... done
Initializing the effective Hamiltonian             ... done
Setting up the integral package (SHARK)            ... done
Starting the Coulomb interaction                   ... done (   5.8 sec)
Making the grid                                    ... done (   2.4 sec)
Mapping shells                                     ... done
Starting the XC term evaluation                    ... done (   1.5 sec)
  promolecular density results
     # of electrons  =    290.002868381
     EX              =   -260.695314589
     EC              =    -10.166129012
     EX+EC           =   -270.861443602
Transforming the Hamiltonian                       ... done (   0.0 sec)
Diagonalizing the Hamiltonian                      ... done (   0.1 sec)
Back transforming the eigenvectors                 ... done (   0.0 sec)
Now organizing SCF variables                       ... done
                      ------------------
                      INITIAL GUESS DONE (   9.9 sec)
                      ------------------
             **** ENERGY FILE WAS UPDATED (/home/nmrbox/aojoawo/Documents/ERDOS/inputs/CHEMBL3682585.en.tmp) ****
Finished Guess after  10.3 sec
Maximum memory used throughout the entire GUESS-calculation: 75.3 MB

-------------------------------------------------------------------------------------------
                                      ORCA LEAN-SCF
                              memory conserving SCF solver
-------------------------------------------------------------------------------------------

----------------------------------------D-I-I-S--------------------------------------------
Iteration    Energy (Eh)           Delta-E    RMSDP     MaxDP     DIISErr   Damp  Time(sec)
-------------------------------------------------------------------------------------------
               ***  Starting incremental Fock matrix formation  ***
    1    -2263.0416577189889722     0.00e+00  2.27e-03  1.89e-01  2.95e-01  0.700  99.5
    2    -2263.5885079727995617    -5.47e-01  1.38e-03  7.82e-02  9.78e-02  0.700  43.7
                               ***Turning on AO-DIIS***
    3    -2263.7769754529826969    -1.88e-01  5.55e-04  1.69e-02  3.97e-02  0.700  42.3
    4    -2263.9004729995485832    -1.23e-01  9.36e-04  3.33e-02  1.71e-02  0.000  38.4
    5    -2264.1779116923571564    -2.77e-01  2.18e-04  8.02e-03  7.53e-03  0.000  40.8
                              *** Initializing SOSCF ***
---------------------------------------S-O-S-C-F--------------------------------------
Iteration    Energy (Eh)           Delta-E    RMSDP     MaxDP     MaxGrad    Time(sec)
--------------------------------------------------------------------------------------
    6    -2264.1798425591659907    -1.93e-03  7.01e-05  3.29e-03  2.57e-03    34.9
               *** Restarting incremental Fock matrix formation ***
    7    -2264.1799686328440657    -1.26e-04  6.50e-05  3.72e-03  4.38e-04   100.3
    8    -2264.1798898889446718     7.87e-05  4.21e-05  2.52e-03  1.14e-03    55.6
    9    -2264.1799991583920928    -1.09e-04  1.37e-05  9.16e-04  1.73e-04    50.5
   10    -2264.1799957931971221     3.37e-06  8.67e-06  6.12e-04  3.06e-04    41.0
   11    -2264.1800006948160444    -4.90e-06  2.61e-06  1.18e-04  3.10e-05    37.1
   12    -2264.1800007502242806    -5.54e-08  1.63e-06  7.79e-05  4.71e-05    29.3
                 **** Energy Check signals convergence ****

               *****************************************************
               *                     SUCCESS                       *
               *           SCF CONVERGED AFTER  12 CYCLES          *
               *****************************************************

Recomputing exchange energy using gridx3       ... done (  176.148 sec)
Old exchange energy                            :    -52.708960230 Eh
New exchange energy                            :    -52.708956672 Eh
Exchange energy change after final integration :      0.000003558 Eh
Total energy after final integration           :  -2264.179997192 Eh
             **** ENERGY FILE WAS UPDATED (/home/nmrbox/aojoawo/Documents/ERDOS/inputs/CHEMBL3682585.en.tmp) ****

----------------
TOTAL SCF ENERGY
----------------

Total Energy       :      -2264.17999719227191 Eh          -61611.46999 eV

Components:
Nuclear Repulsion  :       4565.20544271874405 Eh          124225.55560 eV
Electronic Energy  :      -6829.38544346896833 Eh         -185837.02569 eV
One Electron Energy:     -12188.02010376012367 Eh         -331652.88793 eV
Two Electron Energy:       5358.63466029115534 Eh          145815.86224 eV

Virial components:
Potential Energy   :      -4515.32010533454559 Eh         -122868.10656 eV
Kinetic Energy     :       2251.14010814227368 Eh           61256.63657 eV
Virial Ratio       :          2.00579257106336

DFT components:
N(Alpha)           :      145.000009787071 electrons
N(Beta)            :      145.000009787071 electrons
N(Total)           :      290.000019574142 electrons
E(X)               :     -209.513671290795 Eh       
E(C)               :      -11.941841891438 Eh       
E(XC)              :     -221.455513182233 Eh       

---------------
SCF CONVERGENCE
---------------

  Last Energy change         ...    5.5408e-08  Tolerance :   1.0000e-06
  Last MAX-Density change    ...    7.7851e-05  Tolerance :   1.0000e-05
  Last RMS-Density change    ...    1.6280e-06  Tolerance :   1.0000e-06
  Last DIIS Error            ...    2.5714e-03  Tolerance :   1.0000e-06
  Last Orbital Gradient      ...    4.7061e-05  Tolerance :   5.0000e-05
  Last Orbital Rotation      ...    7.4556e-05  Tolerance :   5.0000e-05


----------------
ORBITAL ENERGIES
----------------

  NO   OCC          E(Eh)            E(eV) 
   0   2.0000     -89.097414     -2424.4639 
   1   2.0000     -24.738046      -673.1565 
   2   2.0000     -24.735576      -673.0892 
   3   2.0000     -24.735455      -673.0859 
   4   2.0000     -19.209522      -522.7177 
   5   2.0000     -19.195613      -522.3392 
   6   2.0000     -19.136684      -520.7356 
   7   2.0000     -19.127629      -520.4893 
   8   2.0000     -19.126923      -520.4700 
   9   2.0000     -14.371710      -391.0741 
  10   2.0000     -14.330519      -389.9532 
  11   2.0000     -10.500882      -285.7435 
  12   2.0000     -10.334220      -281.2084 
  13   2.0000     -10.265105      -279.3277 
  14   2.0000     -10.255867      -279.0763 
  15   2.0000     -10.240446      -278.6567 
  16   2.0000     -10.233546      -278.4690 
  17   2.0000     -10.231528      -278.4140 
  18   2.0000     -10.230033      -278.3733 
  19   2.0000     -10.217833      -278.0414 
  20   2.0000     -10.217479      -278.0317 
  21   2.0000     -10.215526      -277.9786 
  22   2.0000     -10.215444      -277.9764 
  23   2.0000     -10.205559      -277.7074 
  24   2.0000     -10.205013      -277.6925 
  25   2.0000     -10.202766      -277.6314 
  26   2.0000     -10.198074      -277.5037 
  27   2.0000     -10.196531      -277.4617 
  28   2.0000     -10.195660      -277.4380 
  29   2.0000     -10.194683      -277.4114 
  30   2.0000     -10.194261      -277.3999 
  31   2.0000     -10.193940      -277.3912 
  32   2.0000     -10.193063      -277.3673 
  33   2.0000     -10.191852      -277.3344 
  34   2.0000     -10.190845      -277.3070 
  35   2.0000     -10.189093      -277.2593 
  36   2.0000     -10.187641      -277.2198 
  37   2.0000     -10.177254      -276.9372 
  38   2.0000     -10.169273      -276.7200 
  39   2.0000      -8.133193      -221.3154 
  40   2.0000      -6.098228      -165.9412 
  41   2.0000      -6.096257      -165.8876 
  42   2.0000      -6.095784      -165.8747 
  43   2.0000      -1.299560       -35.3628 
  44   2.0000      -1.220850       -33.2210 
  45   2.0000      -1.220447       -33.2101 
  46   2.0000      -1.083770       -29.4909 
  47   2.0000      -1.080284       -29.3960 
  48   2.0000      -1.078749       -29.3542 
  49   2.0000      -0.994255       -27.0550 
  50   2.0000      -0.965144       -26.2629 
  51   2.0000      -0.962414       -26.1886 
  52   2.0000      -0.916676       -24.9440 
  53   2.0000      -0.888075       -24.1657 
  54   2.0000      -0.864655       -23.5284 
  55   2.0000      -0.859950       -23.4004 
  56   2.0000      -0.817330       -22.2407 
  57   2.0000      -0.805234       -21.9115 
  58   2.0000      -0.792409       -21.5625 
  59   2.0000      -0.782343       -21.2886 
  60   2.0000      -0.774293       -21.0696 
  61   2.0000      -0.768914       -20.9232 
  62   2.0000      -0.754959       -20.5435 
  63   2.0000      -0.743490       -20.2314 
  64   2.0000      -0.725580       -19.7440 
  65   2.0000      -0.713877       -19.4256 
  66   2.0000      -0.705095       -19.1866 
  67   2.0000      -0.679153       -18.4807 
  68   2.0000      -0.666994       -18.1498 
  69   2.0000      -0.649979       -17.6868 
  70   2.0000      -0.641293       -17.4505 
  71   2.0000      -0.633684       -17.2434 
  72   2.0000      -0.629668       -17.1341 
  73   2.0000      -0.621870       -16.9219 
  74   2.0000      -0.613895       -16.7049 
  75   2.0000      -0.598218       -16.2783 
  76   2.0000      -0.592210       -16.1149 
  77   2.0000      -0.592008       -16.1093 
  78   2.0000      -0.587940       -15.9987 
  79   2.0000      -0.575864       -15.6701 
  80   2.0000      -0.570066       -15.5123 
  81   2.0000      -0.556086       -15.1319 
  82   2.0000      -0.539247       -14.6737 
  83   2.0000      -0.535826       -14.5806 
  84   2.0000      -0.517028       -14.0690 
  85   2.0000      -0.496576       -13.5125 
  86   2.0000      -0.493921       -13.4403 
  87   2.0000      -0.492761       -13.4087 
  88   2.0000      -0.486844       -13.2477 
  89   2.0000      -0.480028       -13.0622 
  90   2.0000      -0.472545       -12.8586 
  91   2.0000      -0.469608       -12.7787 
  92   2.0000      -0.466835       -12.7032 
  93   2.0000      -0.465765       -12.6741 
  94   2.0000      -0.464922       -12.6512 
  95   2.0000      -0.459978       -12.5166 
  96   2.0000      -0.456709       -12.4277 
  97   2.0000      -0.449977       -12.2445 
  98   2.0000      -0.446131       -12.1399 
  99   2.0000      -0.443627       -12.0717 
 100   2.0000      -0.443077       -12.0568 
 101   2.0000      -0.441739       -12.0203 
 102   2.0000      -0.440937       -11.9985 
 103   2.0000      -0.433989       -11.8094 
 104   2.0000      -0.431791       -11.7496 
 105   2.0000      -0.431618       -11.7449 
 106   2.0000      -0.427488       -11.6325 
 107   2.0000      -0.423600       -11.5267 
 108   2.0000      -0.416332       -11.3290 
 109   2.0000      -0.414021       -11.2661 
 110   2.0000      -0.412977       -11.2377 
 111   2.0000      -0.405680       -11.0391 
 112   2.0000      -0.402814       -10.9611 
 113   2.0000      -0.399956       -10.8834 
 114   2.0000      -0.389721       -10.6048 
 115   2.0000      -0.388364       -10.5679 
 116   2.0000      -0.383895       -10.4463 
 117   2.0000      -0.382838       -10.4175 
 118   2.0000      -0.380609       -10.3569 
 119   2.0000      -0.375747       -10.2246 
 120   2.0000      -0.372892       -10.1469 
 121   2.0000      -0.368052       -10.0152 
 122   2.0000      -0.363753        -9.8982 
 123   2.0000      -0.362186        -9.8556 
 124   2.0000      -0.357557        -9.7296 
 125   2.0000      -0.347357        -9.4521 
 126   2.0000      -0.344794        -9.3823 
 127   2.0000      -0.343079        -9.3356 
 128   2.0000      -0.338686        -9.2161 
 129   2.0000      -0.336609        -9.1596 
 130   2.0000      -0.324745        -8.8368 
 131   2.0000      -0.320371        -8.7177 
 132   2.0000      -0.305346        -8.3089 
 133   2.0000      -0.300903        -8.1880 
 134   2.0000      -0.284817        -7.7503 
 135   2.0000      -0.281169        -7.6510 
 136   2.0000      -0.277558        -7.5527 
 137   2.0000      -0.277190        -7.5427 
 138   2.0000      -0.273297        -7.4368 
 139   2.0000      -0.265875        -7.2348 
 140   2.0000      -0.257945        -7.0190 
 141   2.0000      -0.257083        -6.9956 
 142   2.0000      -0.251865        -6.8536 
 143   2.0000      -0.235598        -6.4110 
 144   2.0000      -0.218865        -5.9556 
 145   0.0000      -0.081651        -2.2218 
 146   0.0000      -0.060095        -1.6353 
 147   0.0000      -0.034615        -0.9419 
 148   0.0000      -0.027953        -0.7607 
 149   0.0000      -0.010137        -0.2759 
 150   0.0000      -0.008187        -0.2228 
 151   0.0000       0.013877         0.3776 
 152   0.0000       0.022743         0.6189 
 153   0.0000       0.035970         0.9788 
 154   0.0000       0.042123         1.1462 
 155   0.0000       0.060689         1.6514 
*Only the first 10 virtual orbitals were printed.

                    ********************************
                    * MULLIKEN POPULATION ANALYSIS *
                    ********************************

-----------------------
MULLIKEN ATOMIC CHARGES
-----------------------
   0 C :   -0.432145
   1 C :   -0.250659
   2 C :   -0.316464
   3 C :    0.177494
   4 N :   -0.439848
   5 C :    0.291051
   6 N :   -0.606185
   7 C :   -0.256331
   8 C :    0.180801
   9 C :   -0.162548
  10 C :   -0.189451
  11 C :    0.353017
  12 O :   -0.546698
  13 C :    1.086183
  14 F :   -0.292032
  15 F :   -0.280524
  16 F :   -0.290155
  17 C :   -0.173358
  18 C :   -0.167731
  19 S :    1.215407
  20 O :   -0.549519
  21 O :   -0.540862
  22 C :   -0.126428
  23 C :   -0.151967
  24 C :   -0.139159
  25 C :    0.082647
  26 C :    0.526936
  27 O :   -0.444248
  28 O :   -0.624389
  29 C :   -0.149666
  30 C :   -0.143395
  31 C :    0.128674
  32 C :   -0.539145
  33 C :    0.116195
  34 C :   -0.196386
  35 C :   -0.119374
  36 C :   -0.123767
  37 C :   -0.210275
  38 C :    0.112214
  39 H :    0.139697
  40 H :    0.143899
  41 H :    0.143210
  42 H :    0.140382
  43 H :    0.142690
  44 H :    0.155816
  45 H :    0.141011
  46 H :    0.166787
  47 H :    0.180277
  48 H :    0.150734
  49 H :    0.153994
  50 H :    0.146481
  51 H :    0.145327
  52 H :    0.188866
  53 H :    0.179962
  54 H :    0.433682
  55 H :    0.169659
  56 H :    0.187679
  57 H :    0.196475
  58 H :    0.180091
  59 H :    0.148011
  60 H :    0.146058
  61 H :    0.138047
  62 H :    0.135055
  63 H :    0.138199
Sum of atomic charges:    0.0000000

--------------------------------
MULLIKEN REDUCED ORBITAL CHARGES
--------------------------------
  0 C s       :     3.303136  s :     3.303136
      pz      :     1.029957  p :     3.094495
      px      :     1.020890
      py      :     1.043649
      dz2     :     0.008208  d :     0.034514
      dxz     :     0.006425
      dyz     :     0.005782
      dx2y2   :     0.005201
      dxy     :     0.008898

  1 C s       :     3.255314  s :     3.255314
      pz      :     1.001166  p :     2.954721
      px      :     1.006599
      py      :     0.946957
      dz2     :     0.009934  d :     0.040624
      dxz     :     0.007575
      dyz     :     0.005872
      dx2y2   :     0.005816
      dxy     :     0.011427

  2 C s       :     3.265170  s :     3.265170
      pz      :     1.018753  p :     3.011919
      px      :     1.019651
      py      :     0.973515
      dz2     :     0.008602  d :     0.039375
      dxz     :     0.008359
      dyz     :     0.006058
      dx2y2   :     0.004750
      dxy     :     0.011606

  3 C s       :     3.108070  s :     3.108070
      pz      :     0.915028  p :     2.655558
      px      :     0.813357
      py      :     0.927173
      dz2     :     0.010849  d :     0.058878
      dxz     :     0.016682
      dyz     :     0.006128
      dx2y2   :     0.012235
      dxy     :     0.012984

  4 N s       :     3.696675  s :     3.696675
      pz      :     1.417509  p :     3.708270
      px      :     1.005437
      py      :     1.285324
      dz2     :     0.005670  d :     0.034902
      dxz     :     0.010333
      dyz     :     0.004337
      dx2y2   :     0.005474
      dxy     :     0.009088

  5 C s       :     3.050109  s :     3.050109
      pz      :     0.954345  p :     2.585085
      px      :     0.668156
      py      :     0.962584
      dz2     :     0.013830  d :     0.073755
      dxz     :     0.017146
      dyz     :     0.008085
      dx2y2   :     0.018252
      dxy     :     0.016441

  6 N s       :     3.608065  s :     3.608065
      pz      :     1.247986  p :     3.964112
      px      :     1.254637
      py      :     1.461489
      dz2     :     0.007395  d :     0.034008
      dxz     :     0.008772
      dyz     :     0.005506
      dx2y2   :     0.006072
      dxy     :     0.006264

  7 C s       :     3.264527  s :     3.264527
      pz      :     0.849700  p :     2.936780
      px      :     1.076325
      py      :     1.010755
      dz2     :     0.014122  d :     0.055024
      dxz     :     0.013075
      dyz     :     0.010150
      dx2y2   :     0.006822
      dxy     :     0.010854

  8 C s       :     3.108302  s :     3.108302
      pz      :     0.973213  p :     2.671143
      px      :     0.863636
      py      :     0.834294
      dz2     :     0.003116  d :     0.039753
      dxz     :     0.005990
      dyz     :     0.004359
      dx2y2   :     0.013032
      dxy     :     0.013256

  9 C s       :     3.197067  s :     3.197067
      pz      :     0.981532  p :     2.929007
      px      :     0.973191
      py      :     0.974284
      dz2     :     0.003476  d :     0.036474
      dxz     :     0.004546
      dyz     :     0.004023
      dx2y2   :     0.010138
      dxy     :     0.014291

 10 C s       :     3.181253  s :     3.181253
      pz      :     1.029767  p :     2.973723
      px      :     0.978752
      py      :     0.965204
      dz2     :     0.003575  d :     0.034476
      dxz     :     0.002242
      dyz     :     0.005888
      dx2y2   :     0.012015
      dxy     :     0.010756

 11 C s       :     3.073589  s :     3.073589
      pz      :     0.998866  p :     2.508287
      px      :     0.869319
      py      :     0.640102
      dz2     :     0.004648  d :     0.065106
      dxz     :     0.007333
      dyz     :     0.012578
      dx2y2   :     0.021650
      dxy     :     0.018896

 12 O s       :     3.885062  s :     3.885062
      pz      :     1.811477  p :     4.635717
      px      :     1.385565
      py      :     1.438675
      dz2     :     0.004033  d :     0.025918
      dxz     :     0.003390
      dyz     :     0.004025
      dx2y2   :     0.010420
      dxy     :     0.004050

 13 C s       :     2.718731  s :     2.718731
      pz      :     0.661228  p :     2.031501
      px      :     0.729963
      py      :     0.640310
      dz2     :     0.035633  d :     0.163585
      dxz     :     0.035837
      dyz     :     0.027948
      dx2y2   :     0.036769
      dxy     :     0.027398

 14 F s       :     3.982058  s :     3.982058
      pz      :     1.572792  p :     5.293759
      px      :     1.843717
      py      :     1.877250
      dz2     :     0.005693  d :     0.016215
      dxz     :     0.004678
      dyz     :     0.003703
      dx2y2   :     0.001057
      dxy     :     0.001083

 15 F s       :     3.979438  s :     3.979438
      pz      :     1.910280  p :     5.284965
      px      :     1.908604
      py      :     1.466081
      dz2     :     0.002300  d :     0.016121
      dxz     :     0.000248
      dyz     :     0.003676
      dx2y2   :     0.006644
      dxy     :     0.003253

 16 F s       :     3.982762  s :     3.982762
      pz      :     1.652479  p :     5.291157
      px      :     1.791242
      py      :     1.847436
      dz2     :     0.003998  d :     0.016236
      dxz     :     0.005004
      dyz     :     0.003539
      dx2y2   :     0.001689
      dxy     :     0.002006

 17 C s       :     3.194509  s :     3.194509
      pz      :     1.028846  p :     2.944240
      px      :     0.937700
      py      :     0.977694
      dz2     :     0.003552  d :     0.034610
      dxz     :     0.004573
      dyz     :     0.003847
      dx2y2   :     0.009888
      dxy     :     0.012750

 18 C s       :     3.199539  s :     3.199539
      pz      :     0.994324  p :     2.931854
      px      :     0.990668
      py      :     0.946862
      dz2     :     0.003498  d :     0.036339
      dxz     :     0.002111
      dyz     :     0.006468
      dx2y2   :     0.013837
      dxy     :     0.010426

 19 S s       :     5.212730  s :     5.212730
      pz      :     3.015833  p :     9.036685
      px      :     2.969623
      py      :     3.051229
      dz2     :     0.094722  d :     0.535178
      dxz     :     0.123352
      dyz     :     0.113175
      dx2y2   :     0.112298
      dxy     :     0.091632

 20 O s       :     3.924231  s :     3.924231
      pz      :     1.671974  p :     4.598690
      px      :     1.263363
      py      :     1.663353
      dz2     :     0.003030  d :     0.026598
      dxz     :     0.006945
      dyz     :     0.001064
      dx2y2   :     0.007844
      dxy     :     0.007715

 21 O s       :     3.930360  s :     3.930360
      pz      :     1.228607  p :     4.583644
      px      :     1.652794
      py      :     1.702243
      dz2     :     0.009882  d :     0.026858
      dxz     :     0.007772
      dyz     :     0.006835
      dx2y2   :     0.001117
      dxy     :     0.001252

 22 C s       :     3.221986  s :     3.221986
      pz      :     1.014628  p :     2.865791
      px      :     0.983677
      py      :     0.867487
      dz2     :     0.003443  d :     0.038651
      dxz     :     0.007473
      dyz     :     0.005051
      dx2y2   :     0.013078
      dxy     :     0.009605

 23 C s       :     3.212226  s :     3.212226
      pz      :     0.955133  p :     2.903839
      px      :     1.002987
      py      :     0.945719
      dz2     :     0.004499  d :     0.035902
      dxz     :     0.004919
      dyz     :     0.005046
      dx2y2   :     0.010145
      dxy     :     0.011293

 24 C s       :     3.215393  s :     3.215393
      pz      :     0.942546  p :     2.888212
      px      :     1.003070
      py      :     0.942597
      dz2     :     0.004332  d :     0.035554
      dxz     :     0.005045
      dyz     :     0.004730
      dx2y2   :     0.009708
      dxy     :     0.011739

 25 C s       :     3.165522  s :     3.165522
      pz      :     0.978246  p :     2.713442
      px      :     0.855962
      py      :     0.879234
      dz2     :     0.003485  d :     0.038389
      dxz     :     0.007044
      dyz     :     0.005218
      dx2y2   :     0.012239
      dxy     :     0.010404

 26 C s       :     2.997196  s :     2.997196
      pz      :     0.814053  p :     2.365524
      px      :     0.673086
      py      :     0.878384
      dz2     :     0.009040  d :     0.110345
      dxz     :     0.023030
      dyz     :     0.009500
      dx2y2   :     0.038253
      dxy     :     0.030522

 27 O s       :     3.877790  s :     3.877790
      pz      :     1.458878  p :     4.540816
      px      :     1.486132
      py      :     1.595806
      dz2     :     0.002775  d :     0.025642
      dxz     :     0.006294
      dyz     :     0.002757
      dx2y2   :     0.006294
      dxy     :     0.007523

 28 O s       :     3.871796  s :     3.871796
      pz      :     1.729327  p :     4.731724
      px      :     1.550876
      py      :     1.451520
      dz2     :     0.002249  d :     0.020869
      dxz     :     0.003649
      dyz     :     0.003503
      dx2y2   :     0.009238
      dxy     :     0.002229

 29 C s       :     3.212241  s :     3.212241
      pz      :     0.955067  p :     2.901669
      px      :     0.997767
      py      :     0.948836
      dz2     :     0.004488  d :     0.035755
      dxz     :     0.004645
      dyz     :     0.005036
      dx2y2   :     0.010683
      dxy     :     0.010903

 30 C s       :     3.201647  s :     3.201647
      pz      :     0.952311  p :     2.905895
      px      :     0.982369
      py      :     0.971215
      dz2     :     0.004413  d :     0.035853
      dxz     :     0.005401
      dyz     :     0.004772
      dx2y2   :     0.009194
      dxy     :     0.012073

 31 C s       :     3.175555  s :     3.175555
      pz      :     0.890081  p :     2.655616
      px      :     0.866560
      py      :     0.898975
      dz2     :     0.008633  d :     0.040155
      dxz     :     0.008819
      dyz     :     0.005601
      dx2y2   :     0.009482
      dxy     :     0.007621

 32 C s       :     3.318643  s :     3.318643
      pz      :     1.090359  p :     3.186450
      px      :     1.056369
      py      :     1.039721
      dz2     :     0.008573  d :     0.034052
      dxz     :     0.006883
      dyz     :     0.003933
      dx2y2   :     0.010431
      dxy     :     0.004232

 33 C s       :     3.140618  s :     3.140618
      pz      :     0.883473  p :     2.701886
      px      :     0.884412
      py      :     0.934001
      dz2     :     0.008413  d :     0.041301
      dxz     :     0.011121
      dyz     :     0.005566
      dx2y2   :     0.007926
      dxy     :     0.008276

 34 C s       :     3.211787  s :     3.211787
      pz      :     0.993232  p :     2.949001
      px      :     0.958883
      py      :     0.996886
      dz2     :     0.006086  d :     0.035598
      dxz     :     0.010849
      dyz     :     0.005261
      dx2y2   :     0.005943
      dxy     :     0.007459

 35 C s       :     3.194617  s :     3.194617
      pz      :     0.975586  p :     2.888065
      px      :     0.943468
      py      :     0.969011
      dz2     :     0.006300  d :     0.036693
      dxz     :     0.009530
      dyz     :     0.006088
      dx2y2   :     0.007077
      dxy     :     0.007697

 36 C s       :     3.191840  s :     3.191840
      pz      :     0.958090  p :     2.895324
      px      :     0.970683
      py      :     0.966550
      dz2     :     0.008096  d :     0.036604
      dxz     :     0.009004
      dyz     :     0.005266
      dx2y2   :     0.009002
      dxy     :     0.005236

 37 C s       :     3.210436  s :     3.210436
      pz      :     0.985675  p :     2.963793
      px      :     1.002068
      py      :     0.976049
      dz2     :     0.006531  d :     0.036046
      dxz     :     0.010645
      dyz     :     0.004783
      dx2y2   :     0.006649
      dxy     :     0.007438

 38 C s       :     3.146877  s :     3.146877
      pz      :     0.887918  p :     2.700373
      px      :     0.855947
      py      :     0.956508
      dz2     :     0.007943  d :     0.040535
      dxz     :     0.010886
      dyz     :     0.005512
      dx2y2   :     0.007750
      dxy     :     0.008444

 39 H s       :     0.860303  s :     0.860303

 40 H s       :     0.856101  s :     0.856101

 41 H s       :     0.856790  s :     0.856790

 42 H s       :     0.859618  s :     0.859618

 43 H s       :     0.857310  s :     0.857310

 44 H s       :     0.844184  s :     0.844184

 45 H s       :     0.858989  s :     0.858989

 46 H s       :     0.833213  s :     0.833213

 47 H s       :     0.819723  s :     0.819723

 48 H s       :     0.849266  s :     0.849266

 49 H s       :     0.846006  s :     0.846006

 50 H s       :     0.853519  s :     0.853519

 51 H s       :     0.854673  s :     0.854673

 52 H s       :     0.811134  s :     0.811134

 53 H s       :     0.820038  s :     0.820038

 54 H s       :     0.566318  s :     0.566318

 55 H s       :     0.830341  s :     0.830341

 56 H s       :     0.812321  s :     0.812321

 57 H s       :     0.803525  s :     0.803525

 58 H s       :     0.819909  s :     0.819909

 59 H s       :     0.851989  s :     0.851989

 60 H s       :     0.853942  s :     0.853942

 61 H s       :     0.861953  s :     0.861953

 62 H s       :     0.864945  s :     0.864945

 63 H s       :     0.861801  s :     0.861801



                     *******************************
                     * LOEWDIN POPULATION ANALYSIS *
                     *******************************

----------------------
LOEWDIN ATOMIC CHARGES
----------------------
   0 C :   -0.357508
   1 C :   -0.225772
   2 C :   -0.228726
   3 C :    0.040169
   4 N :   -0.150241
   5 C :    0.016857
   6 N :   -0.274981
   7 C :   -0.147244
   8 C :   -0.035430
   9 C :   -0.113013
  10 C :   -0.157358
  11 C :    0.086705
  12 O :   -0.161454
  13 C :    0.362598
  14 F :   -0.106394
  15 F :   -0.089550
  16 F :   -0.104924
  17 C :   -0.141921
  18 C :   -0.121925
  19 S :    1.263076
  20 O :   -0.576445
  21 O :   -0.565460
  22 C :   -0.175285
  23 C :   -0.105501
  24 C :   -0.086608
  25 C :   -0.040053
  26 C :    0.179252
  27 O :   -0.260426
  28 O :   -0.335400
  29 C :   -0.099744
  30 C :   -0.102046
  31 C :    0.000071
  32 C :   -0.360917
  33 C :   -0.003984
  34 C :   -0.117115
  35 C :   -0.117681
  36 C :   -0.125477
  37 C :   -0.119660
  38 C :   -0.027885
  39 H :    0.120719
  40 H :    0.125073
  41 H :    0.122512
  42 H :    0.120391
  43 H :    0.121443
  44 H :    0.137274
  45 H :    0.125040
  46 H :    0.139395
  47 H :    0.140954
  48 H :    0.143065
  49 H :    0.142934
  50 H :    0.144081
  51 H :    0.140405
  52 H :    0.162751
  53 H :    0.160173
  54 H :    0.349412
  55 H :    0.153341
  56 H :    0.157819
  57 H :    0.152177
  58 H :    0.147698
  59 H :    0.129295
  60 H :    0.142610
  61 H :    0.136691
  62 H :    0.135035
  63 H :    0.137110

-------------------------------
LOEWDIN REDUCED ORBITAL CHARGES
-------------------------------
  0 C s       :     2.983547  s :     2.983547
      pz      :     1.104604  p :     3.306547
      px      :     1.095396
      py      :     1.106548
      dz2     :     0.015527  d :     0.067414
      dxz     :     0.013252
      dyz     :     0.011237
      dx2y2   :     0.009954
      dxy     :     0.017445

  1 C s       :     2.939081  s :     2.939081
      pz      :     1.083350  p :     3.200915
      px      :     1.078705
      py      :     1.038860
      dz2     :     0.019380  d :     0.085776
      dxz     :     0.016068
      dyz     :     0.013574
      dx2y2   :     0.012734
      dxy     :     0.024020

  2 C s       :     2.936016  s :     2.936016
      pz      :     1.080534  p :     3.209716
      px      :     1.075593
      py      :     1.053588
      dz2     :     0.017239  d :     0.082994
      dxz     :     0.017417
      dyz     :     0.013675
      dx2y2   :     0.010766
      dxy     :     0.023897

  3 C s       :     2.873405  s :     2.873405
      pz      :     1.001994  p :     2.946980
      px      :     0.995378
      py      :     0.949608
      dz2     :     0.024701  d :     0.139446
      dxz     :     0.041903
      dyz     :     0.013912
      dx2y2   :     0.029358
      dxy     :     0.029572

  4 N s       :     3.229757  s :     3.229757
      pz      :     1.421764  p :     3.840358
      px      :     1.135001
      py      :     1.283593
      dz2     :     0.010635  d :     0.080126
      dxz     :     0.025351
      dyz     :     0.006202
      dx2y2   :     0.016107
      dxy     :     0.021831

  5 C s       :     2.845888  s :     2.845888
[...]
      dyz     :     0.007276
      dx2y2   :     0.020267
      dxy     :     0.008462

 33 C s       :     2.857666  s :     2.857666
      pz      :     1.017399  p :     3.040950
      px      :     1.036655
      py      :     0.986896
      dz2     :     0.021030  d :     0.105368
      dxz     :     0.029286
      dyz     :     0.013931
      dx2y2   :     0.021003
      dxy     :     0.020119

 34 C s       :     2.917215  s :     2.917215
      pz      :     1.036230  p :     3.117241
      px      :     1.073917
      py      :     1.007094
      dz2     :     0.014472  d :     0.082659
      dxz     :     0.025881
      dyz     :     0.011029
      dx2y2   :     0.014920
      dxy     :     0.016358

 35 C s       :     2.917218  s :     2.917218
      pz      :     1.039637  p :     3.113944
      px      :     1.075172
      py      :     0.999135
      dz2     :     0.014277  d :     0.086519
      dxz     :     0.023918
      dyz     :     0.010766
      dx2y2   :     0.019016
      dxy     :     0.018541

 36 C s       :     2.916175  s :     2.916175
      pz      :     1.042030  p :     3.122784
      px      :     1.074796
      py      :     1.005958
      dz2     :     0.019225  d :     0.086518
      dxz     :     0.022202
      dyz     :     0.014053
      dx2y2   :     0.018647
      dxy     :     0.012390

 37 C s       :     2.916559  s :     2.916559
      pz      :     1.044415  p :     3.119201
      px      :     1.063331
      py      :     1.011455
      dz2     :     0.015344  d :     0.083899
      dxz     :     0.025557
      dyz     :     0.011213
      dx2y2   :     0.015096
      dxy     :     0.016689

 38 C s       :     2.860766  s :     2.860766
      pz      :     1.021557  p :     3.061787
      px      :     1.045590
      py      :     0.994639
      dz2     :     0.020182  d :     0.105333
      dxz     :     0.029356
      dyz     :     0.013993
      dx2y2   :     0.021123
      dxy     :     0.020679

 39 H s       :     0.879281  s :     0.879281

 40 H s       :     0.874927  s :     0.874927

 41 H s       :     0.877488  s :     0.877488

 42 H s       :     0.879609  s :     0.879609

 43 H s       :     0.878557  s :     0.878557

 44 H s       :     0.862726  s :     0.862726

 45 H s       :     0.874960  s :     0.874960

 46 H s       :     0.860605  s :     0.860605

 47 H s       :     0.859046  s :     0.859046

 48 H s       :     0.856935  s :     0.856935

 49 H s       :     0.857066  s :     0.857066

 50 H s       :     0.855919  s :     0.855919

 51 H s       :     0.859595  s :     0.859595

 52 H s       :     0.837249  s :     0.837249

 53 H s       :     0.839827  s :     0.839827

 54 H s       :     0.650588  s :     0.650588

 55 H s       :     0.846659  s :     0.846659

 56 H s       :     0.842181  s :     0.842181

 57 H s       :     0.847823  s :     0.847823

 58 H s       :     0.852302  s :     0.852302

 59 H s       :     0.870705  s :     0.870705

 60 H s       :     0.857390  s :     0.857390

 61 H s       :     0.863309  s :     0.863309

 62 H s       :     0.864965  s :     0.864965

 63 H s       :     0.862890  s :     0.862890



                      *****************************
                      * MAYER POPULATION ANALYSIS *
                      *****************************

  NA   - Mulliken gross atomic population
  ZA   - Total nuclear charge
  QA   - Mulliken gross atomic charge
  VA   - Mayer's total valence
  BVA  - Mayer's bonded valence
  FA   - Mayer's free valence

  ATOM       NA         ZA         QA         VA         BVA        FA
  0 C      6.4321     6.0000    -0.4321     3.8505     3.8505     0.0000
  1 C      6.2507     6.0000    -0.2507     3.8695     3.8695    -0.0000
  2 C      6.3165     6.0000    -0.3165     3.8328     3.8328     0.0000
  3 C      5.8225     6.0000     0.1775     3.8719     3.8719    -0.0000
  4 N      7.4398     7.0000    -0.4398     2.9392     2.9392     0.0000
  5 C      5.7089     6.0000     0.2911     3.8752     3.8752    -0.0000
  6 N      7.6062     7.0000    -0.6062     2.7803     2.7803     0.0000
  7 C      6.2563     6.0000    -0.2563     3.8216     3.8216    -0.0000
  8 C      5.8192     6.0000     0.1808     3.9045     3.9045    -0.0000
  9 C      6.1625     6.0000    -0.1625     3.9535     3.9535    -0.0000
 10 C      6.1895     6.0000    -0.1895     3.9016     3.9016     0.0000
 11 C      5.6470     6.0000     0.3530     3.8090     3.8090     0.0000
 12 O      8.5467     8.0000    -0.5467     1.9589     1.9589    -0.0000
 13 C      4.9138     6.0000     1.0862     3.9928     3.9928     0.0000
 14 F      9.2920     9.0000    -0.2920     1.0642     1.0642    -0.0000
 15 F      9.2805     9.0000    -0.2805     1.0859     1.0859     0.0000
 16 F      9.2902     9.0000    -0.2902     1.0668     1.0668    -0.0000
 17 C      6.1734     6.0000    -0.1734     3.9160     3.9160    -0.0000
 18 C      6.1677     6.0000    -0.1677     3.9384     3.9384    -0.0000
 19 S     14.7846    16.0000     1.2154     5.0733     5.0733    -0.0000
 20 O      8.5495     8.0000    -0.5495     1.8876     1.8876     0.0000
 21 O      8.5409     8.0000    -0.5409     1.8927     1.8927     0.0000
 22 C      6.1264     6.0000    -0.1264     3.8316     3.8316     0.0000
 23 C      6.1520     6.0000    -0.1520     3.9130     3.9130    -0.0000
 24 C      6.1392     6.0000    -0.1392     3.8917     3.8917     0.0000
 25 C      5.9174     6.0000     0.0826     3.9249     3.9249     0.0000
 26 C      5.4731     6.0000     0.5269     3.9540     3.9540    -0.0000
 27 O      8.4442     8.0000    -0.4442     2.0675     2.0675    -0.0000
 28 O      8.6244     8.0000    -0.6244     1.8673     1.8673    -0.0000
 29 C      6.1497     6.0000    -0.1497     3.8783     3.8783    -0.0000
 30 C      6.1434     6.0000    -0.1434     3.9129     3.9129     0.0000
 31 C      5.8713     6.0000     0.1287     3.8810     3.8810     0.0000
 32 C      6.5391     6.0000    -0.5391     3.8309     3.8309     0.0000
 33 C      5.8838     6.0000     0.1162     3.9821     3.9821    -0.0000
 34 C      6.1964     6.0000    -0.1964     3.8760     3.8760     0.0000
 35 C      6.1194     6.0000    -0.1194     3.9248     3.9248    -0.0000
 36 C      6.1238     6.0000    -0.1238     3.9308     3.9308    -0.0000
 37 C      6.2103     6.0000    -0.2103     3.8898     3.8898    -0.0000
 38 C      5.8878     6.0000     0.1122     3.9759     3.9759    -0.0000
 39 H      0.8603     1.0000     0.1397     0.9383     0.9383     0.0000
 40 H      0.8561     1.0000     0.1439     0.9360     0.9360     0.0000
 41 H      0.8568     1.0000     0.1432     0.9378     0.9378    -0.0000
 42 H      0.8596     1.0000     0.1404     0.9362     0.9362    -0.0000
 43 H      0.8573     1.0000     0.1427     0.9352     0.9352    -0.0000
 44 H      0.8442     1.0000     0.1558     0.9415     0.9415    -0.0000
 45 H      0.8590     1.0000     0.1410     0.9356     0.9356     0.0000
 46 H      0.8332     1.0000     0.1668     0.9390     0.9390     0.0000
 47 H      0.8197     1.0000     0.1803     0.9306     0.9306    -0.0000
 48 H      0.8493     1.0000     0.1507     0.9389     0.9389     0.0000
 49 H      0.8460     1.0000     0.1540     0.9484     0.9484     0.0000
 50 H      0.8535     1.0000     0.1465     0.9367     0.9367     0.0000
 51 H      0.8547     1.0000     0.1453     0.9416     0.9416    -0.0000
 52 H      0.8111     1.0000     0.1889     0.9364     0.9364     0.0000
 53 H      0.8200     1.0000     0.1800     0.9386     0.9386     0.0000
 54 H      0.5663     1.0000     0.4337     0.7959     0.7959     0.0000
 55 H      0.8303     1.0000     0.1697     0.9375     0.9375    -0.0000
 56 H      0.8123     1.0000     0.1877     0.9415     0.9415     0.0000
 57 H      0.8035     1.0000     0.1965     0.9341     0.9341    -0.0000
 58 H      0.8199     1.0000     0.1801     0.9292     0.9292    -0.0000
 59 H      0.8520     1.0000     0.1480     0.9318     0.9318    -0.0000
 60 H      0.8539     1.0000     0.1461     0.9419     0.9419    -0.0000
 61 H      0.8620     1.0000     0.1380     0.9362     0.9362    -0.0000
 62 H      0.8649     1.0000     0.1351     0.9368     0.9368     0.0000
 63 H      0.8618     1.0000     0.1382     0.9408     0.9408    -0.0000

  Mayer bond orders larger than 0.100000
B(  0-C ,  1-C ) :   1.0098 B(  0-C , 39-H ) :   0.9520 B(  0-C , 40-H ) :   0.9514 
B(  0-C , 41-H ) :   0.9512 B(  1-C ,  2-C ) :   0.9945 B(  1-C , 42-H ) :   0.9379 
B(  1-C , 43-H ) :   0.9385 B(  2-C ,  3-C ) :   0.9943 B(  2-C , 44-H ) :   0.9274 
B(  2-C , 45-H ) :   0.9233 B(  3-C ,  4-N ) :   1.4562 B(  3-C , 38-C ) :   1.2363 
B(  4-N ,  5-C ) :   1.2566 B(  5-C ,  6-N ) :   0.8905 B(  5-C , 31-C ) :   1.4401 
B(  6-N ,  7-C ) :   0.9204 B(  6-N , 19-S ) :   0.7988 B(  7-C ,  8-C ) :   0.9486 
B(  7-C , 46-H ) :   0.9224 B(  7-C , 47-H ) :   0.9148 B(  8-C ,  9-C ) :   1.4451 
B(  8-C , 18-C ) :   1.4248 B(  9-C , 10-C ) :   1.4284 B(  9-C , 48-H ) :   0.9176 
B( 10-C , 11-C ) :   1.3958 B( 10-C , 49-H ) :   0.9091 B( 11-C , 12-O ) :   0.8220 
B( 11-C , 17-C ) :   1.4153 B( 12-O , 13-C ) :   0.9912 B( 13-C , 14-F ) :   0.9704 
B( 13-C , 15-F ) :   1.0057 B( 13-C , 16-F ) :   0.9666 B( 17-C , 18-C ) :   1.4394 
B( 17-C , 50-H ) :   0.9187 B( 18-C , 51-H ) :   0.9185 B( 19-S , 20-O ) :   1.6259 
B( 19-S , 21-O ) :   1.6522 B( 19-S , 22-C ) :   0.8091 B( 22-C , 23-C ) :   1.3921 
B( 22-C , 30-C ) :   1.3875 B( 23-C , 24-C ) :   1.4148 B( 23-C , 52-H ) :   0.9085 
B( 24-C , 25-C ) :   1.4034 B( 24-C , 53-H ) :   0.9099 B( 25-C , 26-C ) :   1.0082 
B( 25-C , 29-C ) :   1.3801 B( 26-C , 27-O ) :   1.8639 B( 26-C , 28-O ) :   1.0238 
B( 28-O , 54-H ) :   0.7420 B( 29-C , 30-C ) :   1.4305 B( 29-C , 55-H ) :   0.9155 
B( 30-C , 56-H ) :   0.8972 B( 31-C , 32-C ) :   1.0091 B( 31-C , 33-C ) :   1.2571 
B( 32-C , 57-H ) :   0.9207 B( 32-C , 58-H ) :   0.9194 B( 32-C , 59-H ) :   0.9270 
B( 33-C , 34-C ) :   1.2938 B( 33-C , 38-C ) :   1.2824 B( 34-C , 35-C ) :   1.5066 
B( 34-C , 37-C ) :   0.1048 B( 34-C , 60-H ) :   0.9145 B( 35-C , 36-C ) :   1.3570 
B( 35-C , 61-H ) :   0.9287 B( 36-C , 37-C ) :   1.5098 B( 36-C , 62-H ) :   0.9291 
B( 37-C , 38-C ) :   1.2883 B( 37-C , 63-H ) :   0.9171 

-------
TIMINGS
-------

Total SCF time: 0 days 0 hours 13 min 10 sec 

Total time                  ....     790.464 sec
Sum of individual times     ....     790.127 sec  (100.0%)

SCF preparation             ....       0.497 sec  (  0.1%)
Fock matrix formation       ....     786.347 sec  ( 99.5%)
  Startup                   ....       0.099 sec  (  0.0% of F)
  Split-RI-J                ....     106.722 sec  ( 13.6% of F)
  Chain of spheres X        ....     618.601 sec  ( 78.7% of F)
  XC integration            ....      59.624 sec  (  7.6% of F)
    XC Preparation          ....       0.000 sec  (  0.0% of XC)
    Basis function eval.    ....      23.371 sec  ( 39.2% of XC)
    Density eval.           ....      15.770 sec  ( 26.4% of XC)
    XC-Functional eval.     ....       2.904 sec  (  4.9% of XC)
    XC-Potential eval.      ....      15.352 sec  ( 25.7% of XC)
Diagonalization             ....       0.000 sec  (  0.0%)
Density matrix formation    ....       0.473 sec  (  0.1%)
Total Energy calculation    ....       0.132 sec  (  0.0%)
Population analysis         ....       0.090 sec  (  0.0%)
Orbital Transformation      ....       0.276 sec  (  0.0%)
Orbital Orthonormalization  ....       0.000 sec  (  0.0%)
DIIS solution               ....       1.398 sec  (  0.2%)
SOSCF solution              ....       0.913 sec  (  0.1%)
Finished LeanSCF after 790.6 sec

Maximum memory used throughout the entire LEANSCF-calculation: 108.2 MB

-------------------------   --------------------
FINAL SINGLE POINT ENERGY     -2264.179997192272
-------------------------   --------------------


------------------------------------------------------------------------------
                              ORCA PROPERTY CALCULATIONS
------------------------------------------------------------------------------

GBWName                                 ... /home/nmrbox/aojoawo/Documents/ERDOS/inputs/CHEMBL3682585.gbw
Number of atoms                         ...     64
Number of basis functions               ...    600
Max core memory                         ...   1024 MB

Electric properties:
Dipole moment                           ... YES
Quadrupole moment                       ...  NO
Static polarizability (Dipole/Dipole)   ...  NO
Static polarizability (Dipole/Quad.)    ...  NO
Static polarizability (Quad./Quad.)     ...  NO
Static polarizability (Velocity)        ...  NO

Atomic electric properties:
Dipole moment                           ...  NO
Quadrupole moment                       ...  NO
Static polarizability                   ...  NO

Choice of electric origin               ... Center of mass
Position of electric origin             ...     1.572739    -0.647210     0.006435

General magnetic properties:
Magnetizability                         ...  NO

EPR properties:
g-Tensor (aka g-matrix)                 ...  NO
Zero-Field splitting spin-orbit         ...  NO
Zero-field splitting spin-spin          ...  NO
Hyperfine couplings                     ...  NO (   0 nuclei)
Quadrupole couplings                    ...  NO (   0 nuclei)
Contact density                         ...  NO (   0 nuclei)

NMR properties:
Chemical shifts                         ...  NO (   0 nuclei)
Spin-rotation constants                 ...  NO (   0 nuclei)
Spin-spin couplings                     ...  NO (   0 nuclei,    0 pairs)

Choice of magnetic origin               ... GIAO
Position of magnetic origin             ...     0.000000     0.000000     0.000000

Properties with geometric perturbations:
SCF Hessian                             ...  NO
IR spectrum                             ...  NO
VCD spectrum                            ...  NO
X-ray spectroscopy properties:
SCF XES/XAS/RIXS spectra                ...  NO


-------------
DIPOLE MOMENT
-------------

Method             : SCF
Type of density    : Electron Density
Multiplicity       :   1
Irrep              :   0
Energy             : -2264.1799971922719124 Eh
Relativity type    : 
Basis              : AO
                                X                 Y                 Z
Electronic contribution:     52.454135215     -34.993881915      -6.195475301
Nuclear contribution   :    -54.971465464      35.358139041       5.324334161
                        -----------------------------------------
Total Dipole Moment    :     -2.517330249       0.364257126      -0.871141140
                        -----------------------------------------
Magnitude (a.u.)       :      2.688591029
Magnitude (Debye)      :      6.833855300



--------------------
Rotational spectrum 
--------------------
 
Rotational constants in cm-1:             0.003223             0.001700             0.001255 
Rotational constants in MHz :            96.616827            50.969790            37.628047 

Dipole components along the rotational axes: 
x,y,z [a.u.] :    -1.316809    -1.733788    -1.577503 
x,y,z [Debye]:    -3.347062    -4.406939    -4.009694 

 

Dipole moment calculation done in   0.0 sec 

Maximum memory used throughout the entire PROP-calculation: 53.3 MB

--------------------------------
SUGGESTED CITATIONS FOR THIS RUN
--------------------------------

Below you find a list of papers that are relevant to this ORCA run
We neither can nor want to force you to cite these papers, but we appreciate if you do
You receive ORCA, which is the product of decades of hard work by many enthusiastic individuals, for free
The only thing we kindly ask in return is that you cite our papers,
We deeply appreciate it, if you show your appreciation for ORCA by not just citing the generic ORCA reference.

Please note that relegating all ORCA citations to the supporting information does *not* help us.
SI sections are not indexed - citations you put there will not count into any citation statistics
But we need these citations in order to attract the funding resources that allow us to do what we are doing

Therefore, if you are a happy ORCA user, please consider citing a few of the papers listed below in the main body of your paper

In addition to the list printed below, the program has created the file /home/nmrbox/aojoawo/Documents/ERDOS/inputs/CHEMBL3682585.bibtex that contains the list in bibtex format
You can import this file easily into all common literature databanks and citation aid programs


List of essential papers. We consider these as the minimum necessary citations

  1. Neese,F.
     Software update: the ORCA program system, version 5.0
     WIRES Comput. Molec. Sci., 2022 12(1)e1606
     doi.org/10.1002/wcms.1606

List of papers to cite with high priority. The work reported in these papers was absolutely
necessary for this run to complete.
Our perspective: the developers of density functionals and basis sets usually get cited in chemistry papers
Good! But without the algorithms to do something with them, the functionals or basis sets would not do anything.
Hence, in our opinion, the algorithm design and method developments papers are equally worthy of getting cited

  1. Neese,F.
     An improvement of the resolution of the identity approximation for the formation of the Coulomb matrix
     J. Comp. Chem., 2003 24(14)1740-1747
     doi.org/10.1002/jcc.10318
  2. Neese,F.; Wennmohs,F.; Hansen,A.; Becker,U.
     Efficient, approximate and parallel Hartree-Fock and hybrid DFT calculations. A 'chain-of-spheres' algorithm for the Hartree-Fock exchange
     Chem. Phys., 2009 356(1-3)98-109
     doi.org/10.1016/j.chemphys.2008.10.036
  3. Helmich-Paris,B.; de Souza,B.; Neese,F.; Izsák,R.
     An improved chain of spheres for exchange algorithm
     J. Chem. Phys., 2021 155 104109
     doi.org/doi: 10.1063/5.0058766.
  4. Neese,F.
     The SHARK Integral Generation and Digestion System
     J. Comp. Chem., 2022  1-16
     doi.org/10.1002/jcc.26942

List of suggested additional citations. These are papers that are important in the 'surrounding' of 
of this run, or papers that preceded the highly important papers. If you like your results we are grateful for a citation.

  1. Izsak,R.; Neese,F.
     An overlap fitted chain of spheres exchange method
     J. Chem. Phys., 2011 135 144105
     doi.org/10.1063/1.3646921
  2. Izsak,R.; Hansen,A.; Neese,F.
     The resolution of identity and chain of spheres approximations for the LPNO-CCSD singles Fock term
     Molec. Phys., 2012 110 2413-2417
     doi.org/10.1080/00268976.2012.687466
  3. Neese,F.
     The ORCA program system
     WIRES Comput. Molec. Sci., 2012 2(1)73-78
     doi.org/10.1002/wcms.81
  4. Izsak,R.; Neese,F.; Klopper,W.
     Robust fitting techniques in the chain of spheres approximation to the Fock exchange: The role of the complementary space
     J. Chem. Phys., 2013 139 
     doi.org/10.1063/1.4819264
  5. Neese,F.
     Software update: the ORCA program system, version 4.0
     WIRES Comput. Molec. Sci., 2018 8(1)1-6
     doi.org/10.1002/wcms.1327
  6. Neese,F.; Wennmohs,F.; Becker,U.; Riplinger,C.
     The ORCA quantum chemistry program package
     J. Chem. Phys., 2020 152 Art. No. L224108
     doi.org/10.1063/5.0004608

List of optional additional citations

  1. Neese,F.
     Approximate second-order SCF convergence for spin unrestricted wavefunctions
     Chem. Phys. Lett., 2000 325(1-3)93-98
     doi.org/10.1016/s0009-2614(00)00662-x

Timings for individual modules:

Sum of individual times          ...      820.846 sec (=  13.681 min)
Startup calculation              ...       19.620 sec (=   0.327 min)   2.4 %
SCF iterations                   ...      800.991 sec (=  13.350 min)  97.6 %
Property calculations            ...        0.235 sec (=   0.004 min)   0.0 %
                             ****ORCA TERMINATED NORMALLY****
TOTAL RUN TIME: 0 days 0 hours 13 minutes 41 seconds 492 msec
