
                                 *****************
                                 * O   R   C   A *
                                 *****************

                                            #,                                       
                                            ###                                      
                                            ####                                     
                                            #####                                    
                                            ######                                   
                                           ########,                                 
                                     ,,################,,,,,                         
                               ,,#################################,,                 
                          ,,##########################################,,             
                       ,#########################################, ''#####,          
                    ,#############################################,,   '####,        
                  ,##################################################,,,,####,       
                ,###########''''           ''''###############################       
              ,#####''   ,,,,##########,,,,          '''####'''          '####       
            ,##' ,,,,###########################,,,                        '##       
           ' ,,###''''                  '''############,,,                           
         ,,##''                                '''############,,,,        ,,,,,,###''
      ,#''                                            '''#######################'''  
     '                                                          ''''####''''         
             ,#######,   #######,   ,#######,      ##                                
            ,#'     '#,  ##    ##  ,#'     '#,    #''#        ,####,   ,####,        
            ##       ##  ##   ,#'  ##            #'  '#       #'       #'  '#        
            ##       ##  #######   ##           ,######,      #####,   #    #        
            '#,     ,#'  ##    ##  '#,     ,#' ,#      #,     #,   #   #,  ,#        
             '#######'   ##     ##  '#######'  #'      '#     '####' # '####'        



                #########################################################
                #                        -***-                          #
                #          Department of theory and spectroscopy        #
                #                                                       #
                #                      Frank Neese                      #
                #                                                       #
                #     Directorship, Architecture, Infrastructure        #
                #                    SHARK, DRIVERS                     #
                #        Core code/Algorithms in most modules           #
                #                                                       #
                #        Max Planck Institute fuer Kohlenforschung      #
                #                Kaiser Wilhelm Platz 1                 #
                #                 D-45470 Muelheim/Ruhr                 #
                #                      Germany                          #
                #                                                       #
                #                  All rights reserved                  #
                #                        -***-                          #
                #########################################################


                         Program Version 6.0.0  -   RELEASE  -


 With contributions from (in alphabetic order):
   Daniel Aravena         : Magnetic Suceptibility
   Michael Atanasov       : Ab Initio Ligand Field Theory (pilot matlab implementation)
   Alexander A. Auer      : GIAO ZORA, VPT2 properties, NMR spectrum
   Ute Becker             : All parallelization in ORCA, NUMFREQ, NUMCALC
   Giovanni Bistoni       : ED, misc. LED, open-shell LED, HFLD
   Martin Brehm           : Molecular dynamics
   Dmytro Bykov           : pre 5.0 version of the SCF Hessian
   Marcos Casanova-Páez   : Triplet and SCS-CIS(D). UHF-(DLPNO)-IP/EA/STEOM-CCSD. UHF-CVS-IP/STEOM-CCSD
   Vijay G. Chilkuri      : MRCI spin determinant printing, contributions to CSF-ICE
   Pauline Colinet        : FMM embedding
   Dipayan Datta          : RHF DLPNO-CCSD density
   Achintya Kumar Dutta   : EOM-CC, STEOM-CC
   Nicolas Foglia         : Exact transition moments, OPA infrastructure, MCD improvements
   Dmitry Ganyushin       : Spin-Orbit,Spin-Spin,Magnetic field MRCI
   Miquel Garcia          : C-PCM and meta-GGA Hessian, CCSD/C-PCM, Gaussian charge scheme
   Tiago L. C. Gouveia    : GS-ROHF, GS-ROCIS
   Yang Guo               : DLPNO-NEVPT2, F12-NEVPT2, CIM, IAO-localization
   Andreas Hansen         : Spin unrestricted coupled pair/coupled cluster methods
   Ingolf Harden          : AUTO-CI MPn and infrastructure 
   Benjamin Helmich-Paris : MC-RPA, TRAH-(SCF,CASSCF), AVAS, COSX integrals, SCF dyn. polar.
   Lee Huntington         : MR-EOM, pCC
   Robert Izsak           : Overlap fitted RIJCOSX, COSX-SCS-MP3, EOM
   Riya Kayal             : Wick's Theorem for AUTO-CI, AUTO-CI UHF-CCSDT
   Emily Kempfer          : AUTO-CI, RHF CISDT and CCSDT
   Christian Kollmar      : KDIIS, OOCD, Brueckner-CCSD(T), CCSD density, CASPT2, CASPT2-K, improved NEVPT2
   Axel Koslowski         : Symmetry handling
   Simone Kossmann        : Meta GGA functionals, TD-DFT gradient, OOMP2, (MP2 Hessian; deprecated post 5.0)
   Lucas Lang             : DCDCAS
   Marvin Lechner         : AUTO-CI (C++ implementation), FIC-MRCC
   Spencer Leger          : CASSCF response
   Dagmar Lenk            : GEPOL surface, SMD, ORCA-2-JSON
   Dimitrios Liakos       : Extrapolation schemes; Compound Job, initial MDCI parallelization
   Dimitrios Manganas     : Further ROCIS development; embedding schemes. LFT, Crystal Embedding
   Dimitrios Pantazis     : SARC Basis sets
   Anastasios Papadopoulos: AUTO-CI, single reference methods and gradients
   Taras Petrenko         : pre 6.0 DFT Hessian and TD-DFT gradient, (ASA, deprecated), ECA, 1-Electron XAS/XES, NRVS
   Peter Pinski           : DLPNO-MP2, DLPNO-MP2 Gradient
   Christoph Reimann      : Effective Core Potentials
   Marius Retegan         : Local ZFS, SOC
   Christoph Riplinger    : Optimizer, TS searches, QM/MM, DLPNO-CCSD(T), (RO)-DLPNO pert. Triples
   Michael Roemelt        : Original ROCIS implementation
   Masaaki Saitow         : Open-shell DLPNO-CCSD energy and density
   Barbara Sandhoefer     : DKH picture change effects
   Kantharuban Sivalingam : CASSCF convergence/infrastructure, NEVPT2 and variants, FIC-MRCI
   Bernardo de Souza      : ESD, SOC TD-DFT
   Georgi Stoychev        : AutoAux, RI-MP2 NMR, DLPNO-MP2 response, X2C
   Van Anh Tran           : RI-MP2 g-tensors
   Willem Van den Heuvel  : Paramagnetic NMR
   Zikuan Wang            : NOTCH, Electric field optimization 
   Frank Wennmohs         : Technical directorship and infrastructure
   Hang Xu                : AUTO-CI-Response properties 


 We gratefully acknowledge several colleagues who have allowed us to
 interface, adapt or use parts of their codes:
   Stefan Grimme, W. Hujo, H. Kruse, P. Pracht,  : VdW corrections, initial TS optimization,
                  C. Bannwarth, S. Ehlert,         DFT functionals, gCP, sTDA/sTD-DF
                  L. Wittmann, M. Mueller
   Ed Valeev, F. Pavosevic, A. Kumar             : LibInt (2-el integral package), F12 methods
   Garnet Chan, S. Sharma, J. Yang, R. Olivares  : DMRG
   Ulf Ekstrom                                   : XCFun DFT Library
   Mihaly Kallay                                 : mrcc  (arbitrary order and MRCC methods)
   Frank Weinhold                                : gennbo (NPA and NBO analysis)
   Simon Mueller                                 : openCOSMO-RS
   Christopher J. Cramer and Donald G. Truhlar   : smd solvation model
   Lars Goerigk                                  : TD-DFT with DH, B97 family of functionals
   V. Asgeirsson, H. Jonsson                     : NEB implementation
   FAccTs GmbH                                   : IRC, NEB, NEB-TS, DLPNO-Multilevel, CI-OPT
                                                   MM, QMMM, 2- and 3-layer-ONIOM, Crystal-QMMM,
                                                   LR-CPCM, SF, NACMEs, symmetry and pop. for TD-DFT,
                                                   nearIR, NL-DFT gradient (VV10), updates on ESD,
                                                   ML-optimized integration grids, MBIS, APM,
                                                   GOAT, DOCKER, SOLVATOR, interface openCOSMO-RS
   S Lehtola, MJT Oliveira, MAL Marques          : LibXC Library
   Liviu Ungur et al                             : ANISO software


 Your calculation uses the libint2 library for the computation of 2-el integrals
 For citations please refer to: http://libint.valeyev.net

 Your ORCA version has been built with support for libXC version: 6.2.2
 For citations please refer to: https://libxc.gitlab.io

 This ORCA versions uses:
   CBLAS   interface :  Fast vector & matrix operations
   LAPACKE interface :  Fast linear algebra routines
   SCALAPACK package :  Parallel linear algebra routines
   Shared memory     :  Shared parallel matrices
   BLAS/LAPACK       :  OpenBLAS 0.3.27  USE64BITINT DYNAMIC_ARCH NO_AFFINITY SkylakeX SINGLE_THREADED
        Core in use  :  SkylakeX
   Copyright (c) 2011-2014, The OpenBLAS Project


Warning: RI is on but no J-basis has been assigned. Assigning Def2/J (nothing to worry about!)
================================================================================

----- Orbital basis set information -----
Your calculation utilizes the basis: 6-31G*
   H-He, Li-Ne : W. J. Hehre, R. Ditchfield and J.A. Pople, J. Chem. Phys. 56, 2257 (1972).
                 Note: He and Ne are unpublished basis sets taken from the Gaussian program.
                 Note: Li and B from J. D. Dill and J. A. Pople, J. Chem. Phys. 62, 2921 (1975).
   Na - Ar     : M. M. Francl, W. J. Pietro, W. J. Hehre, J. S. Binkley, M. S. Gordon, 
                 D. J. DeFrees and J. A. Pople, J. Chem. Phys. 77, 3654 (1982).
   K - Zn      : V. A. Rassolov, J. A. Pople, M. A. Ratner, and T. L. Windus, J. Chem. Phys. 109, 1223 (1998).

----- AuxJ basis set information -----
Your calculation utilizes the auxiliary basis: def2/J
   F. Weigend, Phys. Chem. Chem. Phys. 8, 1057 (2006).

================================================================================
                                        WARNINGS
                       Please study these warnings very carefully!
================================================================================


================================================================================
                                       INPUT FILE
================================================================================
NAME = /home/nmrbox/aojoawo/Documents/ERDOS/inputs/CHEMBL3682621.inp
|  1> ! B3LYP 6-31G* SP
|  2> 
|  3> * xyz 0 1
|  4> C 0.1047 -1.0852 -2.4673
|  5> C -1.0564 -0.9558 -1.4836
|  6> C -0.9284 -1.9344 -0.3374
|  7> C -0.9741 -3.3130 -0.6026
|  8> C -0.8036 -4.2388 0.4320
|  9> C -0.8283 -5.6202 0.1858
| 10> C -0.6484 -6.5210 1.2408
| 11> C -0.4436 -6.0492 2.5414
| 12> C -0.4188 -4.6738 2.7943
| 13> C -0.5979 -3.7660 1.7441
| 14> N -0.5843 -2.4305 1.9878
| 15> C -0.7519 -1.5093 1.0003
| 16> N -0.7664 -0.1196 1.3509
| 17> C 0.4503 0.5029 1.8745
| 18> C 1.4616 0.6667 0.7741
| 19> C 1.3523 1.7312 -0.1322
| 20> C 2.2644 1.8591 -1.1827
| 21> C 3.2950 0.9267 -1.3494
| 22> O 4.1768 1.0993 -2.4285
| 23> C 5.2589 0.2298 -2.7542
| 24> F 5.8918 0.7067 -3.8857
| 25> F 6.1709 0.1944 -1.7143
| 26> F 4.7859 -1.0449 -3.0115
| 27> C 3.4032 -0.1445 -0.4410
| 28> C 2.4868 -0.2761 0.6066
| 29> S -2.2970 0.6839 1.5380
| 30> O -3.3790 -0.1147 0.8647
| 31> O -2.6282 0.7933 3.0001
| 32> C -2.2332 2.2895 0.8146
| 33> C -2.5780 2.4745 -0.5303
| 34> C -2.4802 3.7398 -1.1160
| 35> C -2.0406 4.8420 -0.3623
| 36> C -1.9281 6.1780 -0.9876
| 37> O -1.5431 7.1699 -0.3108
| 38> O -2.2445 6.3524 -2.3322
| 39> C -1.7094 4.6531 0.9914
| 40> C -1.8072 3.3865 1.5742
| 41> H 1.0733 -0.9915 -1.9358
| 42> H 0.0711 -2.0643 -2.9888
| 43> H 0.0381 -0.2801 -3.2290
| 44> H -1.0729 0.0899 -1.1218
| 45> H -2.0139 -1.1377 -2.0172
| 46> H -1.1329 -3.6624 -1.6162
| 47> H -0.9845 -6.0008 -0.8165
| 48> H -0.6673 -7.5864 1.0501
| 49> H -0.3054 -6.7503 3.3544
| 50> H -0.2622 -4.3168 3.8047
| 51> H 0.8640 -0.1187 2.6986
| 52> H 0.2238 1.4963 2.3149
| 53> H 0.5595 2.4600 -0.0292
| 54> H 2.1661 2.6845 -1.8761
| 55> H 4.1819 -0.8872 -0.5391
| 56> H 2.5738 -1.1167 1.2838
| 57> H -2.9189 1.6406 -1.1296
| 58> H -2.7466 3.8530 -2.1593
| 59> H -2.1706 7.2624 -2.7707
| 60> H -1.3691 5.4824 1.5994
| 61> H -1.5391 3.2610 2.6153
| 62> *
| 63> 
| 64>                          ****END OF INPUT****
================================================================================

                       ****************************
                       * Single Point Calculation *
                       ****************************

---------------------------------
CARTESIAN COORDINATES (ANGSTROEM)
---------------------------------
  C      0.104700   -1.085200   -2.467300
  C     -1.056400   -0.955800   -1.483600
  C     -0.928400   -1.934400   -0.337400
  C     -0.974100   -3.313000   -0.602600
  C     -0.803600   -4.238800    0.432000
  C     -0.828300   -5.620200    0.185800
  C     -0.648400   -6.521000    1.240800
  C     -0.443600   -6.049200    2.541400
  C     -0.418800   -4.673800    2.794300
  C     -0.597900   -3.766000    1.744100
  N     -0.584300   -2.430500    1.987800
  C     -0.751900   -1.509300    1.000300
  N     -0.766400   -0.119600    1.350900
  C      0.450300    0.502900    1.874500
  C      1.461600    0.666700    0.774100
  C      1.352300    1.731200   -0.132200
  C      2.264400    1.859100   -1.182700
  C      3.295000    0.926700   -1.349400
  O      4.176800    1.099300   -2.428500
  C      5.258900    0.229800   -2.754200
  F      5.891800    0.706700   -3.885700
  F      6.170900    0.194400   -1.714300
  F      4.785900   -1.044900   -3.011500
  C      3.403200   -0.144500   -0.441000
  C      2.486800   -0.276100    0.606600
  S     -2.297000    0.683900    1.538000
  O     -3.379000   -0.114700    0.864700
  O     -2.628200    0.793300    3.000100
  C     -2.233200    2.289500    0.814600
  C     -2.578000    2.474500   -0.530300
  C     -2.480200    3.739800   -1.116000
  C     -2.040600    4.842000   -0.362300
  C     -1.928100    6.178000   -0.987600
  O     -1.543100    7.169900   -0.310800
  O     -2.244500    6.352400   -2.332200
  C     -1.709400    4.653100    0.991400
  C     -1.807200    3.386500    1.574200
  H      1.073300   -0.991500   -1.935800
  H      0.071100   -2.064300   -2.988800
  H      0.038100   -0.280100   -3.229000
  H     -1.072900    0.089900   -1.121800
  H     -2.013900   -1.137700   -2.017200
  H     -1.132900   -3.662400   -1.616200
  H     -0.984500   -6.000800   -0.816500
  H     -0.667300   -7.586400    1.050100
  H     -0.305400   -6.750300    3.354400
  H     -0.262200   -4.316800    3.804700
  H      0.864000   -0.118700    2.698600
  H      0.223800    1.496300    2.314900
  H      0.559500    2.460000   -0.029200
  H      2.166100    2.684500   -1.876100
  H      4.181900   -0.887200   -0.539100
  H      2.573800   -1.116700    1.283800
  H     -2.918900    1.640600   -1.129600
  H     -2.746600    3.853000   -2.159300
  H     -2.170600    7.262400   -2.770700
  H     -1.369100    5.482400    1.599400
  H     -1.539100    3.261000    2.615300

----------------------------
CARTESIAN COORDINATES (A.U.)
----------------------------
  NO LB      ZA    FRAG     MASS         X           Y           Z
   0 C     6.0000    0    12.011    0.197854   -2.050731   -4.662521
   1 C     6.0000    0    12.011   -1.996307   -1.806200   -2.803598
   2 C     6.0000    0    12.011   -1.754422   -3.655486   -0.637594
   3 C     6.0000    0    12.011   -1.840782   -6.260663   -1.138749
   4 C     6.0000    0    12.011   -1.518584   -8.010171    0.816362
   5 C     6.0000    0    12.011   -1.565260  -10.620639    0.351111
   6 C     6.0000    0    12.011   -1.225298  -12.322904    2.344772
   7 C     6.0000    0    12.011   -0.838283  -11.431331    4.802550
   8 C     6.0000    0    12.011   -0.791417   -8.832202    5.280462
   9 C     6.0000    0    12.011   -1.129867   -7.116709    3.295871
  10 N     7.0000    0    14.007   -1.104167   -4.592979    3.756398
  11 C     6.0000    0    12.011   -1.420885   -2.852164    1.890293
  12 N     7.0000    0    14.007   -1.448286   -0.226011    2.552831
  13 C     6.0000    0    12.011    0.850944    0.950343    3.542292
  14 C     6.0000    0    12.011    2.762024    1.259880    1.462837
  15 C     6.0000    0    12.011    2.555477    3.271494   -0.249822
  16 C     6.0000    0    12.011    4.279096    3.513190   -2.234979
  17 C     6.0000    0    12.011    6.226648    1.751209   -2.549996
  18 O     8.0000    0    15.999    7.893008    2.077376   -4.589200
  19 C     6.0000    0    12.011    9.937881    0.434259   -5.204684
  20 F     9.0000    0    18.998   11.133888    1.335469   -7.342909
  21 F     9.0000    0    18.998   11.661311    0.367363   -3.239558
  22 F     9.0000    0    18.998    9.044040   -1.974575   -5.690910
  23 C     6.0000    0    12.011    6.431116   -0.273065   -0.833369
  24 C     6.0000    0    12.011    4.699371   -0.521753    1.146308
  25 S    16.0000    0    32.060   -4.340701    1.292384    2.906399
  26 O     8.0000    0    15.999   -6.385385   -0.216752    1.634046
  27 O     8.0000    0    15.999   -4.966578    1.499120    5.669367
  28 C     6.0000    0    12.011   -4.220136    4.326528    1.539371
  29 C     6.0000    0    12.011   -4.871714    4.676127   -1.002122
  30 C     6.0000    0    12.011   -4.686899    7.067198   -2.108934
  31 C     6.0000    0    12.011   -3.856175    9.150054   -0.684648
  32 C     6.0000    0    12.011   -3.643581   11.674728   -1.866294
  33 O     8.0000    0    15.999   -2.916036   13.549147   -0.587327
  34 O     8.0000    0    15.999   -4.241490   12.004296   -4.407219
  35 C     6.0000    0    12.011   -3.230298    8.793085    1.873474
  36 C     6.0000    0    12.011   -3.415113    6.399558    2.974807
  37 H     1.0000    0     1.008    2.028243   -1.873663   -3.658132
  38 H     1.0000    0     1.008    0.134360   -3.900962   -5.648013
  39 H     1.0000    0     1.008    0.071999   -0.529312   -6.101926
  40 H     1.0000    0     1.008   -2.027487    0.169886   -2.119895
  41 H     1.0000    0     1.008   -3.805719   -2.149941   -3.811956
  42 H     1.0000    0     1.008   -2.140871   -6.920933   -3.054175
  43 H     1.0000    0     1.008   -1.860435  -11.339869   -1.542961
  44 H     1.0000    0     1.008   -1.261014  -14.336218    1.984401
  45 H     1.0000    0     1.008   -0.577122  -12.756218    6.338897
  46 H     1.0000    0     1.008   -0.495486   -8.157570    7.189841
  47 H     1.0000    0     1.008    1.632723   -0.224310    5.099615
  48 H     1.0000    0     1.008    0.422921    2.827597    4.374527
  49 H     1.0000    0     1.008    1.057302    4.648726   -0.055180
  50 H     1.0000    0     1.008    4.093336    5.072970   -3.545315
  51 H     1.0000    0     1.008    7.902646   -1.676565   -1.018751
  52 H     1.0000    0     1.008    4.863777   -2.110257    2.426030
  53 H     1.0000    0     1.008   -5.515922    3.100285   -2.134635
  54 H     1.0000    0     1.008   -5.190322    7.281115   -4.080486
  55 H     1.0000    0     1.008   -4.101840   13.723947   -5.235864
  56 H     1.0000    0     1.008   -2.587224   10.360235    3.022428
  57 H     1.0000    0     1.008   -2.908477    6.162397    4.942201

--------------------------------
INTERNAL COORDINATES (ANGSTROEM)
--------------------------------
 C      0   0   0     0.000000000000     0.00000000     0.00000000
 C      1   0   0     1.527273145184     0.00000000     0.00000000
 C      2   1   0     1.512552941222   111.64982785     0.00000000
 C      3   2   1     1.404620051829   119.28616738   296.40419038
 C      4   3   2     1.398775553833   120.39699726   177.38767537
 C      5   4   3     1.403385367602   121.30489336   180.84152356
 C      6   5   4     1.398867273904   119.95302086   179.69796098
 C      7   6   5     1.398605963093   120.19453147     0.00000000
 C      8   7   6     1.398677450308   120.16298579     0.05836517
 C      9   8   7     1.399677709332   119.98993093   359.93685747
 N     10   9   8     1.357621044327   120.13523062   179.50947925
 C     11  10   9     1.360828956923   122.30436081   179.90010365
 N     12  11  10     1.433316678198   118.69092365   178.04010024
 C     13  12  11     1.463564860196   119.43844187    66.05761572
 C     14  13  12     1.503475403856   110.10123034    72.26564334
 C     15  14  13     1.402314668682   120.21832163    79.62689724
 C     16  15  14     1.397080910327   120.30275597   182.19284367
 C     17  16  15     1.399748195212   120.61405455     0.25264385
 O     18  17  16     1.404214659516   118.16415495   179.53746196
 C     19  18  17     1.425851026580   125.25078224   181.27813739
 F     20  19  18     1.381408075118   108.92188504   179.20732725
 F     20  19  18     1.383614530857   110.13026509   298.46312339
 F     20  19  18     1.383760232121   110.17014948    59.93764118
 C     18  17  16     1.408675704341   119.09719528   359.89734307
 C     24  18  17     1.398060542323   120.29432428     0.40113598
 S     13  12  11     1.738779750285   118.89915744   261.67926231
 O     26  13  12     1.503934456684   109.86187078   341.59407255
 O     26  13  12     1.503129472135   109.40596189   100.47724294
 C     26  13  12     1.762194472809   110.18171005   221.45047802
 C     29  26  13     1.400667001824   120.37098556    89.99858349
 C     30  29  26     1.397710062924   120.31152429   182.34395158
 C     31  30  29     1.405758403852   120.46384227   359.73184939
 C     32  31  30     1.479375658851   120.34683426   179.52694447
 O     33  32  31     1.261011042775   120.44549383   179.49168098
 O     33  32  31     1.392290731133   120.26764608   359.37407926
 C     32  31  30     1.406371337876   118.97336670   359.59250367
 C     36  32  31     1.397675298487   120.43786530     0.45546733
 H      1   2   3     1.108809226152   110.37795346   305.90494786
 H      1   2   3     1.109832428793   110.75551992    66.76507515
 H      1   2   3     1.110319080265   109.56161250   186.28663239
 H      2   1   3     1.106643565020   107.57598931   122.51478975
 H      2   1   3     1.111135824281   109.38686382   238.86071859
 H      4   3   2     1.083827827655   119.85077060   357.97640002
 H      6   5   4     1.083448240573   120.70469272   359.77617736
 H      7   6   5     1.082497510390   119.91215680   180.01699145
 H      8   7   6     1.082409095490   119.91177225   179.96936342
 H      9   8   7     1.082996177279   119.69693062   179.84279188
 H     14  13  12     1.112058928295   109.67215660   310.25415074
 H     14  13  12     1.109999085585   110.66843999   193.18270070
 H     16  15  14     1.081799556295   120.46336939     1.93573763
 H     17  16  15     1.082474761831   119.48395636   179.84222324
 H     24  18  17     1.080555685747   121.29710152   179.69355331
 H     25  24  18     1.082948382888   119.27363833   178.80853813
 H     30  29  26     1.082017795602   120.50313015     2.08139168
 H     31  30  29     1.082708681964   118.76521851   179.57762520
 H     35  33  32     1.012839306109   120.93553557   180.03572046
 H     36  32  31     1.083146610575   120.76077519   180.09734945
 H     37  36  32     1.082366421320   119.26330760   179.46168820

---------------------------
INTERNAL COORDINATES (A.U.)
---------------------------
 C      0   0   0     0.000000000000     0.00000000     0.00000000
 C      1   0   0     2.886127976090     0.00000000     0.00000000
 C      2   1   0     2.858310821967   111.64982785     0.00000000
 C      3   2   1     2.654347220171   119.28616738   296.40419038
 C      4   3   2     2.643302719568   120.39699726   177.38767537
 C      5   4   3     2.652014005121   121.30489336   180.84152356
 C      6   5   4     2.643476045384   119.95302086   179.69796098
 C      7   6   5     2.642982239515   120.19453147     0.00000000
 C      8   7   6     2.643117330773   120.16298579     0.05836517
 C      9   8   7     2.645007546391   119.98993093   359.93685747
 N     10   9   8     2.565531967427   120.13523062   179.50947925
 C     11  10   9     2.571594043694   122.30436081   179.90010365
 N     12  11  10     2.708575984976   118.69092365   178.04010024
 C     13  12  11     2.765736765001   119.43844187    66.05761572
 C     14  13  12     2.841156762375   110.10123034    72.26564334
 C     15  14  13     2.649990677389   120.21832163    79.62689724
 C     16  15  14     2.640100307447   120.30275597   182.19284367
 C     17  16  15     2.645140745402   120.61405455     0.25264385
 O     18  17  16     2.653581139723   118.16415495   179.53746196
 C     19  18  17     2.694467948007   125.25078224   181.27813739
 F     20  19  18     2.610482941160   108.92188504   179.20732725
 F     20  19  18     2.614652538235   110.13026509   298.46312339
 F     20  19  18     2.614927873720   110.17014948    59.93764118
 C     18  17  16     2.662011292713   119.09719528   359.89734307
 C     24  18  17     2.641951543632   120.29432428     0.40113598
 S     13  12  11     3.285817535246   118.89915744   261.67926231
 O     26  13  12     2.842024246500   109.86187078   341.59407255
 O     26  13  12     2.840503046160   109.40596189   100.47724294
 C     26  13  12     3.330064948320   110.18171005   221.45047802
 C     29  26  13     2.646877038269   120.37098556    89.99858349
 C     30  29  26     2.641289233553   120.31152429   182.34395158
 C     31  30  29     2.656498393738   120.46384227   359.73184939
 C     32  31  30     2.795614844417   120.34683426   179.52694447
 O     33  32  31     2.382965522695   120.44549383   179.49168098
 O     33  32  31     2.631048180639   120.26764608   359.37407926
 C     32  31  30     2.657656671183   118.97336670   359.59250367
 C     36  32  31     2.641223538287   120.43786530     0.45546733
 H      1   2   3     2.095345772193   110.37795346   305.90494786
 H      1   2   3     2.097279344963   110.75551992    66.76507515
 H      1   2   3     2.098198982968   109.56161250   186.28663239
 H      2   1   3     2.091253265754   107.57598931   122.51478975
 H      2   1   3     2.099742405479   109.38686382   238.86071859
 H      4   3   2     2.048137770591   119.85077060   357.97640002
 H      6   5   4     2.047420454961   120.70469272   359.77617736
 H      7   6   5     2.045623835288   119.91215680   180.01699145
 H      8   7   6     2.045456755342   119.91177225   179.96936342
 H      9   8   7     2.046566179140   119.69693062   179.84279188
 H     14  13  12     2.101486819259   109.67215660   310.25415074
 H     14  13  12     2.097594280659   110.66843999   193.18270070
 H     16  15  14     2.044304893195   120.46336939     1.93573763
 H     17  16  15     2.045580846741   119.48395636   179.84222324
 H     24  18  17     2.041954318513   121.29710152   179.69355331
 H     25  24  18     2.046475860831   119.27363833   178.80853813
 H     30  29  26     2.044717305717   120.50313015     2.08139168
 H     31  30  29     2.046022891731   118.76521851   179.57762520
 H     35  33  32     1.913988906217   120.93553557   180.03572046
 H     36  32  31     2.046850456872   120.76077519   180.09734945
 H     37  36  32     2.045376112846   119.26330760   179.46168820

---------------------
BASIS SET INFORMATION
---------------------
There are 6 groups of distinct atoms

 Group   1 Type C   : 10s4p1d contracted to 3s2p1d pattern {631/31/1}
 Group   2 Type N   : 10s4p1d contracted to 3s2p1d pattern {631/31/1}
 Group   3 Type O   : 10s4p1d contracted to 3s2p1d pattern {631/31/1}
 Group   4 Type F   : 10s4p1d contracted to 3s2p1d pattern {631/31/1}
 Group   5 Type S   : 16s10p1d contracted to 4s3p1d pattern {6631/631/1}
 Group   6 Type H   : 4s contracted to 2s pattern {31}

Atom   0C    basis set group =>   1
Atom   1C    basis set group =>   1
Atom   2C    basis set group =>   1
Atom   3C    basis set group =>   1
Atom   4C    basis set group =>   1
Atom   5C    basis set group =>   1
Atom   6C    basis set group =>   1
Atom   7C    basis set group =>   1
Atom   8C    basis set group =>   1
Atom   9C    basis set group =>   1
Atom  10N    basis set group =>   2
Atom  11C    basis set group =>   1
Atom  12N    basis set group =>   2
Atom  13C    basis set group =>   1
Atom  14C    basis set group =>   1
Atom  15C    basis set group =>   1
Atom  16C    basis set group =>   1
Atom  17C    basis set group =>   1
Atom  18O    basis set group =>   3
Atom  19C    basis set group =>   1
Atom  20F    basis set group =>   4
Atom  21F    basis set group =>   4
Atom  22F    basis set group =>   4
Atom  23C    basis set group =>   1
Atom  24C    basis set group =>   1
Atom  25S    basis set group =>   5
Atom  26O    basis set group =>   3
Atom  27O    basis set group =>   3
Atom  28C    basis set group =>   1
Atom  29C    basis set group =>   1
Atom  30C    basis set group =>   1
Atom  31C    basis set group =>   1
Atom  32C    basis set group =>   1
Atom  33O    basis set group =>   3
Atom  34O    basis set group =>   3
Atom  35C    basis set group =>   1
Atom  36C    basis set group =>   1
Atom  37H    basis set group =>   6
Atom  38H    basis set group =>   6
Atom  39H    basis set group =>   6
Atom  40H    basis set group =>   6
Atom  41H    basis set group =>   6
Atom  42H    basis set group =>   6
Atom  43H    basis set group =>   6
Atom  44H    basis set group =>   6
Atom  45H    basis set group =>   6
Atom  46H    basis set group =>   6
Atom  47H    basis set group =>   6
Atom  48H    basis set group =>   6
Atom  49H    basis set group =>   6
Atom  50H    basis set group =>   6
Atom  51H    basis set group =>   6
Atom  52H    basis set group =>   6
Atom  53H    basis set group =>   6
Atom  54H    basis set group =>   6
Atom  55H    basis set group =>   6
Atom  56H    basis set group =>   6
Atom  57H    basis set group =>   6
---------------------------------
AUXILIARY/J BASIS SET INFORMATION
---------------------------------
There are 6 groups of distinct atoms

 Group   1 Type C   : 12s5p4d2f1g contracted to 6s4p3d1f1g pattern {711111/2111/211/2/1}
 Group   2 Type N   : 12s5p4d2f1g contracted to 6s4p3d1f1g pattern {711111/2111/211/2/1}
 Group   3 Type O   : 12s5p4d2f1g contracted to 6s4p3d1f1g pattern {711111/2111/211/2/1}
 Group   4 Type F   : 12s5p4d2f1g contracted to 6s4p3d1f1g pattern {711111/2111/211/2/1}
 Group   5 Type S   : 14s5p5d2f1g contracted to 8s4p3d1f1g pattern {71111111/2111/311/2/1}
 Group   6 Type H   : 5s2p1d contracted to 3s1p1d pattern {311/2/1}

Atom   0C    basis set group =>   1
Atom   1C    basis set group =>   1
Atom   2C    basis set group =>   1
Atom   3C    basis set group =>   1
Atom   4C    basis set group =>   1
Atom   5C    basis set group =>   1
Atom   6C    basis set group =>   1
Atom   7C    basis set group =>   1
Atom   8C    basis set group =>   1
Atom   9C    basis set group =>   1
Atom  10N    basis set group =>   2
Atom  11C    basis set group =>   1
Atom  12N    basis set group =>   2
Atom  13C    basis set group =>   1
Atom  14C    basis set group =>   1
Atom  15C    basis set group =>   1
Atom  16C    basis set group =>   1
Atom  17C    basis set group =>   1
Atom  18O    basis set group =>   3
Atom  19C    basis set group =>   1
Atom  20F    basis set group =>   4
Atom  21F    basis set group =>   4
Atom  22F    basis set group =>   4
Atom  23C    basis set group =>   1
Atom  24C    basis set group =>   1
Atom  25S    basis set group =>   5
Atom  26O    basis set group =>   3
Atom  27O    basis set group =>   3
Atom  28C    basis set group =>   1
Atom  29C    basis set group =>   1
Atom  30C    basis set group =>   1
Atom  31C    basis set group =>   1
Atom  32C    basis set group =>   1
Atom  33O    basis set group =>   3
Atom  34O    basis set group =>   3
Atom  35C    basis set group =>   1
Atom  36C    basis set group =>   1
Atom  37H    basis set group =>   6
Atom  38H    basis set group =>   6
Atom  39H    basis set group =>   6
Atom  40H    basis set group =>   6
Atom  41H    basis set group =>   6
Atom  42H    basis set group =>   6
Atom  43H    basis set group =>   6
Atom  44H    basis set group =>   6
Atom  45H    basis set group =>   6
Atom  46H    basis set group =>   6
Atom  47H    basis set group =>   6
Atom  48H    basis set group =>   6
Atom  49H    basis set group =>   6
Atom  50H    basis set group =>   6
Atom  51H    basis set group =>   6
Atom  52H    basis set group =>   6
Atom  53H    basis set group =>   6
Atom  54H    basis set group =>   6
Atom  55H    basis set group =>   6
Atom  56H    basis set group =>   6
Atom  57H    basis set group =>   6
------------------------------------------------------------------------------
                             ORCA STARTUP CALCULATIONS
                           -- RI-GTO INTEGRALS CHOSEN --
------------------------------------------------------------------------------
------------------------------------------------------------------------------
                   ___                                                        
                  /   \      - P O W E R E D   B Y -                         
                 /     \                                                     
                 |  |  |   _    _      __       _____    __    __             
                 |  |  |  | |  | |    /  \     |  _  \  |  |  /  |          
                  \  \/   | |  | |   /    \    | | | |  |  | /  /          
                 / \  \   | |__| |  /  /\  \   | |_| |  |  |/  /          
                |  |  |   |  __  | /  /__\  \  |    /   |      \           
                |  |  |   | |  | | |   __   |  |    \   |  |\   \          
                \     /   | |  | | |  |  |  |  | |\  \  |  | \   \       
                 \___/    |_|  |_| |__|  |__|  |_| \__\ |__|  \__/        
                                                                              
                      - O R C A' S   B I G   F R I E N D -                    
                                      &                                       
                       - I N T E G R A L  F E E D E R -                       
                                                                              
 v1 FN, 2020, v2 2021, v3 2022-2024                                           
------------------------------------------------------------------------------


----------------------
SHARK INTEGRAL PACKAGE
----------------------

Number of atoms                             ...     58
Number of basis functions                   ...    564
Number of shells                            ...    266
Maximum angular momentum                    ...      2
Integral batch strategy                     ... SHARK/LIBINT Hybrid
RI-J (if used) integral strategy            ... SPLIT-RIJ (Revised 2003 algorithm where possible)
Printlevel                                  ...      1
Contraction scheme used                     ... SEGMENTED contraction
Prescreening option                         ... SCHWARTZ
   Thresh                                   ... 1.000e-10
   Tcut                                     ... 1.000e-11
   Tpresel                                  ... 1.000e-11 
Coulomb Range Separation                    ... NOT USED
Exchange Range Separation                   ... NOT USED
Multipole approximations                    ... NOT USED
Finite Nucleus Model                        ... NOT USED
CABS basis                                  ... NOT available
Auxiliary Coulomb fitting basis             ... AVAILABLE
   # of basis functions in Aux-J            ...   2046
   # of shells in Aux-J                     ...    662
   Maximum angular momentum in Aux-J        ...      4
Auxiliary J/K fitting basis                 ... NOT available
Auxiliary Correlation fitting basis         ... NOT available
Auxiliary 'external' fitting basis          ... NOT available

Checking pre-screening integrals            ... done (  0.0 sec) Dimension = 266
Check shell pair data                       ... done (  0.0 sec)
Shell pair information
Shell pair cut-off parameter TPreSel        ...   1.0e-11
Total number of shell pairs                 ...     35511
Shell pairs after pre-screening             ...     19474
Total number of primitive shell pairs       ...    213096
Primitive shell pairs kept                  ...     58730
          la=0 lb=0:   6232 shell pairs
          la=1 lb=0:   6909 shell pairs
          la=1 lb=1:   1919 shell pairs
          la=2 lb=0:   2610 shell pairs
          la=2 lb=1:   1525 shell pairs
          la=2 lb=2:    279 shell pairs

Calculating one electron integrals          ... done (  0.2 sec)
Calculating RI/J V-Matrix + Cholesky decomp.... done (  0.4 sec)
Calculating Nuclear repulsion               ... done (  0.0 sec) ENN=   4281.925116554039 Eh

Diagonalization of the overlap matrix:
Smallest eigenvalue                        ... 3.930e-04
Time for diagonalization                   ...    0.040 sec
Threshold for overlap eigenvalues          ... 1.000e-07
Number of eigenvalues below threshold      ... 0
Time for construction of square roots      ...    0.036 sec
Total time needed                          ...    0.085 sec

-------------------
DFT GRID GENERATION
-------------------

General Integration Accuracy     IntAcc      ... 4.388
Radial Grid Type                 RadialGrid  ... OptM3 with GC (2021)
Angular Grid (max. ang.)         AngularGrid ... 4 (Lebedev-302)
Angular grid pruning method      GridPruning ... 4 (adaptive)
Weight generation scheme         WeightScheme... mBecke (2022)
Basis function cutoff            BFCut       ... 1.0000e-10
Integration weight cutoff        WCut        ... 1.0000e-14
Partially contracted basis set               ... off
Rotationally invariant grid construction     ... off
Angular grids for H and He will be reduced by one unit

Total number of grid points                  ...   288516
Total number of batches                      ...     4537
Average number of points per batch           ...       63
Average number of grid points per atom       ...     4974

--------------------
COSX GRID GENERATION
--------------------

GRIDX 1
-------
General Integration Accuracy     IntAcc      ... 3.816
Radial Grid Type                 RadialGrid  ... OptM3 with GC (2021)
Angular Grid (max. ang.)         AngularGrid ... 1 (Lebedev-50)
Angular grid pruning method      GridPruning ... 4 (adaptive)
Weight generation scheme         WeightScheme... mBecke (2022)
Basis function cutoff            BFCut       ... 1.0000e-10
Integration weight cutoff        WCut        ... 1.0000e-14
Partially contracted basis set               ... on
Rotationally invariant grid construction     ... off
Angular grids for H and He will be reduced by one unit

Total number of grid points                  ...    37484
Total number of batches                      ...      325
Average number of points per batch           ...      115
Average number of grid points per atom       ...      646
UseSFitting                                  ... on

GRIDX 2
-------
General Integration Accuracy     IntAcc      ... 4.020
Radial Grid Type                 RadialGrid  ... OptM3 with GC (2021)
Angular Grid (max. ang.)         AngularGrid ... 2 (Lebedev-110)
Angular grid pruning method      GridPruning ... 4 (adaptive)
Weight generation scheme         WeightScheme... mBecke (2022)
Basis function cutoff            BFCut       ... 1.0000e-10
Integration weight cutoff        WCut        ... 1.0000e-14
Partially contracted basis set               ... on
Rotationally invariant grid construction     ... off
Angular grids for H and He will be reduced by one unit

Total number of grid points                  ...    79986
Total number of batches                      ...      655
Average number of points per batch           ...      122
Average number of grid points per atom       ...     1379
UseSFitting                                  ... on

GRIDX 3
-------
General Integration Accuracy     IntAcc      ... 4.338
Radial Grid Type                 RadialGrid  ... OptM3 with GC (2021)
Angular Grid (max. ang.)         AngularGrid ... 3 (Lebedev-194)
Angular grid pruning method      GridPruning ... 4 (adaptive)
Weight generation scheme         WeightScheme... mBecke (2022)
Basis function cutoff            BFCut       ... 1.0000e-10
Integration weight cutoff        WCut        ... 1.0000e-14
Partially contracted basis set               ... on
Rotationally invariant grid construction     ... off
Angular grids for H and He will be reduced by one unit

Total number of grid points                  ...   175441
Total number of batches                      ...     1397
Average number of points per batch           ...      125
Average number of grid points per atom       ...     3025
UseSFitting                                  ... on
Initializing property integral containers    ... done (  0.0 sec)

SHARK setup successfully completed in  11.6 seconds

Maximum memory used throughout the entire STARTUP-calculation: 127.4 MB
-------------------------------------------------------------------------------
                                 ORCA GUESS
                   Start orbitals & Density for SCF / CASSCF
-------------------------------------------------------------------------------

------------
SCF SETTINGS
------------
Hamiltonian:
 Density Functional     Method          .... DFT(GTOs)
 Exchange Functional    Exchange        .... B88
   X-Alpha parameter    XAlpha          ....  0.666667
   Becke's b parameter  XBeta           ....  0.004200
 Correlation Functional Correlation     .... LYP
 LDA part of GGA corr.  LDAOpt          .... VWN-5
 Gradients option       PostSCFGGA      .... off
 Hybrid DFT is turned on
   Fraction HF Exchange ScalHFX         ....  0.200000
   Scaling of DF-GGA-X  ScalDFX         ....  0.720000
   Scaling of DF-GGA-C  ScalDFC         ....  0.810000
   Scaling of DF-LDA-C  ScalLDAC        ....  1.000000
   Perturbative correction              ....  0.000000
   NL short-range parameter             ....  4.800000
 RI-approximation to the Coulomb term is turned on
   Number of AuxJ basis functions       .... 2046
   RIJ-COSX (HFX calculated with COS-X)).... on


General Settings:
 Integral files         IntName         .... /home/nmrbox/aojoawo/Documents/ERDOS/inputs/CHEMBL3682621
 Hartree-Fock type      HFTyp           .... RHF
 Total Charge           Charge          ....    0
 Multiplicity           Mult            ....    1
 Number of Electrons    NEL             ....  274
 Basis Dimension        Dim             ....  564
 Nuclear Repulsion      ENuc            ....   4281.9251165540 Eh

Convergence Acceleration:
 AO-DIIS                CNVDIIS         .... on
   Start iteration      DIISMaxIt       ....    12
   Startup error        DIISStart       ....  0.200000
   # of expansion vecs  DIISMaxEq       ....     5
   Bias factor          DIISBfac        ....   1.050
   Max. coefficient     DIISMaxC        ....  10.000
 MO-DIIS                CNVKDIIS        .... off
 Trust-Rad. Augm. Hess. CNVTRAH         .... auto
   Auto Start mean grad. ratio tolernc. ....  1.125000
   Auto Start start iteration           ....    50
   Auto Start num. interpolation iter.  ....    10
   Max. Number of Micro iterations      ....    24
   Max. Number of Macro iterations      .... Maxiter - #DIIS iter
   Number of Davidson start vectors     ....     2
   Converg. threshold    (grad. norm)   ....   5.000e-05
   Grad. Scal. Fac. for Micro threshold ....   0.100
   Minimum threshold for Micro iter.    ....   1.000e-02
   NR start threshold (gradient norm)   ....   1.000e-04
   Initial trust radius                 ....   0.400
   Minimum AH scaling param. (alpha)    ....   1.000
   Maximum AH scaling param. (alpha)    .... 1000.000
   Quad. conv. algorithm                .... NR
   White noise on init. David. guess    .... on
   Maximum white noise                  ....   0.010
   Pseudo random numbers                .... off
   Inactive MOs                         .... canonical
   Orbital update algorithm             .... Taylor
   Preconditioner                       .... Diag
   Full preconditioner red. dimension   ....   250
 SOSCF                  CNVSOSCF        .... on
   Start iteration      SOSCFMaxIt      ....   150
   Startup grad/error   SOSCFStart      ....  0.003300
   Hessian update       SOSCFHessUp     .... L-BFGS
 Level Shifting         CNVShift        .... on
   Level shift para.    LevelShift      ....    0.2500
   Turn off err/grad.   ShiftErr        ....    0.0010
 Zerner damping         CNVZerner       .... off
 Static damping         CNVDamp         .... on
   Fraction old density DampFac         ....    0.7000
   Max. Damping (<1)    DampMax         ....    0.9800
   Min. Damping (>=0)   DampMin         ....    0.0000
   Turn off err/grad.   DampErr         ....    0.1000

SCF Procedure:
 Maximum # iterations   MaxIter         ....   125
 SCF integral mode      SCFMode         .... Direct
   Integral package                     .... SHARK and LIBINT hybrid scheme
 Reset frequency        DirectResetFreq ....    20
 Integral Threshold     Thresh          ....  1.000e-10 Eh
 Primitive CutOff       TCut            ....  1.000e-11 Eh

Convergence Tolerance:
 Convergence Check Mode ConvCheckMode   .... Total+1el-Energy
 Convergence forced     ConvForced      .... 0
 Energy Change          TolE            ....  1.000e-06 Eh
 1-El. energy change                    ....  1.000e-03 Eh
 Orbital Gradient       TolG            ....  5.000e-05
 Orbital Rotation angle TolX            ....  5.000e-05
 DIIS Error             TolErr          ....  1.000e-06

------------------------------
INITIAL GUESS: MODEL POTENTIAL
------------------------------
Loading Hartree-Fock densities                     ... done
Calculating cut-offs                               ... done
Initializing the effective Hamiltonian             ... done
Setting up the integral package (SHARK)            ... done
Starting the Coulomb interaction                   ... done (   3.1 sec)
Making the grid                                    ... done (   1.4 sec)
Mapping shells                                     ... done
Starting the XC term evaluation                    ... done (   1.3 sec)
  promolecular density results
     # of electrons  =    273.994407082
     EX              =   -249.237450350
     EC              =     -9.654838584
     EX+EC           =   -258.892288934
Transforming the Hamiltonian                       ... done (   0.0 sec)
Diagonalizing the Hamiltonian                      ... done (   0.1 sec)
Back transforming the eigenvectors                 ... done (   0.0 sec)
Now organizing SCF variables                       ... done
                      ------------------
                      INITIAL GUESS DONE (   6.0 sec)
                      ------------------
             **** ENERGY FILE WAS UPDATED (/home/nmrbox/aojoawo/Documents/ERDOS/inputs/CHEMBL3682621.en.tmp) ****
Finished Guess after   6.2 sec
Maximum memory used throughout the entire GUESS-calculation: 70.9 MB

-------------------------------------------------------------------------------------------
                                      ORCA LEAN-SCF
                              memory conserving SCF solver
-------------------------------------------------------------------------------------------

----------------------------------------D-I-I-S--------------------------------------------
Iteration    Energy (Eh)           Delta-E    RMSDP     MaxDP     DIISErr   Damp  Time(sec)
-------------------------------------------------------------------------------------------
               ***  Starting incremental Fock matrix formation  ***
    1    -2184.5165189830286181     0.00e+00  2.43e-03  1.92e-01  2.97e-01  0.700  58.5
Warning: op=0 Small HOMO/LUMO gap (   0.097) - skipping pre-diagonalization
         Will do a full diagonalization
    2    -2185.0391390532095102    -5.23e-01  1.39e-03  6.76e-02  9.77e-02  0.700  26.4
                               ***Turning on AO-DIIS***
    3    -2185.2244615488325508    -1.85e-01  5.40e-04  1.86e-02  3.82e-02  0.700  25.6
    4    -2185.3397608093391682    -1.15e-01  9.00e-04  2.67e-02  1.71e-02  0.000  23.4
    5    -2185.5984552247318788    -2.59e-01  2.15e-04  8.26e-03  7.05e-03  0.000  26.0
                              *** Initializing SOSCF ***
---------------------------------------S-O-S-C-F--------------------------------------
Iteration    Energy (Eh)           Delta-E    RMSDP     MaxDP     MaxGrad    Time(sec)
--------------------------------------------------------------------------------------
    6    -2185.5999535850332904    -1.50e-03  7.07e-05  3.05e-03  2.34e-03    21.8
               *** Restarting incremental Fock matrix formation ***
    7    -2185.6001091476709917    -1.56e-04  6.71e-05  4.25e-03  5.93e-04    59.3
    8    -2185.6000488961435622     6.03e-05  4.24e-05  2.59e-03  1.00e-03    33.5
    9    -2185.6001392583557390    -9.04e-05  1.36e-05  1.04e-03  1.10e-04    30.2
   10    -2185.6001361621474643     3.10e-06  8.54e-06  6.44e-04  2.40e-04    24.7
   11    -2185.6001405479591995    -4.39e-06  2.75e-06  1.38e-04  2.17e-05    22.0
   12    -2185.6001404907856340     5.72e-08  1.65e-06  1.03e-04  4.75e-05    19.2
                 **** Energy Check signals convergence ****

               *****************************************************
               *                     SUCCESS                       *
               *           SCF CONVERGED AFTER  12 CYCLES          *
               *****************************************************

Recomputing exchange energy using gridx3       ... done (  102.454 sec)
Old exchange energy                            :    -50.354276830 Eh
New exchange energy                            :    -50.354307268 Eh
Exchange energy change after final integration :     -0.000030438 Eh
Total energy after final integration           :  -2185.600170928 Eh
             **** ENERGY FILE WAS UPDATED (/home/nmrbox/aojoawo/Documents/ERDOS/inputs/CHEMBL3682621.en.tmp) ****

----------------
TOTAL SCF ENERGY
----------------

Total Energy       :      -2185.60017092849148 Eh          -59473.20421 eV

Components:
Nuclear Repulsion  :       4281.92511655403905 Eh          116517.10604 eV
Electronic Energy  :      -6467.52525704482468 Eh         -175990.30942 eV
One Electron Energy:     -11516.85695298645260 Eh         -313389.61011 eV
Two Electron Energy:       5049.33169594162791 Eh          137399.30069 eV

Virial components:
Potential Energy   :      -4358.81668057753632 Eh         -118609.43187 eV
Kinetic Energy     :       2173.21650964904438 Eh           59136.22766 eV
Virial Ratio       :          2.00569830995875

DFT components:
N(Alpha)           :      137.000101396044 electrons
N(Beta)            :      137.000101396044 electrons
N(Total)           :      274.000202792088 electrons
E(X)               :     -200.190753714203 Eh       
E(C)               :      -11.335898502897 Eh       
E(XC)              :     -211.526652217100 Eh       

---------------
SCF CONVERGENCE
---------------

  Last Energy change         ...   -5.7174e-08  Tolerance :   1.0000e-06
  Last MAX-Density change    ...    1.0312e-04  Tolerance :   1.0000e-05
  Last RMS-Density change    ...    1.6465e-06  Tolerance :   1.0000e-06
  Last DIIS Error            ...    2.3351e-03  Tolerance :   1.0000e-06
  Last Orbital Gradient      ...    4.7545e-05  Tolerance :   5.0000e-05
  Last Orbital Rotation      ...    1.0954e-04  Tolerance :   5.0000e-05


----------------
ORBITAL ENERGIES
----------------

  NO   OCC          E(Eh)            E(eV) 
   0   2.0000     -89.100113     -2424.5373 
   1   2.0000     -24.745319      -673.3544 
   2   2.0000     -24.743225      -673.2974 
   3   2.0000     -24.742985      -673.2909 
   4   2.0000     -19.218138      -522.9521 
   5   2.0000     -19.202947      -522.5388 
   6   2.0000     -19.145190      -520.9671 
   7   2.0000     -19.128053      -520.5008 
   8   2.0000     -19.123940      -520.3889 
   9   2.0000     -14.372812      -391.1041 
  10   2.0000     -14.327334      -389.8666 
  11   2.0000     -10.508448      -285.9494 
  12   2.0000     -10.342645      -281.4377 
  13   2.0000     -10.275323      -279.6058 
  14   2.0000     -10.263989      -279.2973 
  15   2.0000     -10.251258      -278.9509 
  16   2.0000     -10.241158      -278.6761 
  17   2.0000     -10.236315      -278.5443 
  18   2.0000     -10.229429      -278.3569 
  19   2.0000     -10.228408      -278.3291 
  20   2.0000     -10.226328      -278.2725 
  21   2.0000     -10.226133      -278.2672 
  22   2.0000     -10.218787      -278.0673 
  23   2.0000     -10.204378      -277.6752 
  24   2.0000     -10.203675      -277.6561 
  25   2.0000     -10.203143      -277.6416 
  26   2.0000     -10.202906      -277.6352 
  27   2.0000     -10.202733      -277.6305 
  28   2.0000     -10.201932      -277.6087 
  29   2.0000     -10.198298      -277.5098 
  30   2.0000     -10.194831      -277.4154 
  31   2.0000     -10.190285      -277.2918 
  32   2.0000     -10.189726      -277.2765 
  33   2.0000     -10.189496      -277.2703 
  34   2.0000     -10.184697      -277.1397 
  35   2.0000     -10.183834      -277.1162 
  36   2.0000     -10.172367      -276.8042 
  37   2.0000      -8.135955      -221.3906 
  38   2.0000      -6.100943      -166.0151 
  39   2.0000      -6.099055      -165.9637 
  40   2.0000      -6.098530      -165.9495 
  41   2.0000      -1.308194       -35.5978 
  42   2.0000      -1.228908       -33.4403 
  43   2.0000      -1.228456       -33.4280 
  44   2.0000      -1.088103       -29.6088 
  45   2.0000      -1.087758       -29.5994 
  46   2.0000      -1.084608       -29.5137 
  47   2.0000      -1.001973       -27.2651 
  48   2.0000      -0.963500       -26.2182 
  49   2.0000      -0.962483       -26.1905 
  50   2.0000      -0.917621       -24.9697 
  51   2.0000      -0.899170       -24.4677 
  52   2.0000      -0.871394       -23.7118 
  53   2.0000      -0.845615       -23.0104 
  54   2.0000      -0.821223       -22.3466 
  55   2.0000      -0.814856       -22.1734 
  56   2.0000      -0.791304       -21.5325 
  57   2.0000      -0.785492       -21.3743 
  58   2.0000      -0.773141       -21.0382 
  59   2.0000      -0.765855       -20.8400 
  60   2.0000      -0.748492       -20.3675 
  61   2.0000      -0.732972       -19.9452 
  62   2.0000      -0.723587       -19.6898 
  63   2.0000      -0.712188       -19.3796 
  64   2.0000      -0.685600       -18.6561 
  65   2.0000      -0.665509       -18.1094 
  66   2.0000      -0.649876       -17.6840 
  67   2.0000      -0.644690       -17.5429 
  68   2.0000      -0.639418       -17.3994 
  69   2.0000      -0.628139       -17.0925 
  70   2.0000      -0.621630       -16.9154 
  71   2.0000      -0.606224       -16.4962 
  72   2.0000      -0.600346       -16.3362 
  73   2.0000      -0.598984       -16.2992 
  74   2.0000      -0.595562       -16.2061 
  75   2.0000      -0.592214       -16.1150 
  76   2.0000      -0.579945       -15.7811 
  77   2.0000      -0.564276       -15.3547 
  78   2.0000      -0.546070       -14.8593 
  79   2.0000      -0.532578       -14.4922 
  80   2.0000      -0.523700       -14.2506 
  81   2.0000      -0.503911       -13.7121 
  82   2.0000      -0.498683       -13.5699 
  83   2.0000      -0.495103       -13.4724 
  84   2.0000      -0.494329       -13.4514 
  85   2.0000      -0.483729       -13.1629 
  86   2.0000      -0.480785       -13.0828 
  87   2.0000      -0.474236       -12.9046 
  88   2.0000      -0.473650       -12.8887 
  89   2.0000      -0.468680       -12.7534 
  90   2.0000      -0.466673       -12.6988 
  91   2.0000      -0.465271       -12.6607 
  92   2.0000      -0.458336       -12.4720 
  93   2.0000      -0.455920       -12.4062 
  94   2.0000      -0.451069       -12.2742 
  95   2.0000      -0.449962       -12.2441 
  96   2.0000      -0.448640       -12.2081 
  97   2.0000      -0.442390       -12.0381 
  98   2.0000      -0.440942       -11.9987 
  99   2.0000      -0.438225       -11.9247 
 100   2.0000      -0.434695       -11.8287 
 101   2.0000      -0.428913       -11.6713 
 102   2.0000      -0.423244       -11.5171 
 103   2.0000      -0.420508       -11.4426 
 104   2.0000      -0.419026       -11.4023 
 105   2.0000      -0.415719       -11.3123 
 106   2.0000      -0.412067       -11.2129 
 107   2.0000      -0.410947       -11.1824 
 108   2.0000      -0.407208       -11.0807 
 109   2.0000      -0.398872       -10.8539 
 110   2.0000      -0.393134       -10.6977 
 111   2.0000      -0.389876       -10.6091 
 112   2.0000      -0.380091       -10.3428 
 113   2.0000      -0.377649       -10.2763 
 114   2.0000      -0.375900       -10.2287 
 115   2.0000      -0.367831       -10.0092 
 116   2.0000      -0.360096        -9.7987 
 117   2.0000      -0.355354        -9.6697 
 118   2.0000      -0.353294        -9.6136 
 119   2.0000      -0.346791        -9.4367 
 120   2.0000      -0.341976        -9.3056 
 121   2.0000      -0.337773        -9.1913 
 122   2.0000      -0.327352        -8.9077 
 123   2.0000      -0.324061        -8.8182 
 124   2.0000      -0.310726        -8.4553 
 125   2.0000      -0.300686        -8.1821 
 126   2.0000      -0.296698        -8.0736 
 127   2.0000      -0.292187        -7.9508 
 128   2.0000      -0.286792        -7.8040 
 129   2.0000      -0.281657        -7.6643 
 130   2.0000      -0.274942        -7.4815 
 131   2.0000      -0.269370        -7.3299 
 132   2.0000      -0.264290        -7.1917 
 133   2.0000      -0.251937        -6.8556 
 134   2.0000      -0.248048        -6.7497 
 135   2.0000      -0.236206        -6.4275 
 136   2.0000      -0.222340        -6.0502 
 137   0.0000      -0.092431        -2.5152 
 138   0.0000      -0.062897        -1.7115 
 139   0.0000      -0.041994        -1.1427 
 140   0.0000      -0.024831        -0.6757 
 141   0.0000      -0.018547        -0.5047 
 142   0.0000      -0.016994        -0.4624 
 143   0.0000       0.006264         0.1705 
 144   0.0000       0.019611         0.5337 
 145   0.0000       0.033091         0.9005 
 146   0.0000       0.040965         1.1147 
 147   0.0000       0.052846         1.4380 
*Only the first 10 virtual orbitals were printed.

                    ********************************
                    * MULLIKEN POPULATION ANALYSIS *
                    ********************************

-----------------------
MULLIKEN ATOMIC CHARGES
-----------------------
   0 C :   -0.441248
   1 C :   -0.339126
   2 C :    0.179733
   3 C :   -0.214739
   4 C :    0.176327
   5 C :   -0.204947
   6 C :   -0.128729
   7 C :   -0.131659
   8 C :   -0.145966
   9 C :    0.206909
  10 N :   -0.446737
  11 C :    0.330427
  12 N :   -0.612883
  13 C :   -0.250502
  14 C :    0.169434
  15 C :   -0.168003
  16 C :   -0.171995
  17 C :    0.355538
  18 O :   -0.545317
  19 C :    1.086570
  20 F :   -0.278309
  21 F :   -0.290499
  22 F :   -0.290985
  23 C :   -0.192730
  24 C :   -0.173598
  25 S :    1.210099
  26 O :   -0.551035
  27 O :   -0.523614
  28 C :   -0.137661
  29 C :   -0.139085
  30 C :   -0.150912
  31 C :    0.082801
  32 C :    0.529869
  33 O :   -0.440913
  34 O :   -0.622964
  35 C :   -0.140398
  36 C :   -0.153361
  37 H :    0.162335
  38 H :    0.139089
  39 H :    0.138717
  40 H :    0.141555
  41 H :    0.154734
  42 H :    0.139222
  43 H :    0.132541
  44 H :    0.133701
  45 H :    0.136048
  46 H :    0.145900
  47 H :    0.188669
  48 H :    0.166964
  49 H :    0.142734
  50 H :    0.149839
  51 H :    0.156384
  52 H :    0.152986
  53 H :    0.190581
  54 H :    0.176827
  55 H :    0.436520
  56 H :    0.185060
  57 H :    0.189803
Sum of atomic charges:    0.0000000

--------------------------------
MULLIKEN REDUCED ORBITAL CHARGES
--------------------------------
  0 C s       :     3.306063  s :     3.306063
      pz      :     1.024543  p :     3.100463
      px      :     1.015663
      py      :     1.060256
      dz2     :     0.002636  d :     0.034722
      dxz     :     0.008431
      dyz     :     0.011307
      dx2y2   :     0.010905
      dxy     :     0.001443

  1 C s       :     3.268321  s :     3.268321
      pz      :     0.998075  p :     3.030184
      px      :     0.996230
      py      :     1.035879
      dz2     :     0.005785  d :     0.040620
      dxz     :     0.010332
      dyz     :     0.009587
      dx2y2   :     0.011929
      dxy     :     0.002987

  2 C s       :     3.151326  s :     3.151326
      pz      :     0.835608  p :     2.629544
      px      :     0.939743
      py      :     0.854193
      dz2     :     0.010558  d :     0.039397
      dxz     :     0.005802
      dyz     :     0.011604
      dx2y2   :     0.005944
      dxy     :     0.005489

  3 C s       :     3.218122  s :     3.218122
      pz      :     0.984144  p :     2.960290
      px      :     0.978157
      py      :     0.997988
      dz2     :     0.010548  d :     0.036327
      dxz     :     0.002674
      dyz     :     0.011869
      dx2y2   :     0.005176
      dxy     :     0.006059

  4 C s       :     3.114139  s :     3.114139
      pz      :     0.831117  p :     2.667373
      px      :     0.957887
      py      :     0.878369
      dz2     :     0.010499  d :     0.042160
      dxz     :     0.005444
      dyz     :     0.013093
      dx2y2   :     0.005985
      dxy     :     0.007139

  5 C s       :     3.206891  s :     3.206891
      pz      :     0.977465  p :     2.961975
      px      :     1.000693
      py      :     0.983817
      dz2     :     0.010653  d :     0.036080
      dxz     :     0.002864
      dyz     :     0.011427
      dx2y2   :     0.005526
      dxy     :     0.005610

  6 C s       :     3.196512  s :     3.196512
      pz      :     0.931465  p :     2.895905
      px      :     0.981190
      py      :     0.983251
      dz2     :     0.010632  d :     0.036313
      dxz     :     0.006031
      dyz     :     0.010312
      dx2y2   :     0.007054
      dxy     :     0.002283

  7 C s       :     3.197765  s :     3.197765
      pz      :     0.947182  p :     2.897614
      px      :     0.982396
      py      :     0.968036
      dz2     :     0.008399  d :     0.036280
      dxz     :     0.003981
      dyz     :     0.014296
      dx2y2   :     0.005004
      dxy     :     0.004601

  8 C s       :     3.208545  s :     3.208545
      pz      :     0.983067  p :     2.902576
      px      :     0.979627
      py      :     0.939882
      dz2     :     0.009461  d :     0.034845
      dxz     :     0.002732
      dyz     :     0.012206
      dx2y2   :     0.004656
      dxy     :     0.005790

  9 C s       :     3.069063  s :     3.069063
      pz      :     0.905987  p :     2.663797
      px      :     0.961728
      py      :     0.796082
      dz2     :     0.013112  d :     0.060232
      dxz     :     0.005952
      dyz     :     0.021916
      dx2y2   :     0.009591
      dxy     :     0.009660

 10 N s       :     3.716276  s :     3.716276
      pz      :     1.500529  p :     3.695084
      px      :     1.143719
      py      :     1.050836
      dz2     :     0.006570  d :     0.035377
      dxz     :     0.005741
      dyz     :     0.010884
      dx2y2   :     0.005523
      dxy     :     0.006659

 11 C s       :     3.049300  s :     3.049300
      pz      :     0.883469  p :     2.546351
      px      :     0.990342
      py      :     0.672541
      dz2     :     0.019859  d :     0.073922
      dxz     :     0.008445
      dyz     :     0.025995
      dx2y2   :     0.012585
      dxy     :     0.007038

 12 N s       :     3.594501  s :     3.594501
      pz      :     1.682446  p :     3.985354
      px      :     1.099269
      py      :     1.203639
      dz2     :     0.003716  d :     0.033028
      dxz     :     0.005279
      dyz     :     0.004080
      dx2y2   :     0.009243
      dxy     :     0.010711

 13 C s       :     3.268769  s :     3.268769
      pz      :     1.002436  p :     2.926406
      px      :     0.865570
      py      :     1.058399
      dz2     :     0.008256  d :     0.055328
      dxz     :     0.016239
      dyz     :     0.009893
      dx2y2   :     0.010432
      dxy     :     0.010506

 14 C s       :     3.114523  s :     3.114523
      pz      :     0.883677  p :     2.676070
      px      :     0.890538
      py      :     0.901854
      dz2     :     0.006992  d :     0.039973
      dxz     :     0.008262
      dyz     :     0.008396
      dx2y2   :     0.008295
      dxy     :     0.008028

 15 C s       :     3.200335  s :     3.200335
      pz      :     0.960015  p :     2.931285
      px      :     0.986976
      py      :     0.984295
      dz2     :     0.009113  d :     0.036384
      dxz     :     0.006309
      dyz     :     0.006637
      dx2y2   :     0.004723
      dxy     :     0.009602

 16 C s       :     3.195636  s :     3.195636
      pz      :     0.994610  p :     2.941712
      px      :     0.970376
      py      :     0.976726
      dz2     :     0.005842  d :     0.034647
      dxz     :     0.005475
      dyz     :     0.009400
      dx2y2   :     0.007301
      dxy     :     0.006630

 17 C s       :     3.073520  s :     3.073520
      pz      :     0.765131  p :     2.505570
      px      :     0.811084
      py      :     0.929355
      dz2     :     0.015439  d :     0.065372
      dxz     :     0.016000
      dyz     :     0.011166
      dx2y2   :     0.011731
      dxy     :     0.011036

 18 O s       :     3.884864  s :     3.884864
      pz      :     1.576483  p :     4.634497
      px      :     1.419353
      py      :     1.638661
      dz2     :     0.006147  d :     0.025956
      dxz     :     0.004569
      dyz     :     0.004363
      dx2y2   :     0.003560
      dxy     :     0.007316

 19 C s       :     2.715899  s :     2.715899
      pz      :     0.645835  p :     2.032790
      px      :     0.707323
      py      :     0.679632
      dz2     :     0.032030  d :     0.164741
      dxz     :     0.038525
      dyz     :     0.028224
      dx2y2   :     0.031134
      dxy     :     0.034828

 20 F s       :     3.979152  s :     3.979152
      pz      :     1.611171  p :     5.282943
      px      :     1.813232
      py      :     1.858540
      dz2     :     0.004720  d :     0.016214
      dxz     :     0.004805
      dyz     :     0.003766
      dx2y2   :     0.001268
      dxy     :     0.001655

 21 F s       :     3.982263  s :     3.982263
      pz      :     1.658939  p :     5.291966
      px      :     1.724819
      py      :     1.908207
      dz2     :     0.003715  d :     0.016271
      dxz     :     0.006512
      dyz     :     0.002041
      dx2y2   :     0.002246
      dxy     :     0.001758

 22 F s       :     3.982187  s :     3.982187
      pz      :     1.893376  p :     5.292528
      px      :     1.858017
      py      :     1.541136
      dz2     :     0.002260  d :     0.016270
      dxz     :     0.000881
      dyz     :     0.003614
      dx2y2   :     0.004843
      dxy     :     0.004672

 23 C s       :     3.185124  s :     3.185124
      pz      :     0.982720  p :     2.973059
      px      :     1.017523
      py      :     0.972816
      dz2     :     0.008112  d :     0.034546
      dxz     :     0.005655
      dyz     :     0.007090
      dx2y2   :     0.004814
      dxy     :     0.008876

 24 C s       :     3.201999  s :     3.201999
      pz      :     0.984691  p :     2.935155
      px      :     0.965061
      py      :     0.985402
      dz2     :     0.005830  d :     0.036444
      dxz     :     0.006493
      dyz     :     0.009550
      dx2y2   :     0.008184
      dxy     :     0.006386

 25 S s       :     5.213200  s :     5.213200
      pz      :     2.993097  p :     9.042040
      px      :     2.996523
      py      :     3.052420
      dz2     :     0.129241  d :     0.534660
      dxz     :     0.110749
      dyz     :     0.115251
      dx2y2   :     0.096780
      dxy     :     0.082640

 26 O s       :     3.928662  s :     3.928662
      pz      :     1.651704  p :     4.595373
      px      :     1.377181
      py      :     1.566488
      dz2     :     0.003790  d :     0.027001
      dxz     :     0.005809
      dyz     :     0.003636
      dx2y2   :     0.006964
      dxy     :     0.006801

 27 O s       :     3.922953  s :     3.922953
      pz      :     1.248251  p :     4.573947
      px      :     1.624197
      py      :     1.701499
      dz2     :     0.009966  d :     0.026714
      dxz     :     0.007996
      dyz     :     0.007300
      dx2y2   :     0.000709
      dxy     :     0.000743

 28 C s       :     3.227594  s :     3.227594
      pz      :     0.966548  p :     2.871442
      px      :     1.043468
      py      :     0.861426
      dz2     :     0.009667  d :     0.038625
      dxz     :     0.005826
      dyz     :     0.012273
      dx2y2   :     0.006867
      dxy     :     0.003992

 29 C s       :     3.207408  s :     3.207408
      pz      :     0.940251  p :     2.895756
      px      :     0.947693
      py      :     1.007813
      dz2     :     0.008633  d :     0.035921
      dxz     :     0.005440
      dyz     :     0.011922
      dx2y2   :     0.005054
      dxy     :     0.004872

 30 C s       :     3.213067  s :     3.213067
      pz      :     0.999856  p :     2.902136
      px      :     0.958715
      py      :     0.943565
      dz2     :     0.010553  d :     0.035709
      dxz     :     0.003485
      dyz     :     0.009873
      dx2y2   :     0.005668
      dxy     :     0.006130

 31 C s       :     3.167076  s :     3.167076
      pz      :     0.873484  p :     2.711645
      px      :     0.982450
      py      :     0.855711
      dz2     :     0.009031  d :     0.038479
      dxz     :     0.005775
      dyz     :     0.012711
      dx2y2   :     0.006271
      dxy     :     0.004690

 32 C s       :     2.995562  s :     2.995562
      pz      :     0.683734  p :     2.364380
      px      :     0.795578
      py      :     0.885068
      dz2     :     0.036629  d :     0.110188
      dxz     :     0.018755
      dyz     :     0.026815
      dx2y2   :     0.015300
      dxy     :     0.012689

 33 O s       :     3.879171  s :     3.879171
      pz      :     1.640207  p :     4.536046
      px      :     1.398814
      py      :     1.497025
      dz2     :     0.003852  d :     0.025696
      dxz     :     0.003048
      dyz     :     0.007093
      dx2y2   :     0.005371
      dxy     :     0.006332

 34 O s       :     3.872402  s :     3.872402
      pz      :     1.405659  p :     4.729664
      px      :     1.796763
      py      :     1.527242
      dz2     :     0.006402  d :     0.020898
      dxz     :     0.003773
      dyz     :     0.004184
      dx2y2   :     0.005648
      dxy     :     0.000892

 35 C s       :     3.215955  s :     3.215955
      pz      :     0.979098  p :     2.888812
      px      :     0.947452
      py      :     0.962263
      dz2     :     0.008643  d :     0.035631
      dxz     :     0.005227
      dyz     :     0.012022
      dx2y2   :     0.004872
      dxy     :     0.004867

 36 C s       :     3.210718  s :     3.210718
      pz      :     1.026009  p :     2.906595
      px      :     0.957685
      py      :     0.922900
      dz2     :     0.010267  d :     0.036048
      dxz     :     0.003669
      dyz     :     0.010155
      dx2y2   :     0.005654
      dxy     :     0.006303

 37 H s       :     0.837665  s :     0.837665

 38 H s       :     0.860911  s :     0.860911

 39 H s       :     0.861283  s :     0.861283

 40 H s       :     0.858445  s :     0.858445

 41 H s       :     0.845266  s :     0.845266

 42 H s       :     0.860778  s :     0.860778

 43 H s       :     0.867459  s :     0.867459

 44 H s       :     0.866299  s :     0.866299

 45 H s       :     0.863952  s :     0.863952

 46 H s       :     0.854100  s :     0.854100

 47 H s       :     0.811331  s :     0.811331

 48 H s       :     0.833036  s :     0.833036

 49 H s       :     0.857266  s :     0.857266

 50 H s       :     0.850161  s :     0.850161

 51 H s       :     0.843616  s :     0.843616

 52 H s       :     0.847014  s :     0.847014

 53 H s       :     0.809419  s :     0.809419

 54 H s       :     0.823173  s :     0.823173

 55 H s       :     0.563480  s :     0.563480

 56 H s       :     0.814940  s :     0.814940

 57 H s       :     0.810197  s :     0.810197



                     *******************************
                     * LOEWDIN POPULATION ANALYSIS *
                     *******************************

----------------------
LOEWDIN ATOMIC CHARGES
----------------------
   0 C :   -0.355917
   1 C :   -0.231747
   2 C :   -0.013256
   3 C :   -0.093382
   4 C :   -0.022663
   5 C :   -0.122658
   6 C :   -0.125331
   7 C :   -0.124552
   8 C :   -0.113311
   9 C :    0.014645
  10 N :   -0.120497
  11 C :    0.052340
  12 N :   -0.280331
  13 C :   -0.145549
  14 C :   -0.038928
  15 C :   -0.121460
  16 C :   -0.139434
  17 C :    0.086876
  18 O :   -0.159434
  19 C :    0.359933
  20 F :   -0.086804
  21 F :   -0.104324
  22 F :   -0.104673
  23 C :   -0.159686
  24 C :   -0.121434
  25 S :    1.261321
  26 O :   -0.572237
  27 O :   -0.564006
  28 C :   -0.175609
  29 C :   -0.102266
  30 C :   -0.099361
  31 C :   -0.038135
  32 C :    0.179781
  33 O :   -0.257275
  34 O :   -0.333472
  35 C :   -0.086813
  36 C :   -0.109623
  37 H :    0.132586
  38 H :    0.118833
  39 H :    0.122380
  40 H :    0.125632
  41 H :    0.132705
  42 H :    0.137959
  43 H :    0.133383
  44 H :    0.134354
  45 H :    0.135984
  46 H :    0.145085
  47 H :    0.143956
  48 H :    0.139988
  49 H :    0.139962
  50 H :    0.145644
  51 H :    0.143890
  52 H :    0.143402
  53 H :    0.162138
  54 H :    0.156641
  55 H :    0.351427
  56 H :    0.162495
  57 H :    0.160827

-------------------------------
LOEWDIN REDUCED ORBITAL CHARGES
-------------------------------
  0 C s       :     2.983467  s :     2.983467
      pz      :     1.090281  p :     3.304455
      px      :     1.095264
      py      :     1.118910
      dz2     :     0.005255  d :     0.067995
      dxz     :     0.017735
      dyz     :     0.021148
      dx2y2   :     0.020930
      dxy     :     0.002928

  1 C s       :     2.928564  s :     2.928564
      pz      :     1.051932  p :     3.217916
      px      :     1.082466
      py      :     1.083518
      dz2     :     0.011923  d :     0.085266
      dxz     :     0.023156
      dyz     :     0.020442
      dx2y2   :     0.024175
      dxy     :     0.005570

  2 C s       :     2.888107  s :     2.888107
      pz      :     1.033309  p :     3.026688
      px      :     0.940270
      py      :     1.053108
      dz2     :     0.028400  d :     0.098461
      dxz     :     0.011621
      dyz     :     0.032790
      dx2y2   :     0.014244
      dxy     :     0.011405

  3 C s       :     2.916564  s :     2.916564
      pz      :     1.069568  p :     3.092947
      px      :     0.966711
      py      :     1.056668
      dz2     :     0.023483  d :     0.083870
      dxz     :     0.004648
      dyz     :     0.029250
      dx2y2   :     0.013906
      dxy     :     0.012583

  4 C s       :     2.855904  s :     2.855904
      pz      :     1.052594  p :     3.056761
      px      :     0.953917
      py      :     1.050250
      dz2     :     0.029240  d :     0.109998
      dxz     :     0.011797
      dyz     :     0.038330
      dx2y2   :     0.015578
      dxy     :     0.015053

  5 C s       :     2.916754  s :     2.916754
      pz      :     1.073354  p :     3.121776
      px      :     0.992224
      py      :     1.056197
      dz2     :     0.023440  d :     0.084128
      dxz     :     0.005013
      dyz     :     0.029767
      dx2y2   :     0.013808
      dxy     :     0.012101

  6 C s       :     2.918896  s :     2.918896
      pz      :     1.068643  p :     3.121163
      px      :     0.976894
      py      :     1.075627
      dz2     :     0.027919  d :     0.085272
      dxz     :     0.013580
      dyz     :     0.027293
      dx2y2   :     0.012444
      dxy     :     0.004035

  7 C s       :     2.919038  s :     2.919038
      pz      :     1.069147  p :     3.120487
      px      :     0.976476
      py      :     1.074864
      dz2     :     0.021077  d :     0.085027
      dxz     :     0.008117
      dyz     :     0.034454
      dx2y2   :     0.011759
      dxy     :     0.009620

  8 C s       :     2.921931  s :     2.921931
      pz      :     1.071805  p :     3.109238
      px      :     0.975348
      py      :     1.062085
      dz2     :     0.021748  d :     0.082142
      dxz     :     0.004822
      dyz     :     0.030136
      dx2y2   :     0.013121
      dxy     :     0.012316

  9 C s       :     2.843502  s :     2.843502
      pz      :     1.052473  p :     2.992424
      px      :     0.952856
      py      :     0.987096
      dz2     :     0.034504  d :     0.149429
      dxz     :     0.012485
      dyz     :     0.058690
      dx2y2   :     0.024174
      dxy     :     0.019576

 10 N s       :     3.236609  s :     3.236609
      pz      :     1.521491  p :     3.805333
      px      :     1.131779
      py      :     1.152063
      dz2     :     0.013048  d :     0.078555
      dxz     :     0.007501
      dyz     :     0.027658
      dx2y2   :     0.014872
      dxy     :     0.015477

 11 C s       :     2.848420  s :     2.848420
      pz      :     1.036509  p :     2.922896
      px      :     0.972957
      py      :     0.913430
      dz2     :     0.050416  d :     0.176344
      dxz     :     0.017066
      dyz     :     0.063413
      dx2y2   :     0.031108
      dxy     :     0.014341

 12 N s       :     3.176080  s :     3.176080
      pz      :     1.643207  p :     4.019883
      px      :     1.160602
      py      :     1.216074
      dz2     :     0.007862  d :     0.084368
      dxz     :     0.011763
      dyz     :     0.009586
      dx2y2   :     0.025506
      dxy     :     0.029651

 13 C s       :     2.920725  s :     2.920725
      pz      :     1.066734  p :     3.106291
      px      :     0.952523
      py      :     1.087033
      dz2     :     0.016491  d :     0.118532
      dxz     :     0.037783
      dyz     :     0.019340
      dx2y2   :     0.022824
      dxy     :     0.022094

 14 C s       :     2.877497  s :     2.877497
      pz      :     1.011897  p :     3.060927
      px      :     1.011605
      py      :     1.037425
      dz2     :     0.017098  d :     0.100504
      dxz     :     0.020569
      dyz     :     0.021273
      dx2y2   :     0.020454
      dxy     :     0.021111

 15 C s       :     2.916032  s :     2.916032
      pz      :     1.032335  p :     3.120211
      px      :     1.041944
      py      :     1.045932
      dz2     :     0.020964  d :     0.085217
      dxz     :     0.016239
      dyz     :     0.017494
      dx2y2   :     0.011179
      dxy     :     0.019340

[...]
      px      :     1.040023
      py      :     1.023617
      dz2     :     0.025814  d :     0.098045
      dxz     :     0.013085
      dyz     :     0.033558
      dx2y2   :     0.016514
      dxy     :     0.009074

 29 C s       :     2.919162  s :     2.919162
      pz      :     1.050160  p :     3.097865
      px      :     0.963054
      py      :     1.084651
      dz2     :     0.022688  d :     0.085239
      dxz     :     0.011639
      dyz     :     0.030506
      dx2y2   :     0.010839
      dxy     :     0.009567

 30 C s       :     2.920461  s :     2.920461
      pz      :     1.080573  p :     3.095435
      px      :     0.961377
      py      :     1.053485
      dz2     :     0.022489  d :     0.083465
      dxz     :     0.006050
      dyz     :     0.025624
      dx2y2   :     0.015411
      dxy     :     0.013891

 31 C s       :     2.880427  s :     2.880427
      pz      :     1.055530  p :     3.058056
      px      :     0.986028
      py      :     1.016499
      dz2     :     0.025079  d :     0.099652
      dxz     :     0.013258
      dyz     :     0.035005
      dx2y2   :     0.015761
      dxy     :     0.010548

 32 C s       :     2.862954  s :     2.862954
      pz      :     0.877792  p :     2.704906
      px      :     0.816123
      py      :     1.010991
      dz2     :     0.086521  d :     0.252358
      dxz     :     0.040897
      dyz     :     0.064162
      dx2y2   :     0.034185
      dxy     :     0.026594

 33 O s       :     3.593464  s :     3.593464
      pz      :     1.662725  p :     4.613810
      px      :     1.398929
      py      :     1.552156
      dz2     :     0.006942  d :     0.050001
      dxz     :     0.005453
      dyz     :     0.016515
      dx2y2   :     0.010378
      dxy     :     0.010712

 34 O s       :     3.539894  s :     3.539894
      pz      :     1.433136  p :     4.751823
      px      :     1.781445
      py      :     1.537242
      dz2     :     0.015636  d :     0.041756
      dxz     :     0.007389
      dyz     :     0.009494
      dx2y2   :     0.007990
      dxy     :     0.001247

 35 C s       :     2.920807  s :     2.920807
      pz      :     1.052937  p :     3.083116
      px      :     0.954942
      py      :     1.075237
      dz2     :     0.022151  d :     0.082890
      dxz     :     0.010914
      dyz     :     0.029771
      dx2y2   :     0.010754
      dxy     :     0.009300

 36 C s       :     2.919319  s :     2.919319
      pz      :     1.083688  p :     3.104941
      px      :     0.966645
      py      :     1.054608
      dz2     :     0.022345  d :     0.085363
      dxz     :     0.006330
      dyz     :     0.026405
      dx2y2   :     0.015717
      dxy     :     0.014567

 37 H s       :     0.867414  s :     0.867414

 38 H s       :     0.881167  s :     0.881167

 39 H s       :     0.877620  s :     0.877620

 40 H s       :     0.874368  s :     0.874368

 41 H s       :     0.867295  s :     0.867295

 42 H s       :     0.862041  s :     0.862041

 43 H s       :     0.866617  s :     0.866617

 44 H s       :     0.865646  s :     0.865646

 45 H s       :     0.864016  s :     0.864016

 46 H s       :     0.854915  s :     0.854915

 47 H s       :     0.856044  s :     0.856044

 48 H s       :     0.860012  s :     0.860012

 49 H s       :     0.860038  s :     0.860038

 50 H s       :     0.854356  s :     0.854356

 51 H s       :     0.856110  s :     0.856110

 52 H s       :     0.856598  s :     0.856598

 53 H s       :     0.837862  s :     0.837862

 54 H s       :     0.843359  s :     0.843359

 55 H s       :     0.648573  s :     0.648573

 56 H s       :     0.837505  s :     0.837505

 57 H s       :     0.839173  s :     0.839173



                      *****************************
                      * MAYER POPULATION ANALYSIS *
                      *****************************

  NA   - Mulliken gross atomic population
  ZA   - Total nuclear charge
  QA   - Mulliken gross atomic charge
  VA   - Mayer's total valence
  BVA  - Mayer's bonded valence
  FA   - Mayer's free valence

  ATOM       NA         ZA         QA         VA         BVA        FA
  0 C      6.4412     6.0000    -0.4412     3.8399     3.8399     0.0000
  1 C      6.3391     6.0000    -0.3391     3.8576     3.8576    -0.0000
  2 C      5.8203     6.0000     0.1797     3.9018     3.9018     0.0000
  3 C      6.2147     6.0000    -0.2147     3.8561     3.8561     0.0000
  4 C      5.8237     6.0000     0.1763     3.9817     3.9817     0.0000
  5 C      6.2049     6.0000    -0.2049     3.9012     3.9012    -0.0000
  6 C      6.1287     6.0000    -0.1287     3.9244     3.9244     0.0000
  7 C      6.1317     6.0000    -0.1317     3.9257     3.9257     0.0000
  8 C      6.1460     6.0000    -0.1460     3.8807     3.8807    -0.0000
  9 C      5.7931     6.0000     0.2069     3.9773     3.9773     0.0000
 10 N      7.4467     7.0000    -0.4467     2.9289     2.9289     0.0000
 11 C      5.6696     6.0000     0.3304     3.8862     3.8862     0.0000
 12 N      7.6129     7.0000    -0.6129     2.7787     2.7787     0.0000
 13 C      6.2505     6.0000    -0.2505     3.8161     3.8161     0.0000
 14 C      5.8306     6.0000     0.1694     3.8882     3.8882    -0.0000
 15 C      6.1680     6.0000    -0.1680     3.9390     3.9390    -0.0000
 16 C      6.1720     6.0000    -0.1720     3.9199     3.9199    -0.0000
 17 C      5.6445     6.0000     0.3555     3.8099     3.8099    -0.0000
 18 O      8.5453     8.0000    -0.5453     1.9613     1.9613     0.0000
 19 C      4.9134     6.0000     1.0866     3.9945     3.9945    -0.0000
 20 F      9.2783     9.0000    -0.2783     1.0888     1.0888    -0.0000
 21 F      9.2905     9.0000    -0.2905     1.0663     1.0663     0.0000
 22 F      9.2910     9.0000    -0.2910     1.0656     1.0656    -0.0000
 23 C      6.1927     6.0000    -0.1927     3.9012     3.9012    -0.0000
 24 C      6.1736     6.0000    -0.1736     3.9469     3.9469    -0.0000
 25 S     14.7899    16.0000     1.2101     5.0773     5.0773     0.0000
 26 O      8.5510     8.0000    -0.5510     1.8747     1.8747     0.0000
 27 O      8.5236     8.0000    -0.5236     1.9226     1.9226     0.0000
 28 C      6.1377     6.0000    -0.1377     3.8383     3.8383     0.0000
 29 C      6.1391     6.0000    -0.1391     3.9175     3.9175    -0.0000
 30 C      6.1509     6.0000    -0.1509     3.8653     3.8653    -0.0000
 31 C      5.9172     6.0000     0.0828     3.9246     3.9246    -0.0000
 32 C      5.4701     6.0000     0.5299     3.9542     3.9542    -0.0000
 33 O      8.4409     8.0000    -0.4409     2.0697     2.0697    -0.0000
 34 O      8.6230     8.0000    -0.6230     1.8707     1.8707     0.0000
 35 C      6.1404     6.0000    -0.1404     3.8925     3.8925     0.0000
 36 C      6.1534     6.0000    -0.1534     3.9053     3.9053    -0.0000
 37 H      0.8377     1.0000     0.1623     0.9420     0.9420     0.0000
 38 H      0.8609     1.0000     0.1391     0.9385     0.9385     0.0000
 39 H      0.8613     1.0000     0.1387     0.9376     0.9376    -0.0000
 40 H      0.8584     1.0000     0.1416     0.9473     0.9473    -0.0000
 41 H      0.8453     1.0000     0.1547     0.9283     0.9283    -0.0000
 42 H      0.8608     1.0000     0.1392     0.9391     0.9391     0.0000
 43 H      0.8675     1.0000     0.1325     0.9379     0.9379    -0.0000
 44 H      0.8663     1.0000     0.1337     0.9371     0.9371     0.0000
 45 H      0.8640     1.0000     0.1360     0.9365     0.9365     0.0000
 46 H      0.8541     1.0000     0.1459     0.9413     0.9413     0.0000
 47 H      0.8113     1.0000     0.1887     0.9295     0.9295     0.0000
 48 H      0.8330     1.0000     0.1670     0.9375     0.9375     0.0000
 49 H      0.8573     1.0000     0.1427     0.9423     0.9423    -0.0000
 50 H      0.8502     1.0000     0.1498     0.9361     0.9361    -0.0000
 51 H      0.8436     1.0000     0.1564     0.9481     0.9481     0.0000
 52 H      0.8470     1.0000     0.1530     0.9382     0.9382    -0.0000
 53 H      0.8094     1.0000     0.1906     0.9366     0.9366     0.0000
 54 H      0.8232     1.0000     0.1768     0.9354     0.9354    -0.0000
 55 H      0.5635     1.0000     0.4365     0.7934     0.7934    -0.0000
 56 H      0.8149     1.0000     0.1851     0.9375     0.9375     0.0000
 57 H      0.8102     1.0000     0.1898     0.9347     0.9347    -0.0000

  Mayer bond orders larger than 0.100000
B(  0-C ,  1-C ) :   0.9989 B(  0-C , 37-H ) :   0.9374 B(  0-C , 38-H ) :   0.9486 
B(  0-C , 39-H ) :   0.9492 B(  1-C ,  2-C ) :   0.9838 B(  1-C , 40-H ) :   0.9187 
B(  1-C , 41-H ) :   0.9292 B(  2-C ,  3-C ) :   1.4542 B(  2-C , 11-C ) :   1.3032 
B(  3-C ,  4-C ) :   1.2941 B(  3-C , 42-H ) :   0.9170 B(  4-C ,  5-C ) :   1.2801 
B(  4-C ,  9-C ) :   1.2471 B(  5-C ,  6-C ) :   1.5154 B(  5-C ,  8-C ) :   0.1082 
B(  5-C , 43-H ) :   0.9248 B(  6-C ,  7-C ) :   1.3448 B(  6-C , 44-H ) :   0.9299 
B(  7-C ,  8-C ) :   1.5192 B(  7-C , 45-H ) :   0.9295 B(  8-C ,  9-C ) :   1.2997 
B(  8-C , 46-H ) :   0.9174 B(  9-C , 10-N ) :   1.2519 B( 10-N , 11-C ) :   1.4453 
B( 11-C , 12-N ) :   0.8825 B( 12-N , 13-C ) :   0.9199 B( 12-N , 25-S ) :   0.8054 
B( 13-C , 14-C ) :   0.9434 B( 13-C , 47-H ) :   0.9154 B( 13-C , 48-H ) :   0.9210 
B( 14-C , 15-C ) :   1.4188 B( 14-C , 24-C ) :   1.4397 B( 15-C , 16-C ) :   1.4444 
B( 15-C , 49-H ) :   0.9165 B( 16-C , 17-C ) :   1.4110 B( 16-C , 50-H ) :   0.9181 
B( 17-C , 18-O ) :   0.8265 B( 17-C , 23-C ) :   1.3927 B( 18-O , 19-C ) :   0.9885 
B( 19-C , 20-F ) :   1.0088 B( 19-C , 21-F ) :   0.9694 B( 19-C , 22-F ) :   0.9689 
B( 23-C , 24-C ) :   1.4190 B( 23-C , 51-H ) :   0.9087 B( 24-C , 52-H ) :   0.9185 
B( 25-S , 26-O ) :   1.6085 B( 25-S , 27-O ) :   1.6734 B( 25-S , 28-C ) :   0.8090 
B( 28-C , 29-C ) :   1.3957 B( 28-C , 36-C ) :   1.3770 B( 29-C , 30-C ) :   1.4149 
B( 29-C , 53-H ) :   0.9056 B( 30-C , 31-C ) :   1.3822 B( 30-C , 54-H ) :   0.9138 
B( 31-C , 32-C ) :   1.0063 B( 31-C , 35-C ) :   1.4023 B( 32-C , 33-O ) :   1.8648 
B( 32-C , 34-O ) :   1.0276 B( 34-O , 55-H ) :   0.7403 B( 35-C , 36-C ) :   1.4156 
B( 35-C , 56-H ) :   0.9084 B( 36-C , 57-H ) :   0.9071 

-------
TIMINGS
-------

Total SCF time: 0 days 0 hours 7 min 53 sec 

Total time                  ....     473.863 sec
Sum of individual times     ....     473.325 sec  ( 99.9%)

SCF preparation             ....       0.347 sec  (  0.1%)
Fock matrix formation       ....     470.176 sec  ( 99.2%)
  Startup                   ....       0.116 sec  (  0.0% of F)
  Split-RI-J                ....      65.529 sec  ( 13.9% of F)
  Chain of spheres X        ....     364.763 sec  ( 77.6% of F)
  XC integration            ....      38.556 sec  (  8.2% of F)
    XC Preparation          ....       0.000 sec  (  0.0% of XC)
    Basis function eval.    ....      15.032 sec  ( 39.0% of XC)
    Density eval.           ....       9.606 sec  ( 24.9% of XC)
    XC-Functional eval.     ....       1.642 sec  (  4.3% of XC)
    XC-Potential eval.      ....      10.498 sec  ( 27.2% of XC)
Diagonalization             ....       0.000 sec  (  0.0%)
Density matrix formation    ....       0.561 sec  (  0.1%)
Total Energy calculation    ....       0.094 sec  (  0.0%)
Population analysis         ....       0.080 sec  (  0.0%)
Orbital Transformation      ....       0.224 sec  (  0.0%)
Orbital Orthonormalization  ....       0.000 sec  (  0.0%)
DIIS solution               ....       1.121 sec  (  0.2%)
SOSCF solution              ....       0.722 sec  (  0.2%)
Finished LeanSCF after 474.0 sec

Maximum memory used throughout the entire LEANSCF-calculation: 101.9 MB

-------------------------   --------------------
FINAL SINGLE POINT ENERGY     -2185.600170928491
-------------------------   --------------------


------------------------------------------------------------------------------
                              ORCA PROPERTY CALCULATIONS
------------------------------------------------------------------------------

GBWName                                 ... /home/nmrbox/aojoawo/Documents/ERDOS/inputs/CHEMBL3682621.gbw
Number of atoms                         ...     58
Number of basis functions               ...    564
Max core memory                         ...   1024 MB

Electric properties:
Dipole moment                           ... YES
Quadrupole moment                       ...  NO
Static polarizability (Dipole/Dipole)   ...  NO
Static polarizability (Dipole/Quad.)    ...  NO
Static polarizability (Quad./Quad.)     ...  NO
Static polarizability (Velocity)        ...  NO

Atomic electric properties:
Dipole moment                           ...  NO
Quadrupole moment                       ...  NO
Static polarizability                   ...  NO

Choice of electric origin               ... Center of mass
Position of electric origin             ...     0.378776     0.506393    -0.200931

General magnetic properties:
Magnetizability                         ...  NO

EPR properties:
g-Tensor (aka g-matrix)                 ...  NO
Zero-Field splitting spin-orbit         ...  NO
Zero-field splitting spin-spin          ...  NO
Hyperfine couplings                     ...  NO (   0 nuclei)
Quadrupole couplings                    ...  NO (   0 nuclei)
Contact density                         ...  NO (   0 nuclei)

NMR properties:
Chemical shifts                         ...  NO (   0 nuclei)
Spin-rotation constants                 ...  NO (   0 nuclei)
Spin-spin couplings                     ...  NO (   0 nuclei,    0 pairs)

Choice of magnetic origin               ... GIAO
Position of magnetic origin             ...     0.000000     0.000000     0.000000

Properties with geometric perturbations:
SCF Hessian                             ...  NO
IR spectrum                             ...  NO
VCD spectrum                            ...  NO
X-ray spectroscopy properties:
SCF XES/XAS/RIXS spectra                ...  NO


-------------
DIPOLE MOMENT
-------------

Method             : SCF
Type of density    : Electron Density
Multiplicity       :   1
Irrep              :   0
Energy             : -2185.6001709284914796 Eh
Relativity type    : 
Basis              : AO
                                X                 Y                 Z
Electronic contribution:     25.036975767      10.557468251      -8.058066221
Nuclear contribution   :    -24.133895006     -10.493628227       6.448894933
                        -----------------------------------------
Total Dipole Moment    :      0.903080761       0.063840024      -1.609171288
                        -----------------------------------------
Magnitude (a.u.)       :      1.846364710
Magnitude (Debye)      :      4.693086127



--------------------
Rotational spectrum 
--------------------
 
Rotational constants in cm-1:             0.003108             0.002550             0.001583 
Rotational constants in MHz :            93.179362            76.457558            47.466061 

Dipole components along the rotational axes: 
x,y,z [a.u.] :    -0.027018     1.569594    -0.971961 
x,y,z [Debye]:    -0.068675     3.989591    -2.470528 

 

Dipole moment calculation done in   0.0 sec 

Maximum memory used throughout the entire PROP-calculation: 50.2 MB

--------------------------------
SUGGESTED CITATIONS FOR THIS RUN
--------------------------------

Below you find a list of papers that are relevant to this ORCA run
We neither can nor want to force you to cite these papers, but we appreciate if you do
You receive ORCA, which is the product of decades of hard work by many enthusiastic individuals, for free
The only thing we kindly ask in return is that you cite our papers,
We deeply appreciate it, if you show your appreciation for ORCA by not just citing the generic ORCA reference.

Please note that relegating all ORCA citations to the supporting information does *not* help us.
SI sections are not indexed - citations you put there will not count into any citation statistics
But we need these citations in order to attract the funding resources that allow us to do what we are doing

Therefore, if you are a happy ORCA user, please consider citing a few of the papers listed below in the main body of your paper

In addition to the list printed below, the program has created the file /home/nmrbox/aojoawo/Documents/ERDOS/inputs/CHEMBL3682621.bibtex that contains the list in bibtex format
You can import this file easily into all common literature databanks and citation aid programs


List of essential papers. We consider these as the minimum necessary citations

  1. Neese,F.
     Software update: the ORCA program system, version 5.0
     WIRES Comput. Molec. Sci., 2022 12(1)e1606
     doi.org/10.1002/wcms.1606

List of papers to cite with high priority. The work reported in these papers was absolutely
necessary for this run to complete.
Our perspective: the developers of density functionals and basis sets usually get cited in chemistry papers
Good! But without the algorithms to do something with them, the functionals or basis sets would not do anything.
Hence, in our opinion, the algorithm design and method developments papers are equally worthy of getting cited

  1. Neese,F.
     An improvement of the resolution of the identity approximation for the formation of the Coulomb matrix
     J. Comp. Chem., 2003 24(14)1740-1747
     doi.org/10.1002/jcc.10318
  2. Neese,F.; Wennmohs,F.; Hansen,A.; Becker,U.
     Efficient, approximate and parallel Hartree-Fock and hybrid DFT calculations. A 'chain-of-spheres' algorithm for the Hartree-Fock exchange
     Chem. Phys., 2009 356(1-3)98-109
     doi.org/10.1016/j.chemphys.2008.10.036
  3. Helmich-Paris,B.; de Souza,B.; Neese,F.; Izsák,R.
     An improved chain of spheres for exchange algorithm
     J. Chem. Phys., 2021 155 104109
     doi.org/doi: 10.1063/5.0058766.
  4. Neese,F.
     The SHARK Integral Generation and Digestion System
     J. Comp. Chem., 2022  1-16
     doi.org/10.1002/jcc.26942

List of suggested additional citations. These are papers that are important in the 'surrounding' of 
of this run, or papers that preceded the highly important papers. If you like your results we are grateful for a citation.

  1. Izsak,R.; Neese,F.
     An overlap fitted chain of spheres exchange method
     J. Chem. Phys., 2011 135 144105
     doi.org/10.1063/1.3646921
  2. Izsak,R.; Hansen,A.; Neese,F.
     The resolution of identity and chain of spheres approximations for the LPNO-CCSD singles Fock term
     Molec. Phys., 2012 110 2413-2417
     doi.org/10.1080/00268976.2012.687466
  3. Neese,F.
     The ORCA program system
     WIRES Comput. Molec. Sci., 2012 2(1)73-78
     doi.org/10.1002/wcms.81
  4. Izsak,R.; Neese,F.; Klopper,W.
     Robust fitting techniques in the chain of spheres approximation to the Fock exchange: The role of the complementary space
     J. Chem. Phys., 2013 139 
     doi.org/10.1063/1.4819264
  5. Neese,F.
     Software update: the ORCA program system, version 4.0
     WIRES Comput. Molec. Sci., 2018 8(1)1-6
     doi.org/10.1002/wcms.1327
  6. Neese,F.; Wennmohs,F.; Becker,U.; Riplinger,C.
     The ORCA quantum chemistry program package
     J. Chem. Phys., 2020 152 Art. No. L224108
     doi.org/10.1063/5.0004608

List of optional additional citations

  1. Neese,F.
     Approximate second-order SCF convergence for spin unrestricted wavefunctions
     Chem. Phys. Lett., 2000 325(1-3)93-98
     doi.org/10.1016/s0009-2614(00)00662-x

Timings for individual modules:

Sum of individual times          ...      492.227 sec (=   8.204 min)
Startup calculation              ...       11.682 sec (=   0.195 min)   2.4 %
SCF iterations                   ...      480.330 sec (=   8.006 min)  97.6 %
Property calculations            ...        0.215 sec (=   0.004 min)   0.0 %
                             ****ORCA TERMINATED NORMALLY****
TOTAL RUN TIME: 0 days 0 hours 8 minutes 12 seconds 955 msec
