
                                 *****************
                                 * O   R   C   A *
                                 *****************

                                            #,                                       
                                            ###                                      
                                            ####                                     
                                            #####                                    
                                            ######                                   
                                           ########,                                 
                                     ,,################,,,,,                         
                               ,,#################################,,                 
                          ,,##########################################,,             
                       ,#########################################, ''#####,          
                    ,#############################################,,   '####,        
                  ,##################################################,,,,####,       
                ,###########''''           ''''###############################       
              ,#####''   ,,,,##########,,,,          '''####'''          '####       
            ,##' ,,,,###########################,,,                        '##       
           ' ,,###''''                  '''############,,,                           
         ,,##''                                '''############,,,,        ,,,,,,###''
      ,#''                                            '''#######################'''  
     '                                                          ''''####''''         
             ,#######,   #######,   ,#######,      ##                                
            ,#'     '#,  ##    ##  ,#'     '#,    #''#        ,####,   ,####,        
            ##       ##  ##   ,#'  ##            #'  '#       #'       #'  '#        
            ##       ##  #######   ##           ,######,      #####,   #    #        
            '#,     ,#'  ##    ##  '#,     ,#' ,#      #,     #,   #   #,  ,#        
             '#######'   ##     ##  '#######'  #'      '#     '####' # '####'        



                #########################################################
                #                        -***-                          #
                #          Department of theory and spectroscopy        #
                #                                                       #
                #                      Frank Neese                      #
                #                                                       #
                #     Directorship, Architecture, Infrastructure        #
                #                    SHARK, DRIVERS                     #
                #        Core code/Algorithms in most modules           #
                #                                                       #
                #        Max Planck Institute fuer Kohlenforschung      #
                #                Kaiser Wilhelm Platz 1                 #
                #                 D-45470 Muelheim/Ruhr                 #
                #                      Germany                          #
                #                                                       #
                #                  All rights reserved                  #
                #                        -***-                          #
                #########################################################


                         Program Version 6.0.0  -   RELEASE  -


 With contributions from (in alphabetic order):
   Daniel Aravena         : Magnetic Suceptibility
   Michael Atanasov       : Ab Initio Ligand Field Theory (pilot matlab implementation)
   Alexander A. Auer      : GIAO ZORA, VPT2 properties, NMR spectrum
   Ute Becker             : All parallelization in ORCA, NUMFREQ, NUMCALC
   Giovanni Bistoni       : ED, misc. LED, open-shell LED, HFLD
   Martin Brehm           : Molecular dynamics
   Dmytro Bykov           : pre 5.0 version of the SCF Hessian
   Marcos Casanova-Páez   : Triplet and SCS-CIS(D). UHF-(DLPNO)-IP/EA/STEOM-CCSD. UHF-CVS-IP/STEOM-CCSD
   Vijay G. Chilkuri      : MRCI spin determinant printing, contributions to CSF-ICE
   Pauline Colinet        : FMM embedding
   Dipayan Datta          : RHF DLPNO-CCSD density
   Achintya Kumar Dutta   : EOM-CC, STEOM-CC
   Nicolas Foglia         : Exact transition moments, OPA infrastructure, MCD improvements
   Dmitry Ganyushin       : Spin-Orbit,Spin-Spin,Magnetic field MRCI
   Miquel Garcia          : C-PCM and meta-GGA Hessian, CCSD/C-PCM, Gaussian charge scheme
   Tiago L. C. Gouveia    : GS-ROHF, GS-ROCIS
   Yang Guo               : DLPNO-NEVPT2, F12-NEVPT2, CIM, IAO-localization
   Andreas Hansen         : Spin unrestricted coupled pair/coupled cluster methods
   Ingolf Harden          : AUTO-CI MPn and infrastructure 
   Benjamin Helmich-Paris : MC-RPA, TRAH-(SCF,CASSCF), AVAS, COSX integrals, SCF dyn. polar.
   Lee Huntington         : MR-EOM, pCC
   Robert Izsak           : Overlap fitted RIJCOSX, COSX-SCS-MP3, EOM
   Riya Kayal             : Wick's Theorem for AUTO-CI, AUTO-CI UHF-CCSDT
   Emily Kempfer          : AUTO-CI, RHF CISDT and CCSDT
   Christian Kollmar      : KDIIS, OOCD, Brueckner-CCSD(T), CCSD density, CASPT2, CASPT2-K, improved NEVPT2
   Axel Koslowski         : Symmetry handling
   Simone Kossmann        : Meta GGA functionals, TD-DFT gradient, OOMP2, (MP2 Hessian; deprecated post 5.0)
   Lucas Lang             : DCDCAS
   Marvin Lechner         : AUTO-CI (C++ implementation), FIC-MRCC
   Spencer Leger          : CASSCF response
   Dagmar Lenk            : GEPOL surface, SMD, ORCA-2-JSON
   Dimitrios Liakos       : Extrapolation schemes; Compound Job, initial MDCI parallelization
   Dimitrios Manganas     : Further ROCIS development; embedding schemes. LFT, Crystal Embedding
   Dimitrios Pantazis     : SARC Basis sets
   Anastasios Papadopoulos: AUTO-CI, single reference methods and gradients
   Taras Petrenko         : pre 6.0 DFT Hessian and TD-DFT gradient, (ASA, deprecated), ECA, 1-Electron XAS/XES, NRVS
   Peter Pinski           : DLPNO-MP2, DLPNO-MP2 Gradient
   Christoph Reimann      : Effective Core Potentials
   Marius Retegan         : Local ZFS, SOC
   Christoph Riplinger    : Optimizer, TS searches, QM/MM, DLPNO-CCSD(T), (RO)-DLPNO pert. Triples
   Michael Roemelt        : Original ROCIS implementation
   Masaaki Saitow         : Open-shell DLPNO-CCSD energy and density
   Barbara Sandhoefer     : DKH picture change effects
   Kantharuban Sivalingam : CASSCF convergence/infrastructure, NEVPT2 and variants, FIC-MRCI
   Bernardo de Souza      : ESD, SOC TD-DFT
   Georgi Stoychev        : AutoAux, RI-MP2 NMR, DLPNO-MP2 response, X2C
   Van Anh Tran           : RI-MP2 g-tensors
   Willem Van den Heuvel  : Paramagnetic NMR
   Zikuan Wang            : NOTCH, Electric field optimization 
   Frank Wennmohs         : Technical directorship and infrastructure
   Hang Xu                : AUTO-CI-Response properties 


 We gratefully acknowledge several colleagues who have allowed us to
 interface, adapt or use parts of their codes:
   Stefan Grimme, W. Hujo, H. Kruse, P. Pracht,  : VdW corrections, initial TS optimization,
                  C. Bannwarth, S. Ehlert,         DFT functionals, gCP, sTDA/sTD-DF
                  L. Wittmann, M. Mueller
   Ed Valeev, F. Pavosevic, A. Kumar             : LibInt (2-el integral package), F12 methods
   Garnet Chan, S. Sharma, J. Yang, R. Olivares  : DMRG
   Ulf Ekstrom                                   : XCFun DFT Library
   Mihaly Kallay                                 : mrcc  (arbitrary order and MRCC methods)
   Frank Weinhold                                : gennbo (NPA and NBO analysis)
   Simon Mueller                                 : openCOSMO-RS
   Christopher J. Cramer and Donald G. Truhlar   : smd solvation model
   Lars Goerigk                                  : TD-DFT with DH, B97 family of functionals
   V. Asgeirsson, H. Jonsson                     : NEB implementation
   FAccTs GmbH                                   : IRC, NEB, NEB-TS, DLPNO-Multilevel, CI-OPT
                                                   MM, QMMM, 2- and 3-layer-ONIOM, Crystal-QMMM,
                                                   LR-CPCM, SF, NACMEs, symmetry and pop. for TD-DFT,
                                                   nearIR, NL-DFT gradient (VV10), updates on ESD,
                                                   ML-optimized integration grids, MBIS, APM,
                                                   GOAT, DOCKER, SOLVATOR, interface openCOSMO-RS
   S Lehtola, MJT Oliveira, MAL Marques          : LibXC Library
   Liviu Ungur et al                             : ANISO software


 Your calculation uses the libint2 library for the computation of 2-el integrals
 For citations please refer to: http://libint.valeyev.net

 Your ORCA version has been built with support for libXC version: 6.2.2
 For citations please refer to: https://libxc.gitlab.io

 This ORCA versions uses:
   CBLAS   interface :  Fast vector & matrix operations
   LAPACKE interface :  Fast linear algebra routines
   SCALAPACK package :  Parallel linear algebra routines
   Shared memory     :  Shared parallel matrices
   BLAS/LAPACK       :  OpenBLAS 0.3.27  USE64BITINT DYNAMIC_ARCH NO_AFFINITY SkylakeX SINGLE_THREADED
        Core in use  :  SkylakeX
   Copyright (c) 2011-2014, The OpenBLAS Project


Warning: RI is on but no J-basis has been assigned. Assigning Def2/J (nothing to worry about!)
================================================================================

----- Orbital basis set information -----
Your calculation utilizes the basis: 6-31G*
   H-He, Li-Ne : W. J. Hehre, R. Ditchfield and J.A. Pople, J. Chem. Phys. 56, 2257 (1972).
                 Note: He and Ne are unpublished basis sets taken from the Gaussian program.
                 Note: Li and B from J. D. Dill and J. A. Pople, J. Chem. Phys. 62, 2921 (1975).
   Na - Ar     : M. M. Francl, W. J. Pietro, W. J. Hehre, J. S. Binkley, M. S. Gordon, 
                 D. J. DeFrees and J. A. Pople, J. Chem. Phys. 77, 3654 (1982).
   K - Zn      : V. A. Rassolov, J. A. Pople, M. A. Ratner, and T. L. Windus, J. Chem. Phys. 109, 1223 (1998).

----- AuxJ basis set information -----
Your calculation utilizes the auxiliary basis: def2/J
   F. Weigend, Phys. Chem. Chem. Phys. 8, 1057 (2006).

================================================================================
                                        WARNINGS
                       Please study these warnings very carefully!
================================================================================


================================================================================
                                       INPUT FILE
================================================================================
NAME = /home/nmrbox/aojoawo/Documents/ERDOS/inputs/CHEMBL3687332.inp
|  1> ! B3LYP 6-31G* SP
|  2> 
|  3> * xyz -1 1
|  4> C 2.4050 -1.5703 1.5860
|  5> C 2.8285 -0.1264 1.8278
|  6> N 2.8494 0.6205 0.5644
|  7> C 1.8144 1.2715 -0.0374
|  8> C 0.4057 1.3596 0.4884
|  9> N -0.5430 0.8240 -0.4903
| 10> C -0.4847 -0.5553 -0.8714
| 11> N 0.2317 -0.8894 -1.9764
| 12> C 0.3562 -2.1685 -2.4041
| 13> C -0.2651 -3.2061 -1.7050
| 14> C -0.1349 -4.5329 -2.1446
| 15> C -0.7579 -5.5679 -1.4462
| 16> C -1.5127 -5.2878 -0.3073
| 17> C -1.6501 -3.9715 0.1423
| 18> C -1.0291 -2.9069 -0.5488
| 19> C -1.1452 -1.5579 -0.1218
| 20> C -1.9468 -1.2012 1.1103
| 21> S -1.7311 1.8574 -1.2199
| 22> O -1.0553 3.0512 -1.8349
| 23> O -2.4571 1.1137 -2.3074
| 24> C -2.8860 2.3778 0.0022
| 25> C -2.6563 3.5496 0.7341
| 26> C -3.5547 3.9472 1.7287
| 27> C -4.6958 3.1745 2.0080
| 28> C -5.6423 3.5953 3.0650
| 29> O -6.6704 2.9101 3.3144
| 30> O -5.4095 4.7538 3.7994
| 31> C -4.9197 1.9968 1.2706
| 32> C -4.0204 1.6029 0.2754
| 33> C 2.2231 1.8389 -1.2425
| 34> C 3.5468 1.4908 -1.3773
| 35> C 4.4470 1.7669 -2.4041
| 36> C 5.7517 1.2574 -2.2885
| 37> C 6.1204 0.4882 -1.1640
| 38> C 5.1892 0.2237 -0.1433
| 39> C 3.8987 0.7493 -0.2778
| 40> H 3.1138 -2.0639 0.8884
| 41> H 1.3864 -1.6027 1.1509
| 42> H 2.3993 -2.1238 2.5474
| 43> H 2.1433 0.3551 2.5554
| 44> H 3.8333 -0.1117 2.3001
| 45> H 0.1785 2.4253 0.7012
| 46> H 0.2888 0.8062 1.4394
| 47> H 0.9432 -2.3719 -3.2912
| 48> H 0.4479 -4.7687 -3.0275
| 49> H -0.6555 -6.5899 -1.7887
| 50> H -1.9941 -6.0946 0.2308
| 51> H -2.2436 -3.8022 1.0302
| 52> H -1.9539 -0.1153 1.3258
| 53> H -3.0030 -1.5182 0.9750
| 54> H -1.5154 -1.7120 1.9975
| 55> H -1.7792 4.1539 0.5401
| 56> H -3.3528 4.8574 2.2802
| 57> H -5.7868 1.3775 1.4654
| 58> H -4.2031 0.6868 -0.2728
| 59> H 1.6234 2.4089 -1.9397
| 60> H 4.1520 2.3510 -3.2663
| 61> H 6.4765 1.4528 -3.0680
| 62> H 7.1263 0.0966 -1.0876
| 63> H 5.4753 -0.3750 0.7103
| 64> *
| 65> 
| 66>                          ****END OF INPUT****
================================================================================

                       ****************************
                       * Single Point Calculation *
                       ****************************

---------------------------------
CARTESIAN COORDINATES (ANGSTROEM)
---------------------------------
  C      2.405000   -1.570300    1.586000
  C      2.828500   -0.126400    1.827800
  N      2.849400    0.620500    0.564400
  C      1.814400    1.271500   -0.037400
  C      0.405700    1.359600    0.488400
  N     -0.543000    0.824000   -0.490300
  C     -0.484700   -0.555300   -0.871400
  N      0.231700   -0.889400   -1.976400
  C      0.356200   -2.168500   -2.404100
  C     -0.265100   -3.206100   -1.705000
  C     -0.134900   -4.532900   -2.144600
  C     -0.757900   -5.567900   -1.446200
  C     -1.512700   -5.287800   -0.307300
  C     -1.650100   -3.971500    0.142300
  C     -1.029100   -2.906900   -0.548800
  C     -1.145200   -1.557900   -0.121800
  C     -1.946800   -1.201200    1.110300
  S     -1.731100    1.857400   -1.219900
  O     -1.055300    3.051200   -1.834900
  O     -2.457100    1.113700   -2.307400
  C     -2.886000    2.377800    0.002200
  C     -2.656300    3.549600    0.734100
  C     -3.554700    3.947200    1.728700
  C     -4.695800    3.174500    2.008000
  C     -5.642300    3.595300    3.065000
  O     -6.670400    2.910100    3.314400
  O     -5.409500    4.753800    3.799400
  C     -4.919700    1.996800    1.270600
  C     -4.020400    1.602900    0.275400
  C      2.223100    1.838900   -1.242500
  C      3.546800    1.490800   -1.377300
  C      4.447000    1.766900   -2.404100
  C      5.751700    1.257400   -2.288500
  C      6.120400    0.488200   -1.164000
  C      5.189200    0.223700   -0.143300
  C      3.898700    0.749300   -0.277800
  H      3.113800   -2.063900    0.888400
  H      1.386400   -1.602700    1.150900
  H      2.399300   -2.123800    2.547400
  H      2.143300    0.355100    2.555400
  H      3.833300   -0.111700    2.300100
  H      0.178500    2.425300    0.701200
  H      0.288800    0.806200    1.439400
  H      0.943200   -2.371900   -3.291200
  H      0.447900   -4.768700   -3.027500
  H     -0.655500   -6.589900   -1.788700
  H     -1.994100   -6.094600    0.230800
  H     -2.243600   -3.802200    1.030200
  H     -1.953900   -0.115300    1.325800
  H     -3.003000   -1.518200    0.975000
  H     -1.515400   -1.712000    1.997500
  H     -1.779200    4.153900    0.540100
  H     -3.352800    4.857400    2.280200
  H     -5.786800    1.377500    1.465400
  H     -4.203100    0.686800   -0.272800
  H      1.623400    2.408900   -1.939700
  H      4.152000    2.351000   -3.266300
  H      6.476500    1.452800   -3.068000
  H      7.126300    0.096600   -1.087600
  H      5.475300   -0.375000    0.710300

----------------------------
CARTESIAN COORDINATES (A.U.)
----------------------------
  NO LB      ZA    FRAG     MASS         X           Y           Z
   0 C     6.0000    0    12.011    4.544791   -2.967437    2.997106
   1 C     6.0000    0    12.011    5.345090   -0.238861    3.454041
   2 N     7.0000    0    14.007    5.384586    1.172575    1.066561
   3 C     6.0000    0    12.011    3.428719    2.402787   -0.070676
   4 C     6.0000    0    12.011    0.766662    2.569272    0.922942
   5 N     7.0000    0    14.007   -1.026121    1.557134   -0.926533
   6 C     6.0000    0    12.011   -0.915950   -1.049365   -1.646707
   7 N     7.0000    0    14.007    0.437850   -1.680722   -3.734855
   8 C     6.0000    0    12.011    0.673120   -4.097871   -4.543091
   9 C     6.0000    0    12.011   -0.500966   -6.058651   -3.221983
  10 C     6.0000    0    12.011   -0.254924   -8.565940   -4.052707
  11 C     6.0000    0    12.011   -1.432223  -10.521806   -2.732922
  12 C     6.0000    0    12.011   -2.858589   -9.992494   -0.580713
  13 C     6.0000    0    12.011   -3.118237   -7.505047    0.268908
  14 C     6.0000    0    12.011   -1.944717   -5.493245   -1.037082
  15 C     6.0000    0    12.011   -2.164114   -2.944004   -0.230169
  16 C     6.0000    0    12.011   -3.678919   -2.269939    2.098163
  17 S    16.0000    0    32.060   -3.271305    3.509977   -2.305277
  18 O     8.0000    0    15.999   -1.994228    5.765932   -3.467458
  19 O     8.0000    0    15.999   -4.643246    2.104588   -4.360354
  20 C     6.0000    0    12.011   -5.453750    4.493391    0.004157
  21 C     6.0000    0    12.011   -5.019680    6.707772    1.387248
  22 C     6.0000    0    12.011   -6.717409    7.459127    3.266770
  23 C     6.0000    0    12.011   -8.873776    5.998936    3.794570
  24 C     6.0000    0    12.011  -10.662402    6.794132    5.792011
  25 O     8.0000    0    15.999  -12.605229    5.499292    6.263308
  26 O     8.0000    0    15.999  -10.222474    8.983380    7.179825
  27 C     6.0000    0    12.011   -9.296886    3.773405    2.401086
  28 C     6.0000    0    12.011   -7.597455    3.029042    0.520431
  29 C     6.0000    0    12.011    4.201050    3.475017   -2.347985
  30 C     6.0000    0    12.011    6.702481    2.817204   -2.602720
  31 C     6.0000    0    12.011    8.403612    3.338957   -4.543091
  32 C     6.0000    0    12.011   10.869138    2.376142   -4.324638
  33 C     6.0000    0    12.011   11.565880    0.922564   -2.199641
  34 C     6.0000    0    12.011    9.806167    0.422732   -0.270798
  35 C     6.0000    0    12.011    7.367475    1.415972   -0.524966
  36 H     1.0000    0     1.008    5.884229   -3.900206    1.678833
  37 H     1.0000    0     1.008    2.619916   -3.028664    2.174886
  38 H     1.0000    0     1.008    4.534020   -4.013400    4.813888
  39 H     1.0000    0     1.008    4.050250    0.671042    4.829006
  40 H     1.0000    0     1.008    7.243887   -0.211082    4.346559
  41 H     1.0000    0     1.008    0.337316    4.583153    1.325076
  42 H     1.0000    0     1.008    0.545753    1.523497    2.720072
  43 H     1.0000    0     1.008    1.782390   -4.482241   -6.219467
  44 H     1.0000    0     1.008    0.846408   -9.011537   -5.721146
  45 H     1.0000    0     1.008   -1.238715  -12.453106   -3.380153
  46 H     1.0000    0     1.008   -3.768303  -11.517125    0.436149
  47 H     1.0000    0     1.008   -4.239790   -7.185117    1.946796
  48 H     1.0000    0     1.008   -3.692336   -0.217885    2.505399
  49 H     1.0000    0     1.008   -5.674848   -2.868982    1.842483
  50 H     1.0000    0     1.008   -2.863691   -3.235211    3.774728
  51 H     1.0000    0     1.008   -3.362201    7.849733    1.020641
  52 H     1.0000    0     1.008   -6.335874    9.179156    4.308954
  53 H     1.0000    0     1.008  -10.935467    2.603098    2.769205
  54 H     1.0000    0     1.008   -7.942708    1.297864   -0.515517
  55 H     1.0000    0     1.008    3.067781    4.552161   -3.665502
  56 H     1.0000    0     1.008    7.846143    4.442746   -6.172412
  57 H     1.0000    0     1.008   12.238811    2.745394   -5.797680
  58 H     1.0000    0     1.008   13.466755    0.182548   -2.055266
  59 H     1.0000    0     1.008   10.346818   -0.708647    1.342272

--------------------------------
INTERNAL COORDINATES (ANGSTROEM)
--------------------------------
 C      0   0   0     0.000000000000     0.00000000     0.00000000
 C      1   0   0     1.524029756927     0.00000000     0.00000000
 N      2   1   0     1.467813332819   110.45623066     0.00000000
 C      3   2   1     1.362787305488   127.76034885    86.70768871
 C      4   3   2     1.506208133028   125.73886243     0.13332637
 N      5   4   3     1.464497435983   110.55952557   237.59575946
 C      6   5   4     1.432167793940   120.24392364    63.24121014
 N      7   6   5     1.358630475884   118.34118221   266.02010940
 C      8   7   6     1.354446141417   122.51525825   179.22584382
 C      9   8   7     1.396913834136   120.16850902     0.08100760
 C     10   9   8     1.403780053997   120.26994301   180.14895994
 C     11  10   9     1.395391185295   120.19255688   180.09810012
 C     12  11  10     1.394730174622   120.09004292     0.00000000
 C     13  12  11     1.397735529347   120.33051167     0.00000000
 C     14  13  12     1.413022777594   120.59716434     0.05512939
 C      7   6   5     1.415403536098   121.48515180    85.66931475
 C     16   7   6     1.512569952101   120.77447279     0.37696561
 S      6   5   4     1.735457671624   120.44180292   244.27165105
 O     18   6   5     1.503359265113   109.69934437    53.83180563
 O     18   6   5     1.504267908320   109.87359058   172.76812161
 C     18   6   5     1.760152999032   109.47221964   292.87601370
 C     21  18   6     1.400555225616   120.17146366    89.90799004
 C     22  21  18     1.398011974198   120.28750795   181.62202408
 C     23  22  21     1.406123390745   120.43314928     0.17594165
 C     24  23  22     1.479926988064   120.30693014   179.76685908
 O     25  24  23     1.260432072743   120.55865620   179.61630179
 O     25  24  23     1.391280507303   120.44815222   359.56944909
 C     24  23  22     1.407432861631   119.00315321   359.93709165
 C     28  24  23     1.397970221428   120.42555789   359.97397567
 C      4   3   2     1.393285491204   110.71422936   181.29198634
 C     30   4   3     1.375327720945   105.30904623     1.17584792
 C     31  30   4     1.393165277345   130.08898470   178.67433058
 C     32  31  30     1.405416557466   117.86437266   181.17361788
 C     33  32  31     1.411420766462   120.37176167     0.23287419
 C     34  33  32     1.406741689153   120.50594288   359.85881832
 C      3   2   1     1.351636330527   126.57433160   270.08399437
 H      1   2   3     1.110263103953   110.08969814    59.71663265
 H      1   2   3     1.108109981004   110.20830046   299.33224094
 H      1   2   3     1.109362294293   109.67188056   179.67471614
 H      2   1   3     1.109388592874   110.09818548   122.48415511
 H      2   1   3     1.110363192834   109.35938425   238.46333204
 H      5   4   3     1.110234286086   108.32754008   116.65345810
 H      5   4   3     1.106489118790   111.69027901   358.95938072
 H      9   8   7     1.082999062788   119.06760882   180.16141016
 H     11  10   9     1.083868022409   120.70286883     0.08241612
 H     12  11  10     1.082716957473   119.97223847   179.97035778
 H     13  12  11     1.082692851182   119.78930770   179.99243389
 H     14  13  12     1.081328419122   117.74406113   180.07259385
 H     17  16   7     1.107099575467   113.15786318     0.54825632
 H     17  16   7     1.111014639868   109.71407239   120.34671970
 H     17  16   7     1.110921437366   109.65182802   240.75035392
 H     22  21  18     1.082644401454   120.41311562     1.27222928
 H     23  22  21     1.083226615256   118.77755750   179.96159218
 H     28  24  23     1.083209093389   120.76569770   179.69270199
 H     29  28  24     1.083116678849   119.34828842   179.22658700
 H     30   4   3     1.081955604450   127.53952888   179.64293239
 H     32  31  30     1.082398563377   121.19351094     0.89938959
 H     33  32  31     1.082190579334   119.80513014   179.99425203
 H     34  33  32     1.082137851662   119.75469518   179.69177102
 H     35  34  33     1.081169672161   120.11952698   179.35386539

---------------------------
INTERNAL COORDINATES (A.U.)
---------------------------
 C      0   0   0     0.000000000000     0.00000000     0.00000000
 C      1   0   0     2.879998860539     0.00000000     0.00000000
 N      2   1   0     2.773765214745   110.45623066     0.00000000
 C      3   2   1     2.575294786157   127.76034885    86.70768871
 C      4   3   2     2.846320872108   125.73886243     0.13332637
 N      5   4   3     2.767499077837   110.55952557   237.59575946
 C      6   5   4     2.706404908369   120.24392364    63.24121014
 N      7   6   5     2.567439516619   118.34118221   266.02010940
 C      8   7   6     2.559532270425   122.51525825   179.22584382
 C      9   8   7     2.639784579203   120.16850902     0.08100760
 C     10   9   8     2.652759854316   120.26994301   180.14895994
 C     11  10   9     2.636907189896   120.19255688   180.09810012
 C     12  11  10     2.635658060751   120.09004292     0.00000000
 C     13  12  11     2.641337358118   120.33051167     0.00000000
 C     14  13  12     2.670226070646   120.59716434     0.05512939
 C      7   6   5     2.674725052210   121.48515180    85.66931475
 C     16   7   6     2.858342967870   120.77447279     0.37696561
 S      6   5   4     3.279539716383   120.44180292   244.27165105
 O     18   6   5     2.840937291956   109.69934437    53.83180563
 O     18   6   5     2.842654378770   109.87359058   172.76812161
 C     18   6   5     3.326207121970   109.47221964   292.87601370
 C     21  18   6     2.646665811846   120.17146366    89.90799004
 C     22  21  18     2.641859763176   120.28750795   181.62202408
 C     23  22  21     2.657188119009   120.43314928     0.17594165
 C     24  23  22     2.796656705640   120.30693014   179.76685908
 O     25  24  23     2.381871427896   120.55865620   179.61630179
 O     25  24  23     2.629139134265   120.44815222   359.56944909
 C     24  23  22     2.659662660364   119.00315321   359.93709165
 C     28  24  23     2.641780861877   120.42555789   359.97397567
 C      4   3   2     2.632928004742   110.71422936   181.29198634
 C     30   4   3     2.598992736976   105.30904623     1.17584792
 C     31  30   4     2.632700833471   130.08898470   178.67433058
 C     32  31  30     2.655852397689   117.86437266   181.17361788
 C     33  32  31     2.667198708342   120.37176167     0.23287419
 C     34  33  32     2.658356533668   120.50594288   359.85881832
 C      3   2   1     2.554222497354   126.57433160   270.08399437
 H      1   2   3     2.098093203069   110.08969814    59.71663265
 H      1   2   3     2.094024390362   110.20830046   299.33224094
 H      1   2   3     2.096390919513   109.67188056   179.67471614
 H      2   1   3     2.096440616629   110.09818548   122.48415511
 H      2   1   3     2.098282343642   109.35938425   238.46333204
 H      5   4   3     2.098038745191   108.32754008   116.65345810
 H      5   4   3     2.090961404676   111.69027901   358.95938072
 H      9   8   7     2.046571631963   119.06760882   180.16141016
 H     11  10   9     2.048213727667   120.70286883     0.08241612
 H     12  11  10     2.046038530177   119.97223847   179.97035778
 H     13  12  11     2.045992975888   119.78930770   179.99243389
 H     14  13  12     2.043414572966   117.74406113   180.07259385
 H     17  16   7     2.092115000614   113.15786318     0.54825632
 H     17  16   7     2.099513400127   109.71407239   120.34671970
 H     17  16   7     2.099337272924   109.65182802   240.75035392
 H     22  21  18     2.045901419171   120.41311562     1.27222928
 H     23  22  21     2.047001643809   118.77755750   179.96159218
 H     28  24  23     2.046968532278   120.76569770   179.69270199
 H     29  28  24     2.046793894106   119.34828842   179.22658700
 H     30   4   3     2.044599781471   127.53952888   179.64293239
 H     32  31  30     2.045436852532   121.19351094     0.89938959
 H     33  32  31     2.045043819651   119.80513014   179.99425203
 H     34  33  32     2.044944178791   119.75469518   179.69177102
 H     35  34  33     2.043114584685   120.11952698   179.35386539

---------------------
BASIS SET INFORMATION
---------------------
There are 5 groups of distinct atoms

 Group   1 Type C   : 10s4p1d contracted to 3s2p1d pattern {631/31/1}
 Group   2 Type N   : 10s4p1d contracted to 3s2p1d pattern {631/31/1}
 Group   3 Type S   : 16s10p1d contracted to 4s3p1d pattern {6631/631/1}
 Group   4 Type O   : 10s4p1d contracted to 3s2p1d pattern {631/31/1}
 Group   5 Type H   : 4s contracted to 2s pattern {31}

Atom   0C    basis set group =>   1
Atom   1C    basis set group =>   1
Atom   2N    basis set group =>   2
Atom   3C    basis set group =>   1
Atom   4C    basis set group =>   1
Atom   5N    basis set group =>   2
Atom   6C    basis set group =>   1
Atom   7N    basis set group =>   2
Atom   8C    basis set group =>   1
Atom   9C    basis set group =>   1
Atom  10C    basis set group =>   1
Atom  11C    basis set group =>   1
Atom  12C    basis set group =>   1
Atom  13C    basis set group =>   1
Atom  14C    basis set group =>   1
Atom  15C    basis set group =>   1
Atom  16C    basis set group =>   1
Atom  17S    basis set group =>   3
Atom  18O    basis set group =>   4
Atom  19O    basis set group =>   4
Atom  20C    basis set group =>   1
Atom  21C    basis set group =>   1
Atom  22C    basis set group =>   1
Atom  23C    basis set group =>   1
Atom  24C    basis set group =>   1
Atom  25O    basis set group =>   4
Atom  26O    basis set group =>   4
Atom  27C    basis set group =>   1
Atom  28C    basis set group =>   1
Atom  29C    basis set group =>   1
Atom  30C    basis set group =>   1
Atom  31C    basis set group =>   1
Atom  32C    basis set group =>   1
Atom  33C    basis set group =>   1
Atom  34C    basis set group =>   1
Atom  35C    basis set group =>   1
Atom  36H    basis set group =>   5
Atom  37H    basis set group =>   5
Atom  38H    basis set group =>   5
Atom  39H    basis set group =>   5
Atom  40H    basis set group =>   5
Atom  41H    basis set group =>   5
Atom  42H    basis set group =>   5
Atom  43H    basis set group =>   5
Atom  44H    basis set group =>   5
Atom  45H    basis set group =>   5
Atom  46H    basis set group =>   5
Atom  47H    basis set group =>   5
Atom  48H    basis set group =>   5
Atom  49H    basis set group =>   5
Atom  50H    basis set group =>   5
Atom  51H    basis set group =>   5
Atom  52H    basis set group =>   5
Atom  53H    basis set group =>   5
Atom  54H    basis set group =>   5
Atom  55H    basis set group =>   5
Atom  56H    basis set group =>   5
Atom  57H    basis set group =>   5
Atom  58H    basis set group =>   5
Atom  59H    basis set group =>   5
---------------------------------
AUXILIARY/J BASIS SET INFORMATION
---------------------------------
There are 5 groups of distinct atoms

 Group   1 Type C   : 12s5p4d2f1g contracted to 6s4p3d1f1g pattern {711111/2111/211/2/1}
 Group   2 Type N   : 12s5p4d2f1g contracted to 6s4p3d1f1g pattern {711111/2111/211/2/1}
 Group   3 Type S   : 14s5p5d2f1g contracted to 8s4p3d1f1g pattern {71111111/2111/311/2/1}
 Group   4 Type O   : 12s5p4d2f1g contracted to 6s4p3d1f1g pattern {711111/2111/211/2/1}
 Group   5 Type H   : 5s2p1d contracted to 3s1p1d pattern {311/2/1}

Atom   0C    basis set group =>   1
Atom   1C    basis set group =>   1
Atom   2N    basis set group =>   2
Atom   3C    basis set group =>   1
Atom   4C    basis set group =>   1
Atom   5N    basis set group =>   2
Atom   6C    basis set group =>   1
Atom   7N    basis set group =>   2
Atom   8C    basis set group =>   1
Atom   9C    basis set group =>   1
Atom  10C    basis set group =>   1
Atom  11C    basis set group =>   1
Atom  12C    basis set group =>   1
Atom  13C    basis set group =>   1
Atom  14C    basis set group =>   1
Atom  15C    basis set group =>   1
Atom  16C    basis set group =>   1
Atom  17S    basis set group =>   3
Atom  18O    basis set group =>   4
Atom  19O    basis set group =>   4
Atom  20C    basis set group =>   1
Atom  21C    basis set group =>   1
Atom  22C    basis set group =>   1
Atom  23C    basis set group =>   1
Atom  24C    basis set group =>   1
Atom  25O    basis set group =>   4
Atom  26O    basis set group =>   4
Atom  27C    basis set group =>   1
Atom  28C    basis set group =>   1
Atom  29C    basis set group =>   1
Atom  30C    basis set group =>   1
Atom  31C    basis set group =>   1
Atom  32C    basis set group =>   1
Atom  33C    basis set group =>   1
Atom  34C    basis set group =>   1
Atom  35C    basis set group =>   1
Atom  36H    basis set group =>   5
Atom  37H    basis set group =>   5
Atom  38H    basis set group =>   5
Atom  39H    basis set group =>   5
Atom  40H    basis set group =>   5
Atom  41H    basis set group =>   5
Atom  42H    basis set group =>   5
Atom  43H    basis set group =>   5
Atom  44H    basis set group =>   5
Atom  45H    basis set group =>   5
Atom  46H    basis set group =>   5
Atom  47H    basis set group =>   5
Atom  48H    basis set group =>   5
Atom  49H    basis set group =>   5
Atom  50H    basis set group =>   5
Atom  51H    basis set group =>   5
Atom  52H    basis set group =>   5
Atom  53H    basis set group =>   5
Atom  54H    basis set group =>   5
Atom  55H    basis set group =>   5
Atom  56H    basis set group =>   5
Atom  57H    basis set group =>   5
Atom  58H    basis set group =>   5
Atom  59H    basis set group =>   5
------------------------------------------------------------------------------
                             ORCA STARTUP CALCULATIONS
                           -- RI-GTO INTEGRALS CHOSEN --
------------------------------------------------------------------------------
------------------------------------------------------------------------------
                   ___                                                        
                  /   \      - P O W E R E D   B Y -                         
                 /     \                                                     
                 |  |  |   _    _      __       _____    __    __             
                 |  |  |  | |  | |    /  \     |  _  \  |  |  /  |          
                  \  \/   | |  | |   /    \    | | | |  |  | /  /          
                 / \  \   | |__| |  /  /\  \   | |_| |  |  |/  /          
                |  |  |   |  __  | /  /__\  \  |    /   |      \           
                |  |  |   | |  | | |   __   |  |    \   |  |\   \          
                \     /   | |  | | |  |  |  |  | |\  \  |  | \   \       
                 \___/    |_|  |_| |__|  |__|  |_| \__\ |__|  \__/        
                                                                              
                      - O R C A' S   B I G   F R I E N D -                    
                                      &                                       
                       - I N T E G R A L  F E E D E R -                       
                                                                              
 v1 FN, 2020, v2 2021, v3 2022-2024                                           
------------------------------------------------------------------------------


----------------------
SHARK INTEGRAL PACKAGE
----------------------

Number of atoms                             ...     60
Number of basis functions                   ...    556
Number of shells                            ...    266
Maximum angular momentum                    ...      2
Integral batch strategy                     ... SHARK/LIBINT Hybrid
RI-J (if used) integral strategy            ... SPLIT-RIJ (Revised 2003 algorithm where possible)
Printlevel                                  ...      1
Contraction scheme used                     ... SEGMENTED contraction
Prescreening option                         ... SCHWARTZ
   Thresh                                   ... 1.000e-10
   Tcut                                     ... 1.000e-11
   Tpresel                                  ... 1.000e-11 
Coulomb Range Separation                    ... NOT USED
Exchange Range Separation                   ... NOT USED
Multipole approximations                    ... NOT USED
Finite Nucleus Model                        ... NOT USED
CABS basis                                  ... NOT available
Auxiliary Coulomb fitting basis             ... AVAILABLE
   # of basis functions in Aux-J            ...   2030
   # of shells in Aux-J                     ...    662
   Maximum angular momentum in Aux-J        ...      4
Auxiliary J/K fitting basis                 ... NOT available
Auxiliary Correlation fitting basis         ... NOT available
Auxiliary 'external' fitting basis          ... NOT available

Checking pre-screening integrals            ... done (  0.0 sec) Dimension = 266
Check shell pair data                       ... done (  0.0 sec)
Shell pair information
Shell pair cut-off parameter TPreSel        ...   1.0e-11
Total number of shell pairs                 ...     35511
Shell pairs after pre-screening             ...     20077
Total number of primitive shell pairs       ...    211134
Primitive shell pairs kept                  ...     60131
          la=0 lb=0:   6612 shell pairs
          la=1 lb=0:   7113 shell pairs
          la=1 lb=1:   1920 shell pairs
          la=2 lb=0:   2641 shell pairs
          la=2 lb=1:   1517 shell pairs
          la=2 lb=2:    274 shell pairs

Calculating one electron integrals          ... done (  0.3 sec)
Calculating RI/J V-Matrix + Cholesky decomp.... done (  0.6 sec)
Calculating Nuclear repulsion               ... done (  0.0 sec) ENN=   3995.012256842237 Eh

Diagonalization of the overlap matrix:
Smallest eigenvalue                        ... 3.545e-04
Time for diagonalization                   ...    0.057 sec
Threshold for overlap eigenvalues          ... 1.000e-07
Number of eigenvalues below threshold      ... 0
Time for construction of square roots      ...    0.043 sec
Total time needed                          ...    0.110 sec

-------------------
DFT GRID GENERATION
-------------------

General Integration Accuracy     IntAcc      ... 4.388
Radial Grid Type                 RadialGrid  ... OptM3 with GC (2021)
Angular Grid (max. ang.)         AngularGrid ... 4 (Lebedev-302)
Angular grid pruning method      GridPruning ... 4 (adaptive)
Weight generation scheme         WeightScheme... mBecke (2022)
Basis function cutoff            BFCut       ... 1.0000e-10
Integration weight cutoff        WCut        ... 1.0000e-14
Partially contracted basis set               ... off
Rotationally invariant grid construction     ... off
Angular grids for H and He will be reduced by one unit

Total number of grid points                  ...   291623
Total number of batches                      ...     4588
Average number of points per batch           ...       63
Average number of grid points per atom       ...     4860

--------------------
COSX GRID GENERATION
--------------------

GRIDX 1
-------
General Integration Accuracy     IntAcc      ... 3.816
Radial Grid Type                 RadialGrid  ... OptM3 with GC (2021)
Angular Grid (max. ang.)         AngularGrid ... 1 (Lebedev-50)
Angular grid pruning method      GridPruning ... 4 (adaptive)
Weight generation scheme         WeightScheme... mBecke (2022)
Basis function cutoff            BFCut       ... 1.0000e-10
Integration weight cutoff        WCut        ... 1.0000e-14
Partially contracted basis set               ... on
Rotationally invariant grid construction     ... off
Angular grids for H and He will be reduced by one unit

Total number of grid points                  ...    37969
Total number of batches                      ...      329
Average number of points per batch           ...      115
Average number of grid points per atom       ...      633
UseSFitting                                  ... on

GRIDX 2
-------
General Integration Accuracy     IntAcc      ... 4.020
Radial Grid Type                 RadialGrid  ... OptM3 with GC (2021)
Angular Grid (max. ang.)         AngularGrid ... 2 (Lebedev-110)
Angular grid pruning method      GridPruning ... 4 (adaptive)
Weight generation scheme         WeightScheme... mBecke (2022)
Basis function cutoff            BFCut       ... 1.0000e-10
Integration weight cutoff        WCut        ... 1.0000e-14
Partially contracted basis set               ... on
Rotationally invariant grid construction     ... off
Angular grids for H and He will be reduced by one unit

Total number of grid points                  ...    80233
Total number of batches                      ...      660
Average number of points per batch           ...      121
Average number of grid points per atom       ...     1337
UseSFitting                                  ... on

GRIDX 3
-------
General Integration Accuracy     IntAcc      ... 4.338
Radial Grid Type                 RadialGrid  ... OptM3 with GC (2021)
Angular Grid (max. ang.)         AngularGrid ... 3 (Lebedev-194)
Angular grid pruning method      GridPruning ... 4 (adaptive)
Weight generation scheme         WeightScheme... mBecke (2022)
Basis function cutoff            BFCut       ... 1.0000e-10
Integration weight cutoff        WCut        ... 1.0000e-14
Partially contracted basis set               ... on
Rotationally invariant grid construction     ... off
Angular grids for H and He will be reduced by one unit

Total number of grid points                  ...   175457
Total number of batches                      ...     1400
Average number of points per batch           ...      125
Average number of grid points per atom       ...     2924
UseSFitting                                  ... on
Initializing property integral containers    ... done (  0.0 sec)

SHARK setup successfully completed in  17.4 seconds

Maximum memory used throughout the entire STARTUP-calculation: 129.4 MB
-------------------------------------------------------------------------------
                                 ORCA GUESS
                   Start orbitals & Density for SCF / CASSCF
-------------------------------------------------------------------------------

------------
SCF SETTINGS
------------
Hamiltonian:
 Density Functional     Method          .... DFT(GTOs)
 Exchange Functional    Exchange        .... B88
   X-Alpha parameter    XAlpha          ....  0.666667
   Becke's b parameter  XBeta           ....  0.004200
 Correlation Functional Correlation     .... LYP
 LDA part of GGA corr.  LDAOpt          .... VWN-5
 Gradients option       PostSCFGGA      .... off
 Hybrid DFT is turned on
   Fraction HF Exchange ScalHFX         ....  0.200000
   Scaling of DF-GGA-X  ScalDFX         ....  0.720000
   Scaling of DF-GGA-C  ScalDFC         ....  0.810000
   Scaling of DF-LDA-C  ScalLDAC        ....  1.000000
   Perturbative correction              ....  0.000000
   NL short-range parameter             ....  4.800000
 RI-approximation to the Coulomb term is turned on
   Number of AuxJ basis functions       .... 2030
   RIJ-COSX (HFX calculated with COS-X)).... on


General Settings:
 Integral files         IntName         .... /home/nmrbox/aojoawo/Documents/ERDOS/inputs/CHEMBL3687332
 Hartree-Fock type      HFTyp           .... RHF
 Total Charge           Charge          ....   -1
 Multiplicity           Mult            ....    1
 Number of Electrons    NEL             ....  262
 Basis Dimension        Dim             ....  556
 Nuclear Repulsion      ENuc            ....   3995.0122568422 Eh

Convergence Acceleration:
 AO-DIIS                CNVDIIS         .... on
   Start iteration      DIISMaxIt       ....    12
   Startup error        DIISStart       ....  0.200000
   # of expansion vecs  DIISMaxEq       ....     5
   Bias factor          DIISBfac        ....   1.050
   Max. coefficient     DIISMaxC        ....  10.000
 MO-DIIS                CNVKDIIS        .... off
 Trust-Rad. Augm. Hess. CNVTRAH         .... auto
   Auto Start mean grad. ratio tolernc. ....  1.125000
   Auto Start start iteration           ....    50
   Auto Start num. interpolation iter.  ....    10
   Max. Number of Micro iterations      ....    24
   Max. Number of Macro iterations      .... Maxiter - #DIIS iter
   Number of Davidson start vectors     ....     2
   Converg. threshold    (grad. norm)   ....   5.000e-05
   Grad. Scal. Fac. for Micro threshold ....   0.100
   Minimum threshold for Micro iter.    ....   1.000e-02
   NR start threshold (gradient norm)   ....   1.000e-04
   Initial trust radius                 ....   0.400
   Minimum AH scaling param. (alpha)    ....   1.000
   Maximum AH scaling param. (alpha)    .... 1000.000
   Quad. conv. algorithm                .... NR
   White noise on init. David. guess    .... on
   Maximum white noise                  ....   0.010
   Pseudo random numbers                .... off
   Inactive MOs                         .... canonical
   Orbital update algorithm             .... Taylor
   Preconditioner                       .... Diag
   Full preconditioner red. dimension   ....   250
 SOSCF                  CNVSOSCF        .... on
   Start iteration      SOSCFMaxIt      ....   150
   Startup grad/error   SOSCFStart      ....  0.003300
   Hessian update       SOSCFHessUp     .... L-BFGS
 Level Shifting         CNVShift        .... on
   Level shift para.    LevelShift      ....    0.2500
   Turn off err/grad.   ShiftErr        ....    0.0010
 Zerner damping         CNVZerner       .... off
 Static damping         CNVDamp         .... on
   Fraction old density DampFac         ....    0.7000
   Max. Damping (<1)    DampMax         ....    0.9800
   Min. Damping (>=0)   DampMin         ....    0.0000
   Turn off err/grad.   DampErr         ....    0.1000

SCF Procedure:
 Maximum # iterations   MaxIter         ....   125
 SCF integral mode      SCFMode         .... Direct
   Integral package                     .... SHARK and LIBINT hybrid scheme
 Reset frequency        DirectResetFreq ....    20
 Integral Threshold     Thresh          ....  1.000e-10 Eh
 Primitive CutOff       TCut            ....  1.000e-11 Eh

Convergence Tolerance:
 Convergence Check Mode ConvCheckMode   .... Total+1el-Energy
 Convergence forced     ConvForced      .... 0
 Energy Change          TolE            ....  1.000e-06 Eh
 1-El. energy change                    ....  1.000e-03 Eh
 Orbital Gradient       TolG            ....  5.000e-05
 Orbital Rotation angle TolX            ....  5.000e-05
 DIIS Error             TolErr          ....  1.000e-06

------------------------------
INITIAL GUESS: MODEL POTENTIAL
------------------------------
Loading Hartree-Fock densities                     ... done
Calculating cut-offs                               ... done
Initializing the effective Hamiltonian             ... done
Setting up the integral package (SHARK)            ... done
Starting the Coulomb interaction                   ... done (   5.3 sec)
Making the grid                                    ... done (   2.1 sec)
Mapping shells                                     ... done
Starting the XC term evaluation                    ... done (   1.5 sec)
  promolecular density results
     # of electrons  =    260.988282060
     EX              =   -228.685549456
     EC              =     -9.057860221
     EX+EC           =   -237.743409677
Transforming the Hamiltonian                       ... done (   0.0 sec)
Diagonalizing the Hamiltonian                      ... done (   0.1 sec)
Back transforming the eigenvectors                 ... done (   0.0 sec)
Now organizing SCF variables                       ... done
                      ------------------
                      INITIAL GUESS DONE (   9.1 sec)
                      ------------------
             **** ENERGY FILE WAS UPDATED (/home/nmrbox/aojoawo/Documents/ERDOS/inputs/CHEMBL3687332.en.tmp) ****
Finished Guess after   9.5 sec
Maximum memory used throughout the entire GUESS-calculation: 71.6 MB

-------------------------------------------------------------------------------------------
                                      ORCA LEAN-SCF
                              memory conserving SCF solver
-------------------------------------------------------------------------------------------

----------------------------------------D-I-I-S--------------------------------------------
Iteration    Energy (Eh)           Delta-E    RMSDP     MaxDP     DIISErr   Damp  Time(sec)
-------------------------------------------------------------------------------------------
               ***  Starting incremental Fock matrix formation  ***
    1    -1942.5929759004829975     0.00e+00  2.70e-03  1.87e-01  3.20e-01  0.700  91.5
Warning: op=0 Small HOMO/LUMO gap (  -0.051) - skipping pre-diagonalization
         Will do a full diagonalization
    2    -1943.1271481059029611    -5.34e-01  1.66e-03  9.73e-02  1.21e-01  0.700  41.3
                               ***Turning on AO-DIIS***
    3    -1943.3247112882945657    -1.98e-01  6.76e-04  1.83e-02  3.50e-02  0.700  40.4
    4    -1943.4461605650085403    -1.21e-01  1.18e-03  3.43e-02  1.63e-02  0.000  37.4
    5    -1943.7163689895887728    -2.70e-01  2.69e-04  1.08e-02  6.99e-03  0.000  40.0
                              *** Initializing SOSCF ***
---------------------------------------S-O-S-C-F--------------------------------------
Iteration    Energy (Eh)           Delta-E    RMSDP     MaxDP     MaxGrad    Time(sec)
--------------------------------------------------------------------------------------
    6    -1943.7183075585617189    -1.94e-03  9.71e-05  3.75e-03  2.34e-03    33.7
               *** Restarting incremental Fock matrix formation ***
    7    -1943.7182994954582682     8.06e-06  8.15e-05  3.26e-03  9.27e-04    93.0
    8    -1943.7182904512737878     9.04e-06  4.55e-05  2.00e-03  1.21e-03    53.4
    9    -1943.7183727600722705    -8.23e-05  2.07e-05  1.18e-03  2.86e-04    48.3
   10    -1943.7183693938641227     3.37e-06  1.23e-05  8.36e-04  4.31e-04    41.0
   11    -1943.7183775633438927    -8.17e-06  6.20e-06  2.42e-04  5.29e-05    35.8
   12    -1943.7183775971125215    -3.38e-08  3.96e-06  1.30e-04  9.41e-05    32.8
                 **** Energy Check signals convergence ****

               *****************************************************
               *                     SUCCESS                       *
               *           SCF CONVERGED AFTER  12 CYCLES          *
               *****************************************************

Recomputing exchange energy using gridx3       ... done (  159.793 sec)
Old exchange energy                            :    -46.374715045 Eh
New exchange energy                            :    -46.374747746 Eh
Exchange energy change after final integration :     -0.000032701 Eh
Total energy after final integration           :  -1943.718410298 Eh
             **** ENERGY FILE WAS UPDATED (/home/nmrbox/aojoawo/Documents/ERDOS/inputs/CHEMBL3687332.en.tmp) ****

----------------
TOTAL SCF ENERGY
----------------

Total Energy       :      -1943.71841029782058 Eh          -52891.26688 eV

Components:
Nuclear Repulsion  :       3995.01225684223664 Eh          108709.81021 eV
Electronic Energy  :      -5938.73063443934916 Eh         -161601.07620 eV
One Electron Energy:     -10626.36898090919385 Eh         -289158.20049 eV
Two Electron Energy:       4687.63834646984469 Eh          127557.12429 eV

Virial components:
Potential Energy   :      -3877.05527277724650 Eh         -105500.03749 eV
Kinetic Energy     :       1933.33686247942592 Eh           52608.77061 eV
Virial Ratio       :          2.00536975631090

DFT components:
N(Alpha)           :      131.000182126348 electrons
N(Beta)            :      131.000182126348 electrons
N(Total)           :      262.000364252697 electrons
E(X)               :     -184.259911220688 Eh       
E(C)               :      -10.684812535082 Eh       
E(XC)              :     -194.944723755770 Eh       

---------------
SCF CONVERGENCE
---------------

  Last Energy change         ...    3.3769e-08  Tolerance :   1.0000e-06
  Last MAX-Density change    ...    1.2995e-04  Tolerance :   1.0000e-05
  Last RMS-Density change    ...    3.9645e-06  Tolerance :   1.0000e-06
  Last DIIS Error            ...    2.3437e-03  Tolerance :   1.0000e-06
  Last Orbital Gradient      ...    9.4139e-05  Tolerance :   5.0000e-05
  Last Orbital Rotation      ...    3.4164e-04  Tolerance :   5.0000e-05


----------------
ORBITAL ENERGIES
----------------

  NO   OCC          E(Eh)            E(eV) 
   0   2.0000     -89.001865     -2421.8639 
   1   2.0000     -19.031612      -517.8765 
   2   2.0000     -19.031351      -517.8694 
   3   2.0000     -18.908800      -514.5346 
   4   2.0000     -18.888107      -513.9715 
   5   2.0000     -14.308074      -389.3425 
   6   2.0000     -14.283347      -388.6696 
   7   2.0000     -14.260228      -388.0405 
   8   2.0000     -10.189304      -277.2650 
   9   2.0000     -10.175014      -276.8762 
  10   2.0000     -10.163868      -276.5729 
  11   2.0000     -10.157315      -276.3946 
  12   2.0000     -10.143792      -276.0266 
  13   2.0000     -10.143169      -276.0097 
  14   2.0000     -10.139565      -275.9116 
  15   2.0000     -10.138974      -275.8955 
  16   2.0000     -10.138095      -275.8716 
  17   2.0000     -10.137682      -275.8604 
  18   2.0000     -10.137570      -275.8573 
  19   2.0000     -10.136682      -275.8331 
  20   2.0000     -10.130977      -275.6779 
  21   2.0000     -10.124694      -275.5069 
  22   2.0000     -10.118765      -275.3456 
  23   2.0000     -10.117187      -275.3026 
  24   2.0000     -10.111325      -275.1431 
  25   2.0000     -10.107128      -275.0289 
  26   2.0000     -10.103047      -274.9179 
  27   2.0000     -10.102057      -274.8909 
  28   2.0000     -10.096993      -274.7531 
  29   2.0000     -10.095847      -274.7220 
  30   2.0000     -10.094344      -274.6811 
  31   2.0000     -10.089688      -274.5544 
  32   2.0000     -10.078233      -274.2426 
  33   2.0000     -10.076739      -274.2020 
  34   2.0000     -10.076464      -274.1945 
  35   2.0000     -10.075487      -274.1680 
  36   2.0000      -8.037416      -218.7092 
  37   2.0000      -6.002797      -163.3444 
  38   2.0000      -6.000642      -163.2858 
  39   2.0000      -5.999514      -163.2551 
  40   2.0000      -0.989032       -26.9129 
  41   2.0000      -0.931943       -25.3594 
  42   2.0000      -0.886367       -24.1193 
  43   2.0000      -0.868126       -23.6229 
  44   2.0000      -0.838649       -22.8208 
  45   2.0000      -0.817837       -22.2545 
  46   2.0000      -0.801795       -21.8180 
  47   2.0000      -0.776206       -21.1216 
  48   2.0000      -0.759289       -20.6613 
  49   2.0000      -0.744715       -20.2647 
  50   2.0000      -0.738417       -20.0934 
  51   2.0000      -0.714488       -19.4422 
  52   2.0000      -0.698963       -19.0197 
  53   2.0000      -0.694180       -18.8896 
  54   2.0000      -0.683736       -18.6054 
  55   2.0000      -0.677175       -18.4269 
  56   2.0000      -0.663810       -18.0632 
  57   2.0000      -0.650461       -17.6999 
  58   2.0000      -0.646400       -17.5894 
  59   2.0000      -0.632272       -17.2050 
  60   2.0000      -0.611493       -16.6396 
  61   2.0000      -0.588034       -16.0012 
  62   2.0000      -0.582285       -15.8448 
  63   2.0000      -0.579362       -15.7653 
  64   2.0000      -0.550225       -14.9724 
  65   2.0000      -0.532764       -14.4972 
  66   2.0000      -0.529944       -14.4205 
  67   2.0000      -0.513986       -13.9863 
  68   2.0000      -0.504981       -13.7412 
  69   2.0000      -0.502388       -13.6707 
  70   2.0000      -0.493167       -13.4197 
  71   2.0000      -0.470695       -12.8083 
  72   2.0000      -0.455697       -12.4002 
  73   2.0000      -0.452838       -12.3224 
  74   2.0000      -0.439581       -11.9616 
  75   2.0000      -0.437174       -11.8961 
  76   2.0000      -0.425127       -11.5683 
  77   2.0000      -0.421253       -11.4629 
  78   2.0000      -0.410709       -11.1760 
  79   2.0000      -0.398510       -10.8440 
  80   2.0000      -0.393943       -10.7197 
  81   2.0000      -0.388395       -10.5688 
  82   2.0000      -0.385345       -10.4858 
  83   2.0000      -0.379087       -10.3155 
  84   2.0000      -0.376746       -10.2518 
  85   2.0000      -0.370987       -10.0951 
  86   2.0000      -0.366910        -9.9841 
  87   2.0000      -0.365766        -9.9530 
  88   2.0000      -0.357989        -9.7414 
  89   2.0000      -0.355942        -9.6857 
  90   2.0000      -0.344209        -9.3664 
  91   2.0000      -0.339782        -9.2459 
  92   2.0000      -0.337782        -9.1915 
  93   2.0000      -0.333262        -9.0685 
  94   2.0000      -0.331659        -9.0249 
  95   2.0000      -0.325933        -8.8691 
  96   2.0000      -0.324011        -8.8168 
  97   2.0000      -0.321178        -8.7397 
  98   2.0000      -0.319865        -8.7040 
  99   2.0000      -0.316201        -8.6043 
 100   2.0000      -0.310906        -8.4602 
 101   2.0000      -0.306990        -8.3536 
 102   2.0000      -0.300411        -8.1746 
 103   2.0000      -0.294565        -8.0155 
 104   2.0000      -0.290350        -7.9008 
 105   2.0000      -0.287095        -7.8123 
 106   2.0000      -0.278036        -7.5657 
 107   2.0000      -0.274785        -7.4773 
 108   2.0000      -0.265342        -7.2203 
 109   2.0000      -0.252179        -6.8621 
 110   2.0000      -0.247405        -6.7322 
 111   2.0000      -0.237450        -6.4614 
 112   2.0000      -0.231514        -6.2998 
 113   2.0000      -0.227945        -6.2027 
 114   2.0000      -0.214806        -5.8452 
 115   2.0000      -0.209469        -5.6999 
 116   2.0000      -0.202737        -5.5168 
 117   2.0000      -0.200027        -5.4430 
 118   2.0000      -0.196808        -5.3554 
 119   2.0000      -0.188024        -5.1164 
 120   2.0000      -0.183146        -4.9837 
 121   2.0000      -0.179061        -4.8725 
 122   2.0000      -0.171878        -4.6770 
 123   2.0000      -0.159989        -4.3535 
 124   2.0000      -0.152900        -4.1606 
 125   2.0000      -0.148387        -4.0378 
 126   2.0000      -0.132610        -3.6085 
 127   2.0000      -0.116479        -3.1695 
 128   2.0000      -0.062915        -1.7120 
 129   2.0000      -0.041143        -1.1196 
 130   2.0000      -0.024584        -0.6690 
 131   0.0000       0.001207         0.0329 
 132   0.0000       0.032424         0.8823 
 133   0.0000       0.056873         1.5476 
 134   0.0000       0.065890         1.7930 
 135   0.0000       0.082954         2.2573 
 136   0.0000       0.096219         2.6182 
 137   0.0000       0.100161         2.7255 
 138   0.0000       0.117332         3.1928 
 139   0.0000       0.127225         3.4620 
 140   0.0000       0.136157         3.7050 
 141   0.0000       0.147003         4.0001 
*Only the first 10 virtual orbitals were printed.

                    ********************************
                    * MULLIKEN POPULATION ANALYSIS *
                    ********************************

-----------------------
MULLIKEN ATOMIC CHARGES
-----------------------
   0 C :   -0.441306
   1 C :   -0.166949
   2 N :   -0.470936
   3 C :    0.264792
   4 C :   -0.233646
   5 N :   -0.604501
   6 C :    0.323951
   7 N :   -0.353267
   8 C :   -0.054494
   9 C :    0.139894
  10 C :   -0.203166
  11 C :   -0.128710
  12 C :   -0.123322
  13 C :   -0.198898
  14 C :    0.122187
  15 C :    0.095196
  16 C :   -0.547301
  17 S :    1.188575
  18 O :   -0.559917
  19 O :   -0.555147
  20 C :   -0.141251
  21 C :   -0.161383
  22 C :   -0.150930
  23 C :    0.104199
  24 C :    0.411357
  25 O :   -0.552120
  26 O :   -0.657275
  27 C :   -0.159123
  28 C :   -0.155664
  29 C :   -0.236760
  30 C :    0.134850
  31 C :   -0.202786
  32 C :   -0.148103
  33 C :   -0.148567
  34 C :   -0.192170
  35 C :    0.287211
  36 H :    0.160956
  37 H :    0.168780
  38 H :    0.135156
  39 H :    0.161225
  40 H :    0.156518
  41 H :    0.195710
  42 H :    0.141896
  43 H :    0.144885
  44 H :    0.129870
  45 H :    0.121469
  46 H :    0.125820
  47 H :    0.138537
  48 H :    0.195074
  49 H :    0.172325
  50 H :    0.148082
  51 H :    0.142898
  52 H :    0.153203
  53 H :    0.145964
  54 H :    0.143840
  55 H :    0.169343
  56 H :    0.119652
  57 H :    0.099939
  58 H :    0.099766
  59 H :    0.104569
Sum of atomic charges:   -1.0000000

--------------------------------
MULLIKEN REDUCED ORBITAL CHARGES
--------------------------------
  0 C s       :     3.308073  s :     3.308073
      pz      :     1.057502  p :     3.099585
      px      :     1.088982
      py      :     0.953101
      dz2     :     0.005144  d :     0.033648
      dxz     :     0.006782
      dyz     :     0.008169
      dx2y2   :     0.008562
      dxy     :     0.004991

  1 C s       :     3.226793  s :     3.226793
      pz      :     0.877910  p :     2.886381
      px      :     1.078551
      py      :     0.929920
      dz2     :     0.010972  d :     0.053775
      dxz     :     0.010386
      dyz     :     0.014821
      dx2y2   :     0.011322
      dxy     :     0.006274

  2 N s       :     3.593471  s :     3.593471
      pz      :     1.191604  p :     3.831167
      px      :     1.206474
      py      :     1.433090
      dz2     :     0.009407  d :     0.046297
      dxz     :     0.012667
      dyz     :     0.007447
      dx2y2   :     0.007475
      dxy     :     0.009302

  3 C s       :     3.052283  s :     3.052283
      pz      :     0.916168  p :     2.625094
      px      :     0.747777
      py      :     0.961149
      dz2     :     0.011148  d :     0.057831
      dxz     :     0.016784
      dyz     :     0.006818
      dx2y2   :     0.011479
      dxy     :     0.011602

  4 C s       :     3.241166  s :     3.241166
      pz      :     0.939803  p :     2.936401
      px      :     0.917736
      py      :     1.078863
      dz2     :     0.014204  d :     0.056079
      dxz     :     0.011651
      dyz     :     0.008909
      dx2y2   :     0.013295
      dxy     :     0.008021

  5 N s       :     3.586666  s :     3.586666
      pz      :     1.480274  p :     3.985345
      px      :     1.348348
      py      :     1.156724
      dz2     :     0.004885  d :     0.032491
      dxz     :     0.004953
      dyz     :     0.006971
      dx2y2   :     0.007388
      dxy     :     0.008293

  6 C s       :     3.049361  s :     3.049361
      pz      :     0.860786  p :     2.552088
      px      :     0.947901
      py      :     0.743402
      dz2     :     0.014676  d :     0.074599
      dxz     :     0.009924
      dyz     :     0.021518
      dx2y2   :     0.014900
      dxy     :     0.013581

  7 N s       :     3.695719  s :     3.695719
      pz      :     1.157438  p :     3.621993
      px      :     1.177492
      py      :     1.287063
      dz2     :     0.008651  d :     0.035555
      dxz     :     0.006739
      dyz     :     0.005598
      dx2y2   :     0.008477
      dxy     :     0.006090

  8 C s       :     3.160892  s :     3.160892
      pz      :     0.962268  p :     2.839783
      px      :     0.957420
      py      :     0.920096
      dz2     :     0.009026  d :     0.053819
      dxz     :     0.006718
      dyz     :     0.015008
      dx2y2   :     0.011328
      dxy     :     0.011738

  9 C s       :     3.138432  s :     3.138432
      pz      :     0.887103  p :     2.679845
      px      :     0.927883
      py      :     0.864859
      dz2     :     0.008336  d :     0.041829
      dxz     :     0.005712
      dyz     :     0.010992
      dx2y2   :     0.008137
      dxy     :     0.008651

 10 C s       :     3.209827  s :     3.209827
      pz      :     0.983126  p :     2.957007
      px      :     0.984584
      py      :     0.989297
      dz2     :     0.006270  d :     0.036333
      dxz     :     0.006088
      dyz     :     0.009159
      dx2y2   :     0.007384
      dxy     :     0.007430

 11 C s       :     3.190379  s :     3.190379
      pz      :     0.952540  p :     2.901901
      px      :     0.974795
      py      :     0.974566
      dz2     :     0.008039  d :     0.036429
      dxz     :     0.005349
      dyz     :     0.008996
      dx2y2   :     0.009058
      dxy     :     0.004988

 12 C s       :     3.193218  s :     3.193218
      pz      :     0.950965  p :     2.893554
      px      :     0.970022
      py      :     0.972567
      dz2     :     0.006793  d :     0.036550
      dxz     :     0.005261
      dyz     :     0.010613
      dx2y2   :     0.006125
      dxy     :     0.007759

 13 C s       :     3.209092  s :     3.209092
      pz      :     0.991583  p :     2.954172
      px      :     0.997469
      py      :     0.965120
      dz2     :     0.006154  d :     0.035634
      dxz     :     0.006211
      dyz     :     0.008911
      dx2y2   :     0.006868
      dxy     :     0.007491

 14 C s       :     3.137396  s :     3.137396
      pz      :     0.899364  p :     2.699042
      px      :     0.929212
      py      :     0.870467
      dz2     :     0.008223  d :     0.041375
      dxz     :     0.005704
      dyz     :     0.010673
      dx2y2   :     0.008343
      dxy     :     0.008432

 15 C s       :     3.189185  s :     3.189185
      pz      :     0.866354  p :     2.675774
      px      :     0.917057
      py      :     0.892362
      dz2     :     0.007982  d :     0.039846
      dxz     :     0.005186
      dyz     :     0.010923
      dx2y2   :     0.007858
      dxy     :     0.007896

 16 C s       :     3.325779  s :     3.325779
      pz      :     1.016509  p :     3.187426
      px      :     1.056891
      py      :     1.114026
      dz2     :     0.008180  d :     0.034097
      dxz     :     0.006827
      dyz     :     0.006115
      dx2y2   :     0.009477
      dxy     :     0.003498

 17 S s       :     5.230566  s :     5.230566
      pz      :     3.055272  p :     9.047973
      px      :     3.015315
      py      :     2.977386
      dz2     :     0.085588  d :     0.532887
      dxz     :     0.120282
      dyz     :     0.116033
      dx2y2   :     0.091051
      dxy     :     0.119933

 18 O s       :     3.924170  s :     3.924170
      pz      :     1.571125  p :     4.609724
      px      :     1.623045
      py      :     1.415554
      dz2     :     0.004382  d :     0.026023
      dxz     :     0.002954
      dyz     :     0.006508
      dx2y2   :     0.006228
      dxy     :     0.005950

 19 O s       :     3.919328  s :     3.919328
      pz      :     1.391951  p :     4.609358
      px      :     1.597325
      py      :     1.620081
      dz2     :     0.007059  d :     0.026461
      dxz     :     0.006440
      dyz     :     0.006144
      dx2y2   :     0.003628
      dxy     :     0.003189

 20 C s       :     3.213053  s :     3.213053
      pz      :     0.981215  p :     2.889537
      px      :     0.921484
      py      :     0.986838
      dz2     :     0.004667  d :     0.038661
      dxz     :     0.009250
      dyz     :     0.006994
      dx2y2   :     0.008914
      dxy     :     0.008835

 21 C s       :     3.201918  s :     3.201918
      pz      :     0.965438  p :     2.922853
      px      :     1.016561
      py      :     0.940853
      dz2     :     0.008046  d :     0.036612
      dxz     :     0.005453
      dyz     :     0.006957
      dx2y2   :     0.006924
      dxy     :     0.009233

 22 C s       :     3.219729  s :     3.219729
      pz      :     0.928554  p :     2.895691
      px      :     0.972445
      py      :     0.994692
      dz2     :     0.005426  d :     0.035510
      dxz     :     0.006904
      dyz     :     0.007413
      dx2y2   :     0.008191
      dxy     :     0.007575

 23 C s       :     3.210990  s :     3.210990
      pz      :     0.912727  p :     2.644891
      px      :     0.890275
      py      :     0.841889
      dz2     :     0.007004  d :     0.039919
      dxz     :     0.007493
      dyz     :     0.007669
      dx2y2   :     0.008961
      dxy     :     0.008792

 24 C s       :     3.003618  s :     3.003618
      pz      :     0.840975  p :     2.472859
      px      :     0.845580
      py      :     0.786304
      dz2     :     0.013650  d :     0.112165
      dxz     :     0.022544
      dyz     :     0.019301
      dx2y2   :     0.030077
      dxy     :     0.026592

 25 O s       :     3.843658  s :     3.843658
      pz      :     1.648866  p :     4.685489
      px      :     1.429713
      py      :     1.606909
      dz2     :     0.002773  d :     0.022973
      dxz     :     0.004809
      dyz     :     0.002486
      dx2y2   :     0.006598
      dxy     :     0.006308

 26 O s       :     3.911260  s :     3.911260
      pz      :     1.553590  p :     4.728938
      px      :     1.756894
      py      :     1.418455
      dz2     :     0.002827  d :     0.017077
      dxz     :     0.001508
      dyz     :     0.005967
      dx2y2   :     0.004239
      dxy     :     0.002536

 27 C s       :     3.216581  s :     3.216581
      pz      :     0.945083  p :     2.907135
      px      :     0.951119
      py      :     1.010932
      dz2     :     0.007117  d :     0.035407
      dxz     :     0.005913
      dyz     :     0.006368
      dx2y2   :     0.006149
      dxy     :     0.009859

 28 C s       :     3.204202  s :     3.204202
      pz      :     0.982144  p :     2.914798
      px      :     0.936786
      py      :     0.995868
      dz2     :     0.005736  d :     0.036664
      dxz     :     0.006303
      dyz     :     0.008434
      dx2y2   :     0.009139
      dxy     :     0.007052

 29 C s       :     3.201426  s :     3.201426
      pz      :     0.982362  p :     2.998115
      px      :     0.975031
      py      :     1.040723
      dz2     :     0.007950  d :     0.037219
      dxz     :     0.009012
      dyz     :     0.006588
      dx2y2   :     0.005858
      dxy     :     0.007811

 30 C s       :     3.097118  s :     3.097118
      pz      :     0.889479  p :     2.721021
      px      :     0.869745
      py      :     0.961797
      dz2     :     0.009552  d :     0.047011
      dxz     :     0.012381
      dyz     :     0.007277
      dx2y2   :     0.009091
      dxy     :     0.008711

 31 C s       :     3.195783  s :     3.195783
      pz      :     1.001935  p :     2.970435
      px      :     0.972063
      py      :     0.996437
      dz2     :     0.006996  d :     0.036568
      dxz     :     0.009905
      dyz     :     0.006783
      dx2y2   :     0.005892
      dxy     :     0.006991

 32 C s       :     3.195424  s :     3.195424
      pz      :     0.953109  p :     2.916875
      px      :     0.964616
      py      :     0.999150
      dz2     :     0.006399  d :     0.035804
      dxz     :     0.012260
      dyz     :     0.004473
      dx2y2   :     0.006896
      dxy     :     0.005777

 33 C s       :     3.193381  s :     3.193381
      pz      :     0.952535  p :     2.919394
      px      :     0.961516
      py      :     1.005343
      dz2     :     0.009782  d :     0.035792
      dxz     :     0.007740
      dyz     :     0.005904
      dx2y2   :     0.006365
      dxy     :     0.006001

 34 C s       :     3.171781  s :     3.171781
      pz      :     0.968805  p :     2.984614
      px      :     0.996299
      py      :     1.019509
      dz2     :     0.007052  d :     0.035775
      dxz     :     0.008069
      dyz     :     0.006858
      dx2y2   :     0.006382
      dxy     :     0.007414

 35 C s       :     3.020235  s :     3.020235
      pz      :     0.883884  p :     2.630358
      px      :     0.766805
      py      :     0.979669
      dz2     :     0.012142  d :     0.062196
      dxz     :     0.018156
      dyz     :     0.008298
      dx2y2   :     0.011125
      dxy     :     0.012475

 36 H s       :     0.839044  s :     0.839044

 37 H s       :     0.831220  s :     0.831220

 38 H s       :     0.864844  s :     0.864844

 39 H s       :     0.838775  s :     0.838775

 40 H s       :     0.843482  s :     0.843482

 41 H s       :     0.804290  s :     0.804290

 42 H s       :     0.858104  s :     0.858104

 43 H s       :     0.855115  s :     0.855115

 44 H s       :     0.870130  s :     0.870130

 45 H s       :     0.878531  s :     0.878531

 46 H s       :     0.874180  s :     0.874180

 47 H s       :     0.861463  s :     0.861463

 48 H s       :     0.804926  s :     0.804926

 49 H s       :     0.827675  s :     0.827675

 50 H s       :     0.851918  s :     0.851918

 51 H s       :     0.857102  s :     0.857102

 52 H s       :     0.846797  s :     0.846797

 53 H s       :     0.854036  s :     0.854036

 54 H s       :     0.856160  s :     0.856160

 55 H s       :     0.830657  s :     0.830657

 56 H s       :     0.880348  s :     0.880348

 57 H s       :     0.900061  s :     0.900061

 58 H s       :     0.900234  s :     0.900234

 59 H s       :     0.895431  s :     0.895431



                     *******************************
                     * LOEWDIN POPULATION ANALYSIS *
                     *******************************

----------------------
LOEWDIN ATOMIC CHARGES
----------------------
   0 C :   -0.368950
   1 C :   -0.151184
   2 N :    0.015026
   3 C :   -0.006094
   4 C :   -0.151957
   5 N :   -0.291312
   6 C :    0.040354
   7 N :   -0.102260
   8 C :   -0.062406
   9 C :   -0.028826
  10 C :   -0.114896
  11 C :   -0.134645
  12 C :   -0.125812
  13 C :   -0.123426
  14 C :   -0.009209
  15 C :   -0.015309
  16 C :   -0.362081
  17 S :    1.262867
  18 O :   -0.587821
  19 O :   -0.584163
  20 C :   -0.217434
  21 C :   -0.131861
  22 C :   -0.108145
  23 C :   -0.003644
  24 C :    0.071846
  25 O :   -0.377719
  26 O :   -0.505924
  27 C :   -0.115002
  28 C :   -0.125663
  29 C :   -0.170718
  30 C :   -0.039261
  31 C :   -0.130897
  32 C :   -0.156406
  33 C :   -0.156477
  34 C :   -0.165163
  35 C :    0.004948
  36 H :    0.132893
  37 H :    0.134869
  38 H :    0.122565
  39 H :    0.130665
  40 H :    0.130383
  41 H :    0.156352
  42 H :    0.119195
  43 H :    0.133874
  44 H :    0.132911
  45 H :    0.128599
  46 H :    0.130936
  47 H :    0.138569
  48 H :    0.150992
  49 H :    0.142793
  50 H :    0.129603
  51 H :    0.137336
  52 H :    0.150664
  53 H :    0.146156
  54 H :    0.138443
  55 H :    0.153691
  56 H :    0.129676
  57 H :    0.118709
  58 H :    0.119363
  59 H :    0.120385

-------------------------------
LOEWDIN REDUCED ORBITAL CHARGES
-------------------------------
  0 C s       :     2.987650  s :     2.987650
      pz      :     1.122520  p :     3.314631
      px      :     1.135599
      py      :     1.056512
      dz2     :     0.009854  d :     0.066669
      dxz     :     0.012012
      dyz     :     0.016188
      dx2y2   :     0.018056
      dxy     :     0.010560

  1 C s       :     2.923487  s :     2.923487
      pz      :     0.964575  p :     3.115072
      px      :     1.120073
      py      :     1.030424
      dz2     :     0.024412  d :     0.112625
      dxz     :     0.020755
      dyz     :     0.030430
      dx2y2   :     0.024292
      dxy     :     0.012735

  2 N s       :     3.046791  s :     3.046791
      pz      :     1.224793  p :     3.824577
      px      :     1.207226
      py      :     1.392557
      dz2     :     0.022605  d :     0.113606
      dxz     :     0.033485
      dyz     :     0.016173
      dx2y2   :     0.018635
      dxy     :     0.022709

  3 C s       :     2.860477  s :     2.860477
      pz      :     1.031300  p :     3.008153
      px      :     0.969080
      py      :     1.007773
      dz2     :     0.027850  d :     0.137463
      dxz     :     0.039850
      dyz     :     0.016930
      dx2y2   :     0.026626
      dxy     :     0.026207

  4 C s       :     2.917023  s :     2.917023
      pz      :     1.014884  p :     3.115479
      px      :     0.994058
      py      :     1.106537
      dz2     :     0.029621  d :     0.119455
      dxz     :     0.027062
      dyz     :     0.017412
      dx2y2   :     0.028951
      dxy     :     0.016408

  5 N s       :     3.170031  s :     3.170031
      pz      :     1.479609  p :     4.037659
      px      :     1.369813
      py      :     1.188238
      dz2     :     0.011613  d :     0.083621
      dxz     :     0.012017
      dyz     :     0.018017
      dx2y2   :     0.019092
      dxy     :     0.022883

  6 C s       :     2.847842  s :     2.847842
      pz      :     0.999240  p :     2.933314
      px      :     0.995175
      py      :     0.938899
      dz2     :     0.033919  d :     0.178490
      dxz     :     0.024277
      dyz     :     0.052775
      dx2y2   :     0.035976
      dxy     :     0.031542

  7 N s       :     3.241617  s :     3.241617
      pz      :     1.227728  p :     3.781128
      px      :     1.189725
      py      :     1.363675
      dz2     :     0.019678  d :     0.079515
      dxz     :     0.014794
      dyz     :     0.014402
      dx2y2   :     0.018607
      dxy     :     0.012034

  8 C s       :     2.911602  s :     2.911602
      pz      :     1.029023  p :     3.027250
      px      :     0.988010
      py      :     1.010216
      dz2     :     0.020036  d :     0.123553
      dxz     :     0.011659
      dyz     :     0.035995
      dx2y2   :     0.029068
      dxy     :     0.026794

  9 C s       :     2.859105  s :     2.859105
      pz      :     1.022041  p :     3.060840
      px      :     0.989252
      py      :     1.049547
      dz2     :     0.020767  d :     0.108881
      dxz     :     0.014071
      dyz     :     0.030512
      dx2y2   :     0.021846
      dxy     :     0.021685

 10 C s       :     2.916065  s :     2.916065
      pz      :     1.042926  p :     3.114106
      px      :     1.010678
      py      :     1.060503
      dz2     :     0.014024  d :     0.084725
      dxz     :     0.010890
      dyz     :     0.022876
      dx2y2   :     0.018867
      dxy     :     0.018067

 11 C s       :     2.916357  s :     2.916357
      pz      :     1.044934  p :     3.132227
      px      :     1.015850
      py      :     1.071443
      dz2     :     0.019078  d :     0.086061
      dxz     :     0.014037
      dyz     :     0.021986
      dx2y2   :     0.018847
      dxy     :     0.012113

 12 C s       :     2.917384  s :     2.917384
      pz      :     1.040789  p :     3.122299
      px      :     1.007210
      py      :     1.074301
      dz2     :     0.016394  d :     0.086129
      dxz     :     0.011901
      dyz     :     0.025883
      dx2y2   :     0.014840
      dxy     :     0.017111

 13 C s       :     2.917393  s :     2.917393
      pz      :     1.048305  p :     3.123397
      px      :     1.016006
      py      :     1.059085
      dz2     :     0.013830  d :     0.082637
      dxz     :     0.010827
      dyz     :     0.022040
      dx2y2   :     0.018530
      dxy     :     0.017410

 14 C s       :     2.856520  s :     2.856520
      pz      :     1.017474  p :     3.046697
      px      :     0.990013
      py      :     1.039210
      dz2     :     0.020265  d :     0.105993
      dxz     :     0.014078
      dyz     :     0.029387
      dx2y2   :     0.021392
      dxy     :     0.020872

 15 C s       :     2.890726  s :     2.890726
      pz      :     1.007863  p :     3.026914
      px      :     0.973552
      py      :     1.045499
[...]
      dxz     :     0.017479
      dyz     :     0.017236
      dx2y2   :     0.021786
      dxy     :     0.017756

 29 C s       :     2.903814  s :     2.903814
      pz      :     1.058414  p :     3.179964
      px      :     1.050595
      py      :     1.070956
      dz2     :     0.019723  d :     0.086939
      dxz     :     0.022338
      dyz     :     0.013918
      dx2y2   :     0.013680
      dxy     :     0.017280

 30 C s       :     2.834096  s :     2.834096
      pz      :     1.029430  p :     3.082666
      px      :     1.048215
      py      :     1.005022
      dz2     :     0.025732  d :     0.122499
      dxz     :     0.033545
      dyz     :     0.018603
      dx2y2   :     0.023665
      dxy     :     0.020954

 31 C s       :     2.912570  s :     2.912570
      pz      :     1.052272  p :     3.133621
      px      :     1.057658
      py      :     1.023690
      dz2     :     0.016429  d :     0.084707
      dxz     :     0.023930
      dyz     :     0.012569
      dx2y2   :     0.015443
      dxy     :     0.016335

 32 C s       :     2.918612  s :     2.918612
      pz      :     1.053201  p :     3.154005
      px      :     1.063596
      py      :     1.037209
      dz2     :     0.015506  d :     0.083790
      dxz     :     0.027506
      dyz     :     0.010614
      dx2y2   :     0.015885
      dxy     :     0.014279

 33 C s       :     2.917146  s :     2.917146
      pz      :     1.056809  p :     3.155599
      px      :     1.057685
      py      :     1.041106
      dz2     :     0.023493  d :     0.083732
      dxz     :     0.020438
      dyz     :     0.014722
      dx2y2   :     0.012832
      dxy     :     0.012247

 34 C s       :     2.911677  s :     2.911677
      pz      :     1.062587  p :     3.169720
      px      :     1.055977
      py      :     1.051155
      dz2     :     0.016013  d :     0.083766
      dxz     :     0.021937
      dyz     :     0.012849
      dx2y2   :     0.015850
      dxy     :     0.017118

 35 C s       :     2.823213  s :     2.823213
      pz      :     0.996567  p :     3.018475
      px      :     0.993040
      py      :     1.028868
      dz2     :     0.030094  d :     0.153364
      dxz     :     0.046883
      dyz     :     0.020420
      dx2y2   :     0.026901
      dxy     :     0.029065

 36 H s       :     0.867107  s :     0.867107

 37 H s       :     0.865131  s :     0.865131

 38 H s       :     0.877435  s :     0.877435

 39 H s       :     0.869335  s :     0.869335

 40 H s       :     0.869617  s :     0.869617

 41 H s       :     0.843648  s :     0.843648

 42 H s       :     0.880805  s :     0.880805

 43 H s       :     0.866126  s :     0.866126

 44 H s       :     0.867089  s :     0.867089

 45 H s       :     0.871401  s :     0.871401

 46 H s       :     0.869064  s :     0.869064

 47 H s       :     0.861431  s :     0.861431

 48 H s       :     0.849008  s :     0.849008

 49 H s       :     0.857207  s :     0.857207

 50 H s       :     0.870397  s :     0.870397

 51 H s       :     0.862664  s :     0.862664

 52 H s       :     0.849336  s :     0.849336

 53 H s       :     0.853844  s :     0.853844

 54 H s       :     0.861557  s :     0.861557

 55 H s       :     0.846309  s :     0.846309

 56 H s       :     0.870324  s :     0.870324

 57 H s       :     0.881291  s :     0.881291

 58 H s       :     0.880637  s :     0.880637

 59 H s       :     0.879615  s :     0.879615



                      *****************************
                      * MAYER POPULATION ANALYSIS *
                      *****************************

  NA   - Mulliken gross atomic population
  ZA   - Total nuclear charge
  QA   - Mulliken gross atomic charge
  VA   - Mayer's total valence
  BVA  - Mayer's bonded valence
  FA   - Mayer's free valence

  ATOM       NA         ZA         QA         VA         BVA        FA
  0 C      6.4413     6.0000    -0.4413     3.8084     3.8084     0.0000
  1 C      6.1669     6.0000    -0.1669     3.8504     3.8504     0.0000
  2 N      7.4709     7.0000    -0.4709     3.2422     3.2422    -0.0000
  3 C      5.7352     6.0000     0.2648     3.7653     3.7653     0.0000
  4 C      6.2336     6.0000    -0.2336     3.8359     3.8359     0.0000
  5 N      7.6045     7.0000    -0.6045     2.7812     2.7812    -0.0000
  6 C      5.6760     6.0000     0.3240     3.8965     3.8965     0.0000
  7 N      7.3533     7.0000    -0.3533     2.9681     2.9681     0.0000
  8 C      6.0545     6.0000    -0.0545     3.8626     3.8626    -0.0000
  9 C      5.8601     6.0000     0.1399     3.9522     3.9522    -0.0000
 10 C      6.2032     6.0000    -0.2032     3.9019     3.9019    -0.0000
 11 C      6.1287     6.0000    -0.1287     3.9275     3.9275    -0.0000
 12 C      6.1233     6.0000    -0.1233     3.9277     3.9277    -0.0000
 13 C      6.1989     6.0000    -0.1989     3.8748     3.8748    -0.0000
 14 C      5.8778     6.0000     0.1222     3.9874     3.9874    -0.0000
 15 C      5.9048     6.0000     0.0952     3.8497     3.8497    -0.0000
 16 C      6.5473     6.0000    -0.5473     3.8179     3.8179    -0.0000
 17 S     14.8114    16.0000     1.1886     5.0716     5.0716    -0.0000
 18 O      8.5599     8.0000    -0.5599     1.8750     1.8750     0.0000
 19 O      8.5551     8.0000    -0.5551     1.8750     1.8750    -0.0000
 20 C      6.1413     6.0000    -0.1413     3.8005     3.8005    -0.0000
 21 C      6.1614     6.0000    -0.1614     3.8909     3.8909    -0.0000
 22 C      6.1509     6.0000    -0.1509     3.8718     3.8718     0.0000
 23 C      5.8958     6.0000     0.1042     3.8385     3.8385    -0.0000
 24 C      5.5886     6.0000     0.4114     4.2053     4.2053    -0.0000
 25 O      8.5521     8.0000    -0.5521     1.9557     1.9557    -0.0000
 26 O      8.6573     8.0000    -0.6573     1.8367     1.8367    -0.0000
 27 C      6.1591     6.0000    -0.1591     3.8726     3.8726     0.0000
 28 C      6.1557     6.0000    -0.1557     3.9030     3.9030    -0.0000
 29 C      6.2368     6.0000    -0.2368     3.8508     3.8508    -0.0000
 30 C      5.8651     6.0000     0.1349     4.0998     4.0998     0.0000
 31 C      6.2028     6.0000    -0.2028     3.8919     3.8919     0.0000
 32 C      6.1481     6.0000    -0.1481     3.9244     3.9244    -0.0000
 33 C      6.1486     6.0000    -0.1486     3.9465     3.9465     0.0000
 34 C      6.1922     6.0000    -0.1922     3.8764     3.8764     0.0000
 35 C      5.7128     6.0000     0.2872     3.8610     3.8610     0.0000
 36 H      0.8390     1.0000     0.1610     0.9379     0.9379    -0.0000
 37 H      0.8312     1.0000     0.1688     0.9450     0.9450     0.0000
 38 H      0.8648     1.0000     0.1352     0.9376     0.9376     0.0000
 39 H      0.8388     1.0000     0.1612     0.9320     0.9320     0.0000
 40 H      0.8435     1.0000     0.1565     0.9338     0.9338     0.0000
 41 H      0.8043     1.0000     0.1957     0.9323     0.9323     0.0000
 42 H      0.8581     1.0000     0.1419     0.9339     0.9339     0.0000
 43 H      0.8551     1.0000     0.1449     0.9350     0.9350    -0.0000
 44 H      0.8701     1.0000     0.1299     0.9386     0.9386    -0.0000
 45 H      0.8785     1.0000     0.1215     0.9388     0.9388    -0.0000
 46 H      0.8742     1.0000     0.1258     0.9382     0.9382    -0.0000
 47 H      0.8615     1.0000     0.1385     0.9426     0.9426     0.0000
 48 H      0.8049     1.0000     0.1951     0.9352     0.9352    -0.0000
 49 H      0.8277     1.0000     0.1723     0.9305     0.9305     0.0000
 50 H      0.8519     1.0000     0.1481     0.9321     0.9321     0.0000
 51 H      0.8571     1.0000     0.1429     0.9441     0.9441    -0.0000
 52 H      0.8468     1.0000     0.1532     0.9644     0.9644     0.0000
 53 H      0.8540     1.0000     0.1460     0.9592     0.9592     0.0000
 54 H      0.8562     1.0000     0.1438     0.9445     0.9445    -0.0000
 55 H      0.8307     1.0000     0.1693     0.9500     0.9500     0.0000
 56 H      0.8803     1.0000     0.1197     0.9387     0.9387     0.0000
 57 H      0.9001     1.0000     0.0999     0.9420     0.9420    -0.0000
 58 H      0.9002     1.0000     0.0998     0.9423     0.9423     0.0000
 59 H      0.8954     1.0000     0.1046     0.9420     0.9420     0.0000

  Mayer bond orders larger than 0.100000
B(  0-C ,  1-C ) :   1.0024 B(  0-C , 36-H ) :   0.9471 B(  0-C , 37-H ) :   0.9324 
B(  0-C , 38-H ) :   0.9445 B(  1-C ,  2-N ) :   0.9549 B(  1-C , 39-H ) :   0.9303 
B(  1-C , 40-H ) :   0.9307 B(  2-N ,  3-C ) :   1.1064 B(  2-N , 35-C ) :   1.0351 
B(  3-C ,  4-C ) :   0.9652 B(  3-C , 29-C ) :   1.5275 B(  4-C ,  5-N ) :   0.9464 
B(  4-C , 41-H ) :   0.9086 B(  4-C , 42-H ) :   0.9170 B(  5-N ,  6-C ) :   0.9094 
B(  5-N , 17-S ) :   0.7766 B(  6-C ,  7-N ) :   1.2887 B(  6-C , 15-C ) :   1.4273 
B(  7-N ,  8-C ) :   1.5012 B(  8-C ,  9-C ) :   1.2294 B(  8-C , 15-C ) :   0.1035 
B(  8-C , 43-H ) :   0.9284 B(  9-C , 10-C ) :   1.2848 B(  9-C , 14-C ) :   1.2919 
B( 10-C , 11-C ) :   1.5125 B( 10-C , 13-C ) :   0.1067 B( 10-C , 44-H ) :   0.9243 
B( 11-C , 12-C ) :   1.3529 B( 11-C , 45-H ) :   0.9316 B( 12-C , 13-C ) :   1.5096 
B( 12-C , 46-H ) :   0.9310 B( 13-C , 14-C ) :   1.2947 B( 13-C , 47-H ) :   0.9159 
B( 14-C , 15-C ) :   1.2545 B( 15-C , 16-C ) :   0.9966 B( 16-C , 48-H ) :   0.9203 
B( 16-C , 49-H ) :   0.9255 B( 16-C , 50-H ) :   0.9285 B( 17-S , 18-O ) :   1.6201 
B( 17-S , 19-O ) :   1.6318 B( 17-S , 20-C ) :   0.8410 B( 20-C , 21-C ) :   1.3619 
B( 20-C , 28-C ) :   1.3654 B( 21-C , 22-C ) :   1.4019 B( 21-C , 51-H ) :   0.9194 
B( 22-C , 23-C ) :   1.4043 B( 22-C , 52-H ) :   0.9013 B( 23-C , 24-C ) :   0.9271 
B( 23-C , 27-C ) :   1.3854 B( 24-C , 25-O ) :   1.7061 B( 24-C , 26-O ) :   1.5495 
B( 25-O , 26-O ) :   0.1487 B( 27-C , 28-C ) :   1.4114 B( 27-C , 53-H ) :   0.9074 
B( 28-C , 54-H ) :   0.9194 B( 29-C , 30-C ) :   1.2789 B( 29-C , 55-H ) :   0.9119 
B( 30-C , 31-C ) :   1.3362 B( 30-C , 35-C ) :   1.3094 B( 31-C , 32-C ) :   1.4760 
B( 31-C , 56-H ) :   0.9269 B( 32-C , 33-C ) :   1.3805 B( 32-C , 57-H ) :   0.9342 
B( 33-C , 34-C ) :   1.4729 B( 33-C , 58-H ) :   0.9344 B( 34-C , 35-C ) :   1.3495 
B( 34-C , 59-H ) :   0.9199 

-------
TIMINGS
-------

Total SCF time: 0 days 0 hours 12 min 29 sec 

Total time                  ....     749.028 sec
Sum of individual times     ....     748.656 sec  (100.0%)

SCF preparation             ....       0.384 sec  (  0.1%)
Fock matrix formation       ....     745.174 sec  ( 99.5%)
  Startup                   ....       0.097 sec  (  0.0% of F)
  Split-RI-J                ....      96.255 sec  ( 12.9% of F)
  Chain of spheres X        ....     590.203 sec  ( 79.2% of F)
  XC integration            ....      57.619 sec  (  7.7% of F)
    XC Preparation          ....       0.000 sec  (  0.0% of XC)
    Basis function eval.    ....      22.490 sec  ( 39.0% of XC)
    Density eval.           ....      15.167 sec  ( 26.3% of XC)
    XC-Functional eval.     ....       2.628 sec  (  4.6% of XC)
    XC-Potential eval.      ....      15.224 sec  ( 26.4% of XC)
Diagonalization             ....       0.000 sec  (  0.0%)
Density matrix formation    ....       0.629 sec  (  0.1%)
Total Energy calculation    ....       0.096 sec  (  0.0%)
Population analysis         ....       0.086 sec  (  0.0%)
Orbital Transformation      ....       0.285 sec  (  0.0%)
Orbital Orthonormalization  ....       0.000 sec  (  0.0%)
DIIS solution               ....       1.242 sec  (  0.2%)
SOSCF solution              ....       0.761 sec  (  0.1%)
Finished LeanSCF after 749.1 sec

Maximum memory used throughout the entire LEANSCF-calculation: 103.4 MB

-------------------------   --------------------
FINAL SINGLE POINT ENERGY     -1943.718410297821
-------------------------   --------------------


------------------------------------------------------------------------------
                              ORCA PROPERTY CALCULATIONS
------------------------------------------------------------------------------

GBWName                                 ... /home/nmrbox/aojoawo/Documents/ERDOS/inputs/CHEMBL3687332.gbw
Number of atoms                         ...     60
Number of basis functions               ...    556
Max core memory                         ...   1024 MB

Electric properties:
Dipole moment                           ... YES
Quadrupole moment                       ...  NO
Static polarizability (Dipole/Dipole)   ...  NO
Static polarizability (Dipole/Quad.)    ...  NO
Static polarizability (Quad./Quad.)     ...  NO
Static polarizability (Velocity)        ...  NO

Atomic electric properties:
Dipole moment                           ...  NO
Quadrupole moment                       ...  NO
Static polarizability                   ...  NO

Choice of electric origin               ... Center of mass
Position of electric origin             ...    -0.894364     0.836228    -0.245506

General magnetic properties:
Magnetizability                         ...  NO

EPR properties:
g-Tensor (aka g-matrix)                 ...  NO
Zero-Field splitting spin-orbit         ...  NO
Zero-field splitting spin-spin          ...  NO
Hyperfine couplings                     ...  NO (   0 nuclei)
Quadrupole couplings                    ...  NO (   0 nuclei)
Contact density                         ...  NO (   0 nuclei)

NMR properties:
Chemical shifts                         ...  NO (   0 nuclei)
Spin-rotation constants                 ...  NO (   0 nuclei)
Spin-spin couplings                     ...  NO (   0 nuclei,    0 pairs)

Choice of magnetic origin               ... GIAO
Position of magnetic origin             ...     0.000000     0.000000     0.000000

Properties with geometric perturbations:
SCF Hessian                             ...  NO
IR spectrum                             ...  NO
VCD spectrum                            ...  NO
X-ray spectroscopy properties:
SCF XES/XAS/RIXS spectra                ...  NO


-------------
DIPOLE MOMENT
-------------

Method             : SCF
Type of density    : Electron Density
Multiplicity       :   1
Irrep              :   0
Energy             : -1943.7184102978205829 Eh
Relativity type    : 
Basis              : AO
                                X                 Y                 Z
Electronic contribution:    -15.112314171      14.289316492      -9.708362347
Nuclear contribution   :     22.802702561     -21.379478002       7.124589178
                        -----------------------------------------
Total Dipole Moment    :      7.690388389      -7.090161510      -2.583773169
                        -----------------------------------------
Magnitude (a.u.)       :     10.774430268
Magnitude (Debye)      :     27.386425308



--------------------
Rotational spectrum 
--------------------
 
Rotational constants in cm-1:             0.004511             0.002339             0.001828 
Rotational constants in MHz :           135.228930            70.122329            54.791112 

Dipole components along the rotational axes: 
x,y,z [a.u.] :    10.284922    -3.044141    -1.020757 
x,y,z [Debye]:    26.142193    -7.737591    -2.594559 

 

Dipole moment calculation done in   0.1 sec 

Maximum memory used throughout the entire PROP-calculation: 50.4 MB

--------------------------------
SUGGESTED CITATIONS FOR THIS RUN
--------------------------------

Below you find a list of papers that are relevant to this ORCA run
We neither can nor want to force you to cite these papers, but we appreciate if you do
You receive ORCA, which is the product of decades of hard work by many enthusiastic individuals, for free
The only thing we kindly ask in return is that you cite our papers,
We deeply appreciate it, if you show your appreciation for ORCA by not just citing the generic ORCA reference.

Please note that relegating all ORCA citations to the supporting information does *not* help us.
SI sections are not indexed - citations you put there will not count into any citation statistics
But we need these citations in order to attract the funding resources that allow us to do what we are doing

Therefore, if you are a happy ORCA user, please consider citing a few of the papers listed below in the main body of your paper

In addition to the list printed below, the program has created the file /home/nmrbox/aojoawo/Documents/ERDOS/inputs/CHEMBL3687332.bibtex that contains the list in bibtex format
You can import this file easily into all common literature databanks and citation aid programs


List of essential papers. We consider these as the minimum necessary citations

  1. Neese,F.
     Software update: the ORCA program system, version 5.0
     WIRES Comput. Molec. Sci., 2022 12(1)e1606
     doi.org/10.1002/wcms.1606

List of papers to cite with high priority. The work reported in these papers was absolutely
necessary for this run to complete.
Our perspective: the developers of density functionals and basis sets usually get cited in chemistry papers
Good! But without the algorithms to do something with them, the functionals or basis sets would not do anything.
Hence, in our opinion, the algorithm design and method developments papers are equally worthy of getting cited

  1. Neese,F.
     An improvement of the resolution of the identity approximation for the formation of the Coulomb matrix
     J. Comp. Chem., 2003 24(14)1740-1747
     doi.org/10.1002/jcc.10318
  2. Neese,F.; Wennmohs,F.; Hansen,A.; Becker,U.
     Efficient, approximate and parallel Hartree-Fock and hybrid DFT calculations. A 'chain-of-spheres' algorithm for the Hartree-Fock exchange
     Chem. Phys., 2009 356(1-3)98-109
     doi.org/10.1016/j.chemphys.2008.10.036
  3. Helmich-Paris,B.; de Souza,B.; Neese,F.; Izsák,R.
     An improved chain of spheres for exchange algorithm
     J. Chem. Phys., 2021 155 104109
     doi.org/doi: 10.1063/5.0058766.
  4. Neese,F.
     The SHARK Integral Generation and Digestion System
     J. Comp. Chem., 2022  1-16
     doi.org/10.1002/jcc.26942

List of suggested additional citations. These are papers that are important in the 'surrounding' of 
of this run, or papers that preceded the highly important papers. If you like your results we are grateful for a citation.

  1. Izsak,R.; Neese,F.
     An overlap fitted chain of spheres exchange method
     J. Chem. Phys., 2011 135 144105
     doi.org/10.1063/1.3646921
  2. Izsak,R.; Hansen,A.; Neese,F.
     The resolution of identity and chain of spheres approximations for the LPNO-CCSD singles Fock term
     Molec. Phys., 2012 110 2413-2417
     doi.org/10.1080/00268976.2012.687466
  3. Neese,F.
     The ORCA program system
     WIRES Comput. Molec. Sci., 2012 2(1)73-78
     doi.org/10.1002/wcms.81
  4. Izsak,R.; Neese,F.; Klopper,W.
     Robust fitting techniques in the chain of spheres approximation to the Fock exchange: The role of the complementary space
     J. Chem. Phys., 2013 139 
     doi.org/10.1063/1.4819264
  5. Neese,F.
     Software update: the ORCA program system, version 4.0
     WIRES Comput. Molec. Sci., 2018 8(1)1-6
     doi.org/10.1002/wcms.1327
  6. Neese,F.; Wennmohs,F.; Becker,U.; Riplinger,C.
     The ORCA quantum chemistry program package
     J. Chem. Phys., 2020 152 Art. No. L224108
     doi.org/10.1063/5.0004608

List of optional additional citations

  1. Neese,F.
     Approximate second-order SCF convergence for spin unrestricted wavefunctions
     Chem. Phys. Lett., 2000 325(1-3)93-98
     doi.org/10.1016/s0009-2614(00)00662-x

Timings for individual modules:

Sum of individual times          ...      776.549 sec (=  12.942 min)
Startup calculation              ...       17.516 sec (=   0.292 min)   2.3 %
SCF iterations                   ...      758.692 sec (=  12.645 min)  97.7 %
Property calculations            ...        0.342 sec (=   0.006 min)   0.0 %
                             ****ORCA TERMINATED NORMALLY****
TOTAL RUN TIME: 0 days 0 hours 12 minutes 57 seconds 356 msec
