
                                 *****************
                                 * O   R   C   A *
                                 *****************

                                            #,                                       
                                            ###                                      
                                            ####                                     
                                            #####                                    
                                            ######                                   
                                           ########,                                 
                                     ,,################,,,,,                         
                               ,,#################################,,                 
                          ,,##########################################,,             
                       ,#########################################, ''#####,          
                    ,#############################################,,   '####,        
                  ,##################################################,,,,####,       
                ,###########''''           ''''###############################       
              ,#####''   ,,,,##########,,,,          '''####'''          '####       
            ,##' ,,,,###########################,,,                        '##       
           ' ,,###''''                  '''############,,,                           
         ,,##''                                '''############,,,,        ,,,,,,###''
      ,#''                                            '''#######################'''  
     '                                                          ''''####''''         
             ,#######,   #######,   ,#######,      ##                                
            ,#'     '#,  ##    ##  ,#'     '#,    #''#        ,####,   ,####,        
            ##       ##  ##   ,#'  ##            #'  '#       #'       #'  '#        
            ##       ##  #######   ##           ,######,      #####,   #    #        
            '#,     ,#'  ##    ##  '#,     ,#' ,#      #,     #,   #   #,  ,#        
             '#######'   ##     ##  '#######'  #'      '#     '####' # '####'        



                #########################################################
                #                        -***-                          #
                #          Department of theory and spectroscopy        #
                #                                                       #
                #                      Frank Neese                      #
                #                                                       #
                #     Directorship, Architecture, Infrastructure        #
                #                    SHARK, DRIVERS                     #
                #        Core code/Algorithms in most modules           #
                #                                                       #
                #        Max Planck Institute fuer Kohlenforschung      #
                #                Kaiser Wilhelm Platz 1                 #
                #                 D-45470 Muelheim/Ruhr                 #
                #                      Germany                          #
                #                                                       #
                #                  All rights reserved                  #
                #                        -***-                          #
                #########################################################


                         Program Version 6.0.0  -   RELEASE  -


 With contributions from (in alphabetic order):
   Daniel Aravena         : Magnetic Suceptibility
   Michael Atanasov       : Ab Initio Ligand Field Theory (pilot matlab implementation)
   Alexander A. Auer      : GIAO ZORA, VPT2 properties, NMR spectrum
   Ute Becker             : All parallelization in ORCA, NUMFREQ, NUMCALC
   Giovanni Bistoni       : ED, misc. LED, open-shell LED, HFLD
   Martin Brehm           : Molecular dynamics
   Dmytro Bykov           : pre 5.0 version of the SCF Hessian
   Marcos Casanova-Páez   : Triplet and SCS-CIS(D). UHF-(DLPNO)-IP/EA/STEOM-CCSD. UHF-CVS-IP/STEOM-CCSD
   Vijay G. Chilkuri      : MRCI spin determinant printing, contributions to CSF-ICE
   Pauline Colinet        : FMM embedding
   Dipayan Datta          : RHF DLPNO-CCSD density
   Achintya Kumar Dutta   : EOM-CC, STEOM-CC
   Nicolas Foglia         : Exact transition moments, OPA infrastructure, MCD improvements
   Dmitry Ganyushin       : Spin-Orbit,Spin-Spin,Magnetic field MRCI
   Miquel Garcia          : C-PCM and meta-GGA Hessian, CCSD/C-PCM, Gaussian charge scheme
   Tiago L. C. Gouveia    : GS-ROHF, GS-ROCIS
   Yang Guo               : DLPNO-NEVPT2, F12-NEVPT2, CIM, IAO-localization
   Andreas Hansen         : Spin unrestricted coupled pair/coupled cluster methods
   Ingolf Harden          : AUTO-CI MPn and infrastructure 
   Benjamin Helmich-Paris : MC-RPA, TRAH-(SCF,CASSCF), AVAS, COSX integrals, SCF dyn. polar.
   Lee Huntington         : MR-EOM, pCC
   Robert Izsak           : Overlap fitted RIJCOSX, COSX-SCS-MP3, EOM
   Riya Kayal             : Wick's Theorem for AUTO-CI, AUTO-CI UHF-CCSDT
   Emily Kempfer          : AUTO-CI, RHF CISDT and CCSDT
   Christian Kollmar      : KDIIS, OOCD, Brueckner-CCSD(T), CCSD density, CASPT2, CASPT2-K, improved NEVPT2
   Axel Koslowski         : Symmetry handling
   Simone Kossmann        : Meta GGA functionals, TD-DFT gradient, OOMP2, (MP2 Hessian; deprecated post 5.0)
   Lucas Lang             : DCDCAS
   Marvin Lechner         : AUTO-CI (C++ implementation), FIC-MRCC
   Spencer Leger          : CASSCF response
   Dagmar Lenk            : GEPOL surface, SMD, ORCA-2-JSON
   Dimitrios Liakos       : Extrapolation schemes; Compound Job, initial MDCI parallelization
   Dimitrios Manganas     : Further ROCIS development; embedding schemes. LFT, Crystal Embedding
   Dimitrios Pantazis     : SARC Basis sets
   Anastasios Papadopoulos: AUTO-CI, single reference methods and gradients
   Taras Petrenko         : pre 6.0 DFT Hessian and TD-DFT gradient, (ASA, deprecated), ECA, 1-Electron XAS/XES, NRVS
   Peter Pinski           : DLPNO-MP2, DLPNO-MP2 Gradient
   Christoph Reimann      : Effective Core Potentials
   Marius Retegan         : Local ZFS, SOC
   Christoph Riplinger    : Optimizer, TS searches, QM/MM, DLPNO-CCSD(T), (RO)-DLPNO pert. Triples
   Michael Roemelt        : Original ROCIS implementation
   Masaaki Saitow         : Open-shell DLPNO-CCSD energy and density
   Barbara Sandhoefer     : DKH picture change effects
   Kantharuban Sivalingam : CASSCF convergence/infrastructure, NEVPT2 and variants, FIC-MRCI
   Bernardo de Souza      : ESD, SOC TD-DFT
   Georgi Stoychev        : AutoAux, RI-MP2 NMR, DLPNO-MP2 response, X2C
   Van Anh Tran           : RI-MP2 g-tensors
   Willem Van den Heuvel  : Paramagnetic NMR
   Zikuan Wang            : NOTCH, Electric field optimization 
   Frank Wennmohs         : Technical directorship and infrastructure
   Hang Xu                : AUTO-CI-Response properties 


 We gratefully acknowledge several colleagues who have allowed us to
 interface, adapt or use parts of their codes:
   Stefan Grimme, W. Hujo, H. Kruse, P. Pracht,  : VdW corrections, initial TS optimization,
                  C. Bannwarth, S. Ehlert,         DFT functionals, gCP, sTDA/sTD-DF
                  L. Wittmann, M. Mueller
   Ed Valeev, F. Pavosevic, A. Kumar             : LibInt (2-el integral package), F12 methods
   Garnet Chan, S. Sharma, J. Yang, R. Olivares  : DMRG
   Ulf Ekstrom                                   : XCFun DFT Library
   Mihaly Kallay                                 : mrcc  (arbitrary order and MRCC methods)
   Frank Weinhold                                : gennbo (NPA and NBO analysis)
   Simon Mueller                                 : openCOSMO-RS
   Christopher J. Cramer and Donald G. Truhlar   : smd solvation model
   Lars Goerigk                                  : TD-DFT with DH, B97 family of functionals
   V. Asgeirsson, H. Jonsson                     : NEB implementation
   FAccTs GmbH                                   : IRC, NEB, NEB-TS, DLPNO-Multilevel, CI-OPT
                                                   MM, QMMM, 2- and 3-layer-ONIOM, Crystal-QMMM,
                                                   LR-CPCM, SF, NACMEs, symmetry and pop. for TD-DFT,
                                                   nearIR, NL-DFT gradient (VV10), updates on ESD,
                                                   ML-optimized integration grids, MBIS, APM,
                                                   GOAT, DOCKER, SOLVATOR, interface openCOSMO-RS
   S Lehtola, MJT Oliveira, MAL Marques          : LibXC Library
   Liviu Ungur et al                             : ANISO software


 Your calculation uses the libint2 library for the computation of 2-el integrals
 For citations please refer to: http://libint.valeyev.net

 Your ORCA version has been built with support for libXC version: 6.2.2
 For citations please refer to: https://libxc.gitlab.io

 This ORCA versions uses:
   CBLAS   interface :  Fast vector & matrix operations
   LAPACKE interface :  Fast linear algebra routines
   SCALAPACK package :  Parallel linear algebra routines
   Shared memory     :  Shared parallel matrices
   BLAS/LAPACK       :  OpenBLAS 0.3.27  USE64BITINT DYNAMIC_ARCH NO_AFFINITY SkylakeX SINGLE_THREADED
        Core in use  :  SkylakeX
   Copyright (c) 2011-2014, The OpenBLAS Project


Warning: RI is on but no J-basis has been assigned. Assigning Def2/J (nothing to worry about!)
================================================================================

----- Orbital basis set information -----
Your calculation utilizes the basis: 6-31G*
   H-He, Li-Ne : W. J. Hehre, R. Ditchfield and J.A. Pople, J. Chem. Phys. 56, 2257 (1972).
                 Note: He and Ne are unpublished basis sets taken from the Gaussian program.
                 Note: Li and B from J. D. Dill and J. A. Pople, J. Chem. Phys. 62, 2921 (1975).
   Na - Ar     : M. M. Francl, W. J. Pietro, W. J. Hehre, J. S. Binkley, M. S. Gordon, 
                 D. J. DeFrees and J. A. Pople, J. Chem. Phys. 77, 3654 (1982).
   K - Zn      : V. A. Rassolov, J. A. Pople, M. A. Ratner, and T. L. Windus, J. Chem. Phys. 109, 1223 (1998).

----- AuxJ basis set information -----
Your calculation utilizes the auxiliary basis: def2/J
   F. Weigend, Phys. Chem. Chem. Phys. 8, 1057 (2006).

================================================================================
                                        WARNINGS
                       Please study these warnings very carefully!
================================================================================


================================================================================
                                       INPUT FILE
================================================================================
NAME = /home/nmrbox/aojoawo/Documents/ERDOS/inputs/CHEMBL4247089.inp
|  1> ! B3LYP 6-31G* SP
|  2> 
|  3> * xyz 0 1
|  4> O 0.4518 -0.8033 2.0368
|  5> C 0.6879 -0.4838 0.8392
|  6> N -0.3958 -0.4082 -0.1020
|  7> C -1.7985 -0.4200 0.3280
|  8> C -2.1578 0.8823 1.0203
|  9> C -1.6544 2.1154 0.5608
| 10> C -2.0202 3.3078 1.1921
| 11> C -2.8993 3.2852 2.2778
| 12> F -3.2541 4.4431 2.8873
| 13> C -3.4185 2.0696 2.7305
| 14> C -3.0556 0.8742 2.1027
| 15> C -2.7078 -0.6763 -0.8629
| 16> N -3.1159 0.3943 -1.6039
| 17> C -3.9044 0.2710 -2.7004
| 18> C -4.3249 -0.9872 -3.1150
| 19> C -3.9149 -2.1129 -2.4044
| 20> C -3.0792 -1.9868 -1.2774
| 21> C -2.6376 -3.2307 -0.5289
| 22> F -2.9655 -4.3858 -1.2183
| 23> F -3.2595 -3.2732 0.7056
| 24> F -1.2656 -3.2213 -0.3537
| 25> C 2.0824 -0.2041 0.4233
| 26> C 2.3562 0.6421 -0.6680
| 27> C 3.6746 0.9085 -1.0496
| 28> C 4.7397 0.3381 -0.3415
| 29> C 6.0705 0.5873 -0.7018
| 30> C 7.1076 0.0043 0.0294
| 31> C 6.8043 -0.8219 1.1146
| 32> N 5.5084 -1.0554 1.4548
| 33> C 4.4762 -0.5022 0.7617
| 34> C 3.1553 -0.7648 1.1404
| 35> H -0.1800 -0.3403 -1.1224
| 36> H -1.9266 -1.2366 1.0676
| 37> H -0.9830 2.1553 -0.2877
| 38> H -1.6247 4.2501 0.8353
| 39> H -4.1059 2.0524 3.5665
| 40> H -3.4753 -0.0579 2.4605
| 41> H -4.2060 1.1535 -3.2486
| 42> H -4.9605 -1.0910 -3.9850
| 43> H -4.2519 -3.0828 -2.7461
| 44> H 1.5554 1.1215 -1.2152
| 45> H 3.8608 1.5643 -1.8918
| 46> H 6.3065 1.2284 -1.5427
| 47> H 8.1385 0.1911 -0.2420
| 48> H 7.6006 -1.2780 1.6874
| 49> H 2.9669 -1.4151 1.9867
| 50> *
| 51> 
| 52>                          ****END OF INPUT****
================================================================================

                       ****************************
                       * Single Point Calculation *
                       ****************************

---------------------------------
CARTESIAN COORDINATES (ANGSTROEM)
---------------------------------
  O      0.451800   -0.803300    2.036800
  C      0.687900   -0.483800    0.839200
  N     -0.395800   -0.408200   -0.102000
  C     -1.798500   -0.420000    0.328000
  C     -2.157800    0.882300    1.020300
  C     -1.654400    2.115400    0.560800
  C     -2.020200    3.307800    1.192100
  C     -2.899300    3.285200    2.277800
  F     -3.254100    4.443100    2.887300
  C     -3.418500    2.069600    2.730500
  C     -3.055600    0.874200    2.102700
  C     -2.707800   -0.676300   -0.862900
  N     -3.115900    0.394300   -1.603900
  C     -3.904400    0.271000   -2.700400
  C     -4.324900   -0.987200   -3.115000
  C     -3.914900   -2.112900   -2.404400
  C     -3.079200   -1.986800   -1.277400
  C     -2.637600   -3.230700   -0.528900
  F     -2.965500   -4.385800   -1.218300
  F     -3.259500   -3.273200    0.705600
  F     -1.265600   -3.221300   -0.353700
  C      2.082400   -0.204100    0.423300
  C      2.356200    0.642100   -0.668000
  C      3.674600    0.908500   -1.049600
  C      4.739700    0.338100   -0.341500
  C      6.070500    0.587300   -0.701800
  C      7.107600    0.004300    0.029400
  C      6.804300   -0.821900    1.114600
  N      5.508400   -1.055400    1.454800
  C      4.476200   -0.502200    0.761700
  C      3.155300   -0.764800    1.140400
  H     -0.180000   -0.340300   -1.122400
  H     -1.926600   -1.236600    1.067600
  H     -0.983000    2.155300   -0.287700
  H     -1.624700    4.250100    0.835300
  H     -4.105900    2.052400    3.566500
  H     -3.475300   -0.057900    2.460500
  H     -4.206000    1.153500   -3.248600
  H     -4.960500   -1.091000   -3.985000
  H     -4.251900   -3.082800   -2.746100
  H      1.555400    1.121500   -1.215200
  H      3.860800    1.564300   -1.891800
  H      6.306500    1.228400   -1.542700
  H      8.138500    0.191100   -0.242000
  H      7.600600   -1.278000    1.687400
  H      2.966900   -1.415100    1.986700

----------------------------
CARTESIAN COORDINATES (A.U.)
----------------------------
  NO LB      ZA    FRAG     MASS         X           Y           Z
   0 O     8.0000    0    15.999    0.853778   -1.518017    3.848994
   1 C     6.0000    0    12.011    1.299943   -0.914250    1.585858
   2 N     7.0000    0    14.007   -0.747954   -0.771386   -0.192752
   3 C     6.0000    0    12.011   -3.398672   -0.793685    0.619830
   4 C     6.0000    0    12.011   -4.077651    1.667305    1.928088
   5 C     6.0000    0    12.011   -3.126363    3.997527    1.059758
   6 C     6.0000    0    12.011   -3.817625    6.250836    2.252743
   7 C     6.0000    0    12.011   -5.478883    6.208128    4.304418
   8 F     9.0000    0    18.998   -6.149358    8.396242    5.456206
   9 C     6.0000    0    12.011   -6.460029    3.910977    5.159897
  10 C     6.0000    0    12.011   -5.774247    1.651999    3.973527
  11 C     6.0000    0    12.011   -5.117000   -1.278022   -1.630645
  12 N     7.0000    0    14.007   -5.888198    0.745119   -3.030932
  13 C     6.0000    0    12.011   -7.378247    0.512116   -5.103016
  14 C     6.0000    0    12.011   -8.172877   -1.865538   -5.886497
  15 C     6.0000    0    12.011   -7.398089   -3.992802   -4.543658
  16 C     6.0000    0    12.011   -5.818845   -3.754508   -2.413936
  17 C     6.0000    0    12.011   -4.984342   -6.105138   -0.999476
  18 F     9.0000    0    18.998   -5.603983   -8.287961   -2.302253
  19 F     9.0000    0    18.998   -6.159562   -6.185452    1.333391
  20 F     9.0000    0    18.998   -2.391637   -6.087375   -0.668396
  21 C     6.0000    0    12.011    3.935166   -0.385693    0.799921
  22 C     6.0000    0    12.011    4.452573    1.213393   -1.262337
  23 C     6.0000    0    12.011    6.943988    1.716816   -1.983457
  24 C     6.0000    0    12.011    8.956735    0.638916   -0.645341
  25 C     6.0000    0    12.011   11.471582    1.109836   -1.326210
  26 C     6.0000    0    12.011   13.431417    0.008126    0.055558
  27 C     6.0000    0    12.011   12.858264   -1.553166    2.106289
  28 N     7.0000    0    14.007   10.409367   -1.994417    2.749174
  29 C     6.0000    0    12.011    8.458792   -0.949020    1.439404
  30 C     6.0000    0    12.011    5.962653   -1.445263    2.155044
  31 H     1.0000    0     1.008   -0.340151   -0.643074   -2.121029
  32 H     1.0000    0     1.008   -3.640746   -2.336835    2.017472
  33 H     1.0000    0     1.008   -1.857601    4.072927   -0.543674
  34 H     1.0000    0     1.008   -3.070238    8.031525    1.578488
  35 H     1.0000    0     1.008   -7.759027    3.878474    6.739708
  36 H     1.0000    0     1.008   -6.567365   -0.109415    4.649671
  37 H     1.0000    0     1.008   -7.948188    2.179799   -6.138964
  38 H     1.0000    0     1.008   -9.373986   -2.061691   -7.530559
  39 H     1.0000    0     1.008   -8.034927   -5.825648   -5.189377
  40 H     1.0000    0     1.008    2.939280    2.119328   -2.296395
  41 H     1.0000    0     1.008    7.295855    2.956099   -3.574984
  42 H     1.0000    0     1.008   11.917558    2.321340   -2.915281
  43 H     1.0000    0     1.008   15.379536    0.361127   -0.457314
  44 H     1.0000    0     1.008   14.363052   -2.415070    3.188724
  45 H     1.0000    0     1.008    5.606628   -2.674151    3.754319

--------------------------------
INTERNAL COORDINATES (ANGSTROEM)
--------------------------------
 O      0   0   0     0.000000000000     0.00000000     0.00000000
 C      1   0   0     1.261772253618     0.00000000     0.00000000
 N      2   1   0     1.437351206212   119.58749848     0.00000000
 C      3   2   1     1.467176379990   121.90326183    12.74706442
 C      4   3   2     1.518012210096   110.67403437    70.76726724
 C      5   4   3     1.408931304216   121.16679160    38.45394517
 C      6   5   4     1.397915265672   120.38162626   178.53825577
 C      7   6   5     1.397165723885   120.11758804   359.40838830
 F      8   7   6     1.355767568575   120.01237540   180.09213508
 C      8   7   6     1.397207676045   119.97737474   359.73593701
 C     10   8   7     1.398145346522   120.12727981     0.27521546
 C      4   3   2     1.520118084229   110.09875922   194.01153960
 N     12   4   3     1.364481941984   118.16850701   272.89050683
 C     13  12   4     1.356188552525   122.79484872   178.61975277
 C     14  13  12     1.389885121152   119.95915560   359.66590039
 C     15  14  13     1.392929592621   119.36401105   359.20296695
 C     16  15  14     1.408696099235   120.69109376   359.82844407
 C     17  16  15     1.517415572610   119.59722128   180.53745706
 F     18  17  16     1.384574584484   111.67604105     9.92228805
 F     18  17  16     1.382951955058   109.55098486   250.06716035
 F     18  17  16     1.383172946525   110.21719902   129.56445351
 C      2   1   3     1.481835061672   119.35870957   180.54443733
 C     22   2   1     1.407819793155   120.93330576   205.93395817
 C     23  22   2     1.398129493287   120.63017574   179.58563855
 C     24  23  22     1.400428427304   120.10386217   359.67794433
 C     25  24  23     1.401051522964   121.32833138   179.98229459
 C     26  25  24     1.396466558855   119.76954561   179.82673064
 C     27  26  25     1.397231680860   119.49358329   359.96401739
 N     28  27  26     1.360005551459   120.17520404     0.00000000
 C     29  28  27     1.360828677681   121.70562621     0.00000000
 C     30  29  28     1.398981508098   120.13209642   179.99593050
 H      3   2   1     1.045177597349   119.14609481   192.58416437
 H      4   3   2     1.109167854745   108.16565110   313.28485536
 H      6   5   4     1.082738297097   120.62289128   358.80968249
 H      7   6   5     1.082430496614   119.87344630   179.69849262
 H     10   8   7     1.082455818960   120.00244141   180.49747348
 H     11  10   8     1.083041707415   119.13738475   180.60289571
 H     14  13  12     1.081800374376   119.84400518   179.52999424
 H     15  14  13     1.082433277389   120.27937597   179.53255124
 H     16  15  14     1.082143197548   118.13684788   180.15561112
 H     23  22   2     1.081911659980   120.96030234     1.16548625
 H     24  23  22     1.083533534322   119.30864657   180.10261420
 H     26  25  24     1.083428825535   120.78053697   359.83492520
 H     27  26  25     1.082269379591   120.26817049   179.98423363
 H     28  27  26     1.081767414928   120.05143318   180.01274989
 H     31  30  29     1.083793495090   119.21835195   359.74494895

---------------------------
INTERNAL COORDINATES (A.U.)
---------------------------
 O      0   0   0     0.000000000000     0.00000000     0.00000000
 C      1   0   0     2.384404002718     0.00000000     0.00000000
 N      2   1   0     2.716200138003   119.58749848     0.00000000
 C      3   2   1     2.772561548339   121.90326183    12.74706442
 C      4   3   2     2.868627345030   110.67403437    70.76726724
 C      5   4   3     2.662494306477   121.16679160    38.45394517
 C      6   5   4     2.641677010549   120.38162626   178.53825577
 C      7   6   5     2.640260581845   120.11758804   359.40838830
 F      8   7   6     2.562029405859   120.01237540   180.09213508
 C      8   7   6     2.640339859938   119.97737474   359.73593701
 C     10   8   7     2.642111800342   120.12727981     0.27521546
 C      4   3   2     2.872606870414   110.09875922   194.01153960
 N     12   4   3     2.578497185030   118.16850701   272.89050683
 C     13  12   4     2.562824950231   122.79484872   178.61975277
 C     14  13  12     2.626502236589   119.95915560   359.66590039
 C     15  14  13     2.632255453889   119.36401105   359.20296695
 C     16  15  14     2.662049833477   120.69109376   359.82844407
 C     17  16  15     2.867499863581   119.59722128   180.53745706
 F     18  17  16     2.616466776663   111.67604105     9.92228805
 F     18  17  16     2.613400451431   109.55098486   250.06716035
 F     18  17  16     2.613818064782   110.21719902   129.56445351
 C      2   1   3     2.800262442202   119.35870957   180.54443733
 C     22   2   1     2.660393854977   120.93330576   205.93395817
 C     23  22   2     2.642081842071   120.63017574   179.58563855
 C     24  23  22     2.646426197762   120.10386217   359.67794433
 C     25  24  23     2.647603677915   121.32833138   179.98229459
 C     26  25  24     2.638939351415   119.76954561   179.82673064
 C     27  26  25     2.640385222465   119.49358329   359.96401739
 N     28  27  26     2.570038032871   120.17520404     0.00000000
 C     29  28  27     2.571593516004   121.70562621     0.00000000
 C     30  29  28     2.643691916725   120.13209642   179.99593050
 H      3   2   1     1.975099420299   119.14609481   192.58416437
 H      4   3   2     2.096023482017   108.16565110   313.28485536
 H      6   5   4     2.046078856221   120.62289128   358.80968249
 H      7   6   5     2.045497197605   119.87344630   179.69849262
 H     10   8   7     2.045545049904   120.00244141   180.49747348
 H     11  10   8     2.046652218628   119.13738475   180.60289571
 H     14  13  12     2.044306439144   119.84400518   179.52999424
 H     15  14  13     2.045502452509   120.27937597   179.53255124
 H     16  15  14     2.044954281052   118.13684788   180.15561112
 H     23  22   2     2.044516738458   120.96030234     1.16548625
 H     24  23  22     2.047581636788   119.30864657   180.10261420
 H     26  25  24     2.047383765857   120.78053697   359.83492520
 H     27  26  25     2.045192730556   120.26817049   179.98423363
 H     28  27  26     2.044244154814   120.05143318   180.01274989
 H     31  30  29     2.048072891446   119.21835195   359.74494895

---------------------
BASIS SET INFORMATION
---------------------
There are 5 groups of distinct atoms

 Group   1 Type O   : 10s4p1d contracted to 3s2p1d pattern {631/31/1}
 Group   2 Type C   : 10s4p1d contracted to 3s2p1d pattern {631/31/1}
 Group   3 Type N   : 10s4p1d contracted to 3s2p1d pattern {631/31/1}
 Group   4 Type F   : 10s4p1d contracted to 3s2p1d pattern {631/31/1}
 Group   5 Type H   : 4s contracted to 2s pattern {31}

Atom   0O    basis set group =>   1
Atom   1C    basis set group =>   2
Atom   2N    basis set group =>   3
Atom   3C    basis set group =>   2
Atom   4C    basis set group =>   2
Atom   5C    basis set group =>   2
Atom   6C    basis set group =>   2
Atom   7C    basis set group =>   2
Atom   8F    basis set group =>   4
Atom   9C    basis set group =>   2
Atom  10C    basis set group =>   2
Atom  11C    basis set group =>   2
Atom  12N    basis set group =>   3
Atom  13C    basis set group =>   2
Atom  14C    basis set group =>   2
Atom  15C    basis set group =>   2
Atom  16C    basis set group =>   2
Atom  17C    basis set group =>   2
Atom  18F    basis set group =>   4
Atom  19F    basis set group =>   4
Atom  20F    basis set group =>   4
Atom  21C    basis set group =>   2
Atom  22C    basis set group =>   2
Atom  23C    basis set group =>   2
Atom  24C    basis set group =>   2
Atom  25C    basis set group =>   2
Atom  26C    basis set group =>   2
Atom  27C    basis set group =>   2
Atom  28N    basis set group =>   3
Atom  29C    basis set group =>   2
Atom  30C    basis set group =>   2
Atom  31H    basis set group =>   5
Atom  32H    basis set group =>   5
Atom  33H    basis set group =>   5
Atom  34H    basis set group =>   5
Atom  35H    basis set group =>   5
Atom  36H    basis set group =>   5
Atom  37H    basis set group =>   5
Atom  38H    basis set group =>   5
Atom  39H    basis set group =>   5
Atom  40H    basis set group =>   5
Atom  41H    basis set group =>   5
Atom  42H    basis set group =>   5
Atom  43H    basis set group =>   5
Atom  44H    basis set group =>   5
Atom  45H    basis set group =>   5
---------------------------------
AUXILIARY/J BASIS SET INFORMATION
---------------------------------
There are 5 groups of distinct atoms

 Group   1 Type O   : 12s5p4d2f1g contracted to 6s4p3d1f1g pattern {711111/2111/211/2/1}
 Group   2 Type C   : 12s5p4d2f1g contracted to 6s4p3d1f1g pattern {711111/2111/211/2/1}
 Group   3 Type N   : 12s5p4d2f1g contracted to 6s4p3d1f1g pattern {711111/2111/211/2/1}
 Group   4 Type F   : 12s5p4d2f1g contracted to 6s4p3d1f1g pattern {711111/2111/211/2/1}
 Group   5 Type H   : 5s2p1d contracted to 3s1p1d pattern {311/2/1}

Atom   0O    basis set group =>   1
Atom   1C    basis set group =>   2
Atom   2N    basis set group =>   3
Atom   3C    basis set group =>   2
Atom   4C    basis set group =>   2
Atom   5C    basis set group =>   2
Atom   6C    basis set group =>   2
Atom   7C    basis set group =>   2
Atom   8F    basis set group =>   4
Atom   9C    basis set group =>   2
Atom  10C    basis set group =>   2
Atom  11C    basis set group =>   2
Atom  12N    basis set group =>   3
Atom  13C    basis set group =>   2
Atom  14C    basis set group =>   2
Atom  15C    basis set group =>   2
Atom  16C    basis set group =>   2
Atom  17C    basis set group =>   2
Atom  18F    basis set group =>   4
Atom  19F    basis set group =>   4
Atom  20F    basis set group =>   4
Atom  21C    basis set group =>   2
Atom  22C    basis set group =>   2
Atom  23C    basis set group =>   2
Atom  24C    basis set group =>   2
Atom  25C    basis set group =>   2
Atom  26C    basis set group =>   2
Atom  27C    basis set group =>   2
Atom  28N    basis set group =>   3
Atom  29C    basis set group =>   2
Atom  30C    basis set group =>   2
Atom  31H    basis set group =>   5
Atom  32H    basis set group =>   5
Atom  33H    basis set group =>   5
Atom  34H    basis set group =>   5
Atom  35H    basis set group =>   5
Atom  36H    basis set group =>   5
Atom  37H    basis set group =>   5
Atom  38H    basis set group =>   5
Atom  39H    basis set group =>   5
Atom  40H    basis set group =>   5
Atom  41H    basis set group =>   5
Atom  42H    basis set group =>   5
Atom  43H    basis set group =>   5
Atom  44H    basis set group =>   5
Atom  45H    basis set group =>   5
------------------------------------------------------------------------------
                             ORCA STARTUP CALCULATIONS
                           -- RI-GTO INTEGRALS CHOSEN --
------------------------------------------------------------------------------
------------------------------------------------------------------------------
                   ___                                                        
                  /   \      - P O W E R E D   B Y -                         
                 /     \                                                     
                 |  |  |   _    _      __       _____    __    __             
                 |  |  |  | |  | |    /  \     |  _  \  |  |  /  |          
                  \  \/   | |  | |   /    \    | | | |  |  | /  /          
                 / \  \   | |__| |  /  /\  \   | |_| |  |  |/  /          
                |  |  |   |  __  | /  /__\  \  |    /   |      \           
                |  |  |   | |  | | |   __   |  |    \   |  |\   \          
                \     /   | |  | | |  |  |  |  | |\  \  |  | \   \       
                 \___/    |_|  |_| |__|  |__|  |_| \__\ |__|  \__/        
                                                                              
                      - O R C A' S   B I G   F R I E N D -                    
                                      &                                       
                       - I N T E G R A L  F E E D E R -                       
                                                                              
 v1 FN, 2020, v2 2021, v3 2022-2024                                           
------------------------------------------------------------------------------


----------------------
SHARK INTEGRAL PACKAGE
----------------------

Number of atoms                             ...     46
Number of basis functions                   ...    464
Number of shells                            ...    216
Maximum angular momentum                    ...      2
Integral batch strategy                     ... SHARK/LIBINT Hybrid
RI-J (if used) integral strategy            ... SPLIT-RIJ (Revised 2003 algorithm where possible)
Printlevel                                  ...      1
Contraction scheme used                     ... SEGMENTED contraction
Prescreening option                         ... SCHWARTZ
   Thresh                                   ... 1.000e-10
   Tcut                                     ... 1.000e-11
   Tpresel                                  ... 1.000e-11 
Coulomb Range Separation                    ... NOT USED
Exchange Range Separation                   ... NOT USED
Multipole approximations                    ... NOT USED
Finite Nucleus Model                        ... NOT USED
CABS basis                                  ... NOT available
Auxiliary Coulomb fitting basis             ... AVAILABLE
   # of basis functions in Aux-J            ...   1684
   # of shells in Aux-J                     ...    540
   Maximum angular momentum in Aux-J        ...      4
Auxiliary J/K fitting basis                 ... NOT available
Auxiliary Correlation fitting basis         ... NOT available
Auxiliary 'external' fitting basis          ... NOT available

Checking pre-screening integrals            ... done (  0.0 sec) Dimension = 216
Check shell pair data                       ... done (  0.0 sec)
Shell pair information
Shell pair cut-off parameter TPreSel        ...   1.0e-11
Total number of shell pairs                 ...     23436
Shell pairs after pre-screening             ...     13237
Total number of primitive shell pairs       ...    138771
Primitive shell pairs kept                  ...     41069
          la=0 lb=0:   4002 shell pairs
          la=1 lb=0:   4679 shell pairs
          la=1 lb=1:   1369 shell pairs
          la=2 lb=0:   1833 shell pairs
          la=2 lb=1:   1132 shell pairs
          la=2 lb=2:    222 shell pairs

Calculating one electron integrals          ... done (  0.2 sec)
Calculating RI/J V-Matrix + Cholesky decomp.... done (  0.5 sec)
Calculating Nuclear repulsion               ... done (  0.0 sec) ENN=   2892.893262861106 Eh

Diagonalization of the overlap matrix:
Smallest eigenvalue                        ... 3.720e-04
Time for diagonalization                   ...    0.039 sec
Threshold for overlap eigenvalues          ... 1.000e-07
Number of eigenvalues below threshold      ... 0
Time for construction of square roots      ...    0.034 sec
Total time needed                          ...    0.083 sec

-------------------
DFT GRID GENERATION
-------------------

General Integration Accuracy     IntAcc      ... 4.388
Radial Grid Type                 RadialGrid  ... OptM3 with GC (2021)
Angular Grid (max. ang.)         AngularGrid ... 4 (Lebedev-302)
Angular grid pruning method      GridPruning ... 4 (adaptive)
Weight generation scheme         WeightScheme... mBecke (2022)
Basis function cutoff            BFCut       ... 1.0000e-10
Integration weight cutoff        WCut        ... 1.0000e-14
Partially contracted basis set               ... off
Rotationally invariant grid construction     ... off
Angular grids for H and He will be reduced by one unit

Total number of grid points                  ...   233353
Total number of batches                      ...     3668
Average number of points per batch           ...       63
Average number of grid points per atom       ...     5073

--------------------
COSX GRID GENERATION
--------------------

GRIDX 1
-------
General Integration Accuracy     IntAcc      ... 3.816
Radial Grid Type                 RadialGrid  ... OptM3 with GC (2021)
Angular Grid (max. ang.)         AngularGrid ... 1 (Lebedev-50)
Angular grid pruning method      GridPruning ... 4 (adaptive)
Weight generation scheme         WeightScheme... mBecke (2022)
Basis function cutoff            BFCut       ... 1.0000e-10
Integration weight cutoff        WCut        ... 1.0000e-14
Partially contracted basis set               ... on
Rotationally invariant grid construction     ... off
Angular grids for H and He will be reduced by one unit

Total number of grid points                  ...    29509
Total number of batches                      ...      252
Average number of points per batch           ...      117
Average number of grid points per atom       ...      642
UseSFitting                                  ... on

GRIDX 2
-------
General Integration Accuracy     IntAcc      ... 4.020
Radial Grid Type                 RadialGrid  ... OptM3 with GC (2021)
Angular Grid (max. ang.)         AngularGrid ... 2 (Lebedev-110)
Angular grid pruning method      GridPruning ... 4 (adaptive)
Weight generation scheme         WeightScheme... mBecke (2022)
Basis function cutoff            BFCut       ... 1.0000e-10
Integration weight cutoff        WCut        ... 1.0000e-14
Partially contracted basis set               ... on
Rotationally invariant grid construction     ... off
Angular grids for H and He will be reduced by one unit

Total number of grid points                  ...    65586
Total number of batches                      ...      535
Average number of points per batch           ...      122
Average number of grid points per atom       ...     1426
UseSFitting                                  ... on

GRIDX 3
-------
General Integration Accuracy     IntAcc      ... 4.338
Radial Grid Type                 RadialGrid  ... OptM3 with GC (2021)
Angular Grid (max. ang.)         AngularGrid ... 3 (Lebedev-194)
Angular grid pruning method      GridPruning ... 4 (adaptive)
Weight generation scheme         WeightScheme... mBecke (2022)
Basis function cutoff            BFCut       ... 1.0000e-10
Integration weight cutoff        WCut        ... 1.0000e-14
Partially contracted basis set               ... on
Rotationally invariant grid construction     ... off
Angular grids for H and He will be reduced by one unit

Total number of grid points                  ...   143828
Total number of batches                      ...     1147
Average number of points per batch           ...      125
Average number of grid points per atom       ...     3127
UseSFitting                                  ... on
Initializing property integral containers    ... done (  0.0 sec)

SHARK setup successfully completed in  10.9 seconds

Maximum memory used throughout the entire STARTUP-calculation: 99.6 MB
-------------------------------------------------------------------------------
                                 ORCA GUESS
                   Start orbitals & Density for SCF / CASSCF
-------------------------------------------------------------------------------

------------
SCF SETTINGS
------------
Hamiltonian:
 Density Functional     Method          .... DFT(GTOs)
 Exchange Functional    Exchange        .... B88
   X-Alpha parameter    XAlpha          ....  0.666667
   Becke's b parameter  XBeta           ....  0.004200
 Correlation Functional Correlation     .... LYP
 LDA part of GGA corr.  LDAOpt          .... VWN-5
 Gradients option       PostSCFGGA      .... off
 Hybrid DFT is turned on
   Fraction HF Exchange ScalHFX         ....  0.200000
   Scaling of DF-GGA-X  ScalDFX         ....  0.720000
   Scaling of DF-GGA-C  ScalDFC         ....  0.810000
   Scaling of DF-LDA-C  ScalLDAC        ....  1.000000
   Perturbative correction              ....  0.000000
   NL short-range parameter             ....  4.800000
 RI-approximation to the Coulomb term is turned on
   Number of AuxJ basis functions       .... 1684
   RIJ-COSX (HFX calculated with COS-X)).... on


General Settings:
 Integral files         IntName         .... /home/nmrbox/aojoawo/Documents/ERDOS/inputs/CHEMBL4247089
 Hartree-Fock type      HFTyp           .... RHF
 Total Charge           Charge          ....    0
 Multiplicity           Mult            ....    1
 Number of Electrons    NEL             ....  218
 Basis Dimension        Dim             ....  464
 Nuclear Repulsion      ENuc            ....   2892.8932628611 Eh

Convergence Acceleration:
 AO-DIIS                CNVDIIS         .... on
   Start iteration      DIISMaxIt       ....    12
   Startup error        DIISStart       ....  0.200000
   # of expansion vecs  DIISMaxEq       ....     5
   Bias factor          DIISBfac        ....   1.050
   Max. coefficient     DIISMaxC        ....  10.000
 MO-DIIS                CNVKDIIS        .... off
 Trust-Rad. Augm. Hess. CNVTRAH         .... auto
   Auto Start mean grad. ratio tolernc. ....  1.125000
   Auto Start start iteration           ....    50
   Auto Start num. interpolation iter.  ....    10
   Max. Number of Micro iterations      ....    24
   Max. Number of Macro iterations      .... Maxiter - #DIIS iter
   Number of Davidson start vectors     ....     2
   Converg. threshold    (grad. norm)   ....   5.000e-05
   Grad. Scal. Fac. for Micro threshold ....   0.100
   Minimum threshold for Micro iter.    ....   1.000e-02
   NR start threshold (gradient norm)   ....   1.000e-04
   Initial trust radius                 ....   0.400
   Minimum AH scaling param. (alpha)    ....   1.000
   Maximum AH scaling param. (alpha)    .... 1000.000
   Quad. conv. algorithm                .... NR
   White noise on init. David. guess    .... on
   Maximum white noise                  ....   0.010
   Pseudo random numbers                .... off
   Inactive MOs                         .... canonical
   Orbital update algorithm             .... Taylor
   Preconditioner                       .... Diag
   Full preconditioner red. dimension   ....   250
 SOSCF                  CNVSOSCF        .... on
   Start iteration      SOSCFMaxIt      ....   150
   Startup grad/error   SOSCFStart      ....  0.003300
   Hessian update       SOSCFHessUp     .... L-BFGS
 Level Shifting         CNVShift        .... on
   Level shift para.    LevelShift      ....    0.2500
   Turn off err/grad.   ShiftErr        ....    0.0010
 Zerner damping         CNVZerner       .... off
 Static damping         CNVDamp         .... on
   Fraction old density DampFac         ....    0.7000
   Max. Damping (<1)    DampMax         ....    0.9800
   Min. Damping (>=0)   DampMin         ....    0.0000
   Turn off err/grad.   DampErr         ....    0.1000

SCF Procedure:
 Maximum # iterations   MaxIter         ....   125
 SCF integral mode      SCFMode         .... Direct
   Integral package                     .... SHARK and LIBINT hybrid scheme
 Reset frequency        DirectResetFreq ....    20
 Integral Threshold     Thresh          ....  1.000e-10 Eh
 Primitive CutOff       TCut            ....  1.000e-11 Eh

Convergence Tolerance:
 Convergence Check Mode ConvCheckMode   .... Total+1el-Energy
 Convergence forced     ConvForced      .... 0
 Energy Change          TolE            ....  1.000e-06 Eh
 1-El. energy change                    ....  1.000e-03 Eh
 Orbital Gradient       TolG            ....  5.000e-05
 Orbital Rotation angle TolX            ....  5.000e-05
 DIIS Error             TolErr          ....  1.000e-06

------------------------------
INITIAL GUESS: MODEL POTENTIAL
------------------------------
Loading Hartree-Fock densities                     ... done
Calculating cut-offs                               ... done
Initializing the effective Hamiltonian             ... done
Setting up the integral package (SHARK)            ... done
Starting the Coulomb interaction                   ... done (   2.7 sec)
Making the grid                                    ... done (   1.4 sec)
Mapping shells                                     ... done
Starting the XC term evaluation                    ... done (   1.0 sec)
  promolecular density results
     # of electrons  =    217.989588770
     EX              =   -190.765858553
     EC              =     -7.602909505
     EX+EC           =   -198.368768058
Transforming the Hamiltonian                       ... done (   0.0 sec)
Diagonalizing the Hamiltonian                      ... done (   0.0 sec)
Back transforming the eigenvectors                 ... done (   0.0 sec)
Now organizing SCF variables                       ... done
                      ------------------
                      INITIAL GUESS DONE (   5.1 sec)
                      ------------------
             **** ENERGY FILE WAS UPDATED (/home/nmrbox/aojoawo/Documents/ERDOS/inputs/CHEMBL4247089.en.tmp) ****
Finished Guess after   5.5 sec
Maximum memory used throughout the entire GUESS-calculation: 54.3 MB

-------------------------------------------------------------------------------------------
                                      ORCA LEAN-SCF
                              memory conserving SCF solver
-------------------------------------------------------------------------------------------

----------------------------------------D-I-I-S--------------------------------------------
Iteration    Energy (Eh)           Delta-E    RMSDP     MaxDP     DIISErr   Damp  Time(sec)
-------------------------------------------------------------------------------------------
               ***  Starting incremental Fock matrix formation  ***
    1    -1522.8468785448239942     0.00e+00  2.09e-03  1.10e-01  2.75e-01  0.700  55.2
    2    -1523.1418752265426519    -2.95e-01  1.39e-03  6.19e-02  9.87e-02  0.700  24.3
                               ***Turning on AO-DIIS***
    3    -1523.2546864179630575    -1.13e-01  5.76e-04  1.57e-02  3.69e-02  0.700  24.2
    4    -1523.3251730536676405    -7.05e-02  9.93e-04  2.88e-02  1.61e-02  0.000  21.7
    5    -1523.4803775168875291    -1.55e-01  2.20e-04  8.15e-03  6.50e-03  0.000  22.0
                              *** Initializing SOSCF ***
---------------------------------------S-O-S-C-F--------------------------------------
Iteration    Energy (Eh)           Delta-E    RMSDP     MaxDP     MaxGrad    Time(sec)
--------------------------------------------------------------------------------------
    6    -1523.4813805021321969    -1.00e-03  7.52e-05  3.10e-03  3.23e-03    19.9
               *** Restarting incremental Fock matrix formation ***
    7    -1523.4814565615924948    -7.61e-05  6.28e-05  4.84e-03  4.78e-04    53.4
    8    -1523.4814052439505758     5.13e-05  4.01e-05  3.73e-03  1.37e-03    32.0
    9    -1523.4814733669009001    -6.81e-05  8.36e-06  3.97e-04  7.33e-05    29.5
   10    -1523.4814724705938715     8.96e-07  5.48e-06  2.89e-04  1.42e-04    22.0
                 **** Energy Check signals convergence ****

               *****************************************************
               *                     SUCCESS                       *
               *           SCF CONVERGED AFTER  10 CYCLES          *
               *****************************************************

Recomputing exchange energy using gridx3       ... done (   98.551 sec)
Old exchange energy                            :    -38.570226638 Eh
New exchange energy                            :    -38.570325341 Eh
Exchange energy change after final integration :     -0.000098703 Eh
Total energy after final integration           :  -1523.481571174 Eh
             **** ENERGY FILE WAS UPDATED (/home/nmrbox/aojoawo/Documents/ERDOS/inputs/CHEMBL4247089.en.tmp) ****

----------------
TOTAL SCF ENERGY
----------------

Total Energy       :      -1523.48157117399660 Eh          -41456.04114 eV

Components:
Nuclear Repulsion  :       2892.89326286110645 Eh           78719.62771 eV
Electronic Energy  :      -4416.37473533170032 Eh         -120175.66616 eV
One Electron Energy:      -7838.30068575328733 Eh         -213291.00516 eV
Two Electron Energy:       3421.92595042158700 Eh           93115.33900 eV

Virial components:
Potential Energy   :      -3037.73868148277325 Eh          -82661.07193 eV
Kinetic Energy     :       1514.25711030877687 Eh           41205.03079 eV
Virial Ratio       :          2.00609174016910

DFT components:
N(Alpha)           :      108.999953664636 electrons
N(Beta)            :      108.999953664636 electrons
N(Total)           :      217.999907329271 electrons
E(X)               :     -153.341621754383 Eh       
E(C)               :       -8.936018836536 Eh       
E(XC)              :     -162.277640590919 Eh       

---------------
SCF CONVERGENCE
---------------

  Last Energy change         ...   -8.9631e-07  Tolerance :   1.0000e-06
  Last MAX-Density change    ...    2.8921e-04  Tolerance :   1.0000e-05
  Last RMS-Density change    ...    5.4777e-06  Tolerance :   1.0000e-06
  Last DIIS Error            ...    3.2283e-03  Tolerance :   1.0000e-06
  Last Orbital Gradient      ...    1.4162e-04  Tolerance :   5.0000e-05
  Last Orbital Rotation      ...    2.0493e-04  Tolerance :   5.0000e-05


----------------
ORBITAL ENERGIES
----------------

  NO   OCC          E(Eh)            E(eV) 
   0   2.0000     -24.730872      -672.9612 
   1   2.0000     -24.727866      -672.8795 
   2   2.0000     -24.725920      -672.8265 
   3   2.0000     -24.688940      -671.8202 
   4   2.0000     -19.107766      -519.9487 
   5   2.0000     -14.358551      -390.7160 
   6   2.0000     -14.348576      -390.4446 
   7   2.0000     -14.325219      -389.8090 
   8   2.0000     -10.446907      -284.2748 
   9   2.0000     -10.289225      -279.9840 
  10   2.0000     -10.259544      -279.1764 
  11   2.0000     -10.258561      -279.1496 
  12   2.0000     -10.242448      -278.7112 
  13   2.0000     -10.237788      -278.5844 
  14   2.0000     -10.234625      -278.4983 
  15   2.0000     -10.226806      -278.2855 
  16   2.0000     -10.224280      -278.2168 
  17   2.0000     -10.221515      -278.1416 
  18   2.0000     -10.213025      -277.9105 
  19   2.0000     -10.207085      -277.7489 
  20   2.0000     -10.205143      -277.6960 
  21   2.0000     -10.200197      -277.5615 
  22   2.0000     -10.200119      -277.5593 
  23   2.0000     -10.196660      -277.4652 
  24   2.0000     -10.196633      -277.4645 
  25   2.0000     -10.191854      -277.3344 
  26   2.0000     -10.186295      -277.1832 
  27   2.0000     -10.182970      -277.0927 
  28   2.0000     -10.182414      -277.0776 
  29   2.0000     -10.180125      -277.0153 
  30   2.0000     -10.179690      -277.0035 
  31   2.0000      -1.289495       -35.0889 
  32   2.0000      -1.214606       -33.0511 
  33   2.0000      -1.212671       -32.9985 
  34   2.0000      -1.202136       -32.7118 
  35   2.0000      -1.008472       -27.4419 
  36   2.0000      -0.956641       -26.0315 
  37   2.0000      -0.936228       -25.4761 
  38   2.0000      -0.908448       -24.7201 
  39   2.0000      -0.856026       -23.2937 
  40   2.0000      -0.847026       -23.0487 
  41   2.0000      -0.832355       -22.6495 
  42   2.0000      -0.811058       -22.0700 
  43   2.0000      -0.805065       -21.9069 
  44   2.0000      -0.770604       -20.9692 
  45   2.0000      -0.754809       -20.5394 
  46   2.0000      -0.743716       -20.2375 
  47   2.0000      -0.742997       -20.2180 
  48   2.0000      -0.716862       -19.5068 
  49   2.0000      -0.695792       -18.9335 
  50   2.0000      -0.663775       -18.0622 
  51   2.0000      -0.645961       -17.5775 
  52   2.0000      -0.638609       -17.3774 
  53   2.0000      -0.630420       -17.1546 
  54   2.0000      -0.613587       -16.6965 
  55   2.0000      -0.609572       -16.5873 
  56   2.0000      -0.592228       -16.1153 
  57   2.0000      -0.580465       -15.7953 
  58   2.0000      -0.578358       -15.7379 
  59   2.0000      -0.572642       -15.5824 
  60   2.0000      -0.569795       -15.5049 
  61   2.0000      -0.546299       -14.8656 
  62   2.0000      -0.530873       -14.4458 
  63   2.0000      -0.526616       -14.3300 
  64   2.0000      -0.520126       -14.1533 
  65   2.0000      -0.511482       -13.9181 
  66   2.0000      -0.508792       -13.8449 
  67   2.0000      -0.490556       -13.3487 
  68   2.0000      -0.478795       -13.0287 
  69   2.0000      -0.473384       -12.8814 
  70   2.0000      -0.462429       -12.5833 
  71   2.0000      -0.459313       -12.4986 
  72   2.0000      -0.456966       -12.4347 
  73   2.0000      -0.447640       -12.1809 
  74   2.0000      -0.444387       -12.0924 
  75   2.0000      -0.442361       -12.0372 
  76   2.0000      -0.437879       -11.9153 
  77   2.0000      -0.433176       -11.7873 
  78   2.0000      -0.431911       -11.7529 
  79   2.0000      -0.429957       -11.6997 
  80   2.0000      -0.429185       -11.6787 
  81   2.0000      -0.419642       -11.4190 
  82   2.0000      -0.417114       -11.3503 
  83   2.0000      -0.414735       -11.2855 
  84   2.0000      -0.412075       -11.2131 
  85   2.0000      -0.409654       -11.1473 
  86   2.0000      -0.407326       -11.0839 
  87   2.0000      -0.406055       -11.0493 
  88   2.0000      -0.399723       -10.8770 
  89   2.0000      -0.385121       -10.4797 
  90   2.0000      -0.380104       -10.3432 
  91   2.0000      -0.373267       -10.1571 
  92   2.0000      -0.364582        -9.9208 
  93   2.0000      -0.361941        -9.8489 
  94   2.0000      -0.360085        -9.7984 
  95   2.0000      -0.342206        -9.3119 
  96   2.0000      -0.334244        -9.0953 
  97   2.0000      -0.332332        -9.0432 
  98   2.0000      -0.305819        -8.3217 
  99   2.0000      -0.304882        -8.2963 
 100   2.0000      -0.286584        -7.7983 
 101   2.0000      -0.268618        -7.3095 
 102   2.0000      -0.260737        -7.0950 
 103   2.0000      -0.250692        -6.8217 
 104   2.0000      -0.247539        -6.7359 
 105   2.0000      -0.245913        -6.6916 
 106   2.0000      -0.243799        -6.6341 
 107   2.0000      -0.228253        -6.2111 
 108   2.0000      -0.225005        -6.1227 
 109   0.0000      -0.068922        -1.8755 
 110   0.0000      -0.051454        -1.4001 
 111   0.0000      -0.047619        -1.2958 
 112   0.0000      -0.033199        -0.9034 
 113   0.0000       0.002191         0.0596 
 114   0.0000       0.009071         0.2468 
 115   0.0000       0.013934         0.3792 
 116   0.0000       0.034571         0.9407 
 117   0.0000       0.067369         1.8332 
 118   0.0000       0.089650         2.4395 
 119   0.0000       0.093251         2.5375 
*Only the first 10 virtual orbitals were printed.

                    ********************************
                    * MULLIKEN POPULATION ANALYSIS *
                    ********************************

-----------------------
MULLIKEN ATOMIC CHARGES
-----------------------
   0 O :   -0.474545
   1 C :    0.517678
   2 N :   -0.639278
   3 C :   -0.070193
   4 C :    0.172397
   5 C :   -0.123083
   6 C :   -0.214618
   7 C :    0.410544
   8 F :   -0.321068
   9 C :   -0.210858
  10 C :   -0.156151
  11 C :    0.181894
  12 N :   -0.393307
  13 C :    0.026308
  14 C :   -0.134235
  15 C :   -0.131567
  16 C :   -0.057792
  17 C :    0.921581
  18 F :   -0.304272
  19 F :   -0.295657
  20 F :   -0.294911
  21 C :    0.075803
  22 C :   -0.180416
  23 C :   -0.207245
  24 C :    0.172898
  25 C :   -0.153481
  26 C :   -0.144907
  27 C :    0.016108
  28 N :   -0.427778
  29 C :    0.210392
  30 C :   -0.170641
  31 H :    0.325744
  32 H :    0.181592
  33 H :    0.123288
  34 H :    0.137764
  35 H :    0.140936
  36 H :    0.137645
  37 H :    0.161836
  38 H :    0.148277
  39 H :    0.168951
  40 H :    0.131407
  41 H :    0.134724
  42 H :    0.142365
  43 H :    0.136580
  44 H :    0.153271
  45 H :    0.176021
Sum of atomic charges:    0.0000000

--------------------------------
MULLIKEN REDUCED ORBITAL CHARGES
--------------------------------
  0 O s       :     3.891302  s :     3.891302
      pz      :     1.365642  p :     4.557698
      px      :     1.777291
      py      :     1.414766
      dz2     :     0.009474  d :     0.025544
      dxz     :     0.005873
      dyz     :     0.008526
      dx2y2   :     0.000917
      dxy     :     0.000755

  1 C s       :     3.024130  s :     3.024130
      pz      :     0.730022  p :     2.358814
      px      :     0.816393
      py      :     0.812399
      dz2     :     0.023428  d :     0.099378
      dxz     :     0.038490
      dyz     :     0.019886
      dx2y2   :     0.007839
      dxy     :     0.009735

  2 N s       :     3.607682  s :     3.607682
      pz      :     1.178868  p :     4.003067
      px      :     1.105991
      py      :     1.718209
      dz2     :     0.009572  d :     0.028529
      dxz     :     0.008155
      dyz     :     0.001577
      dx2y2   :     0.005021
      dxy     :     0.004203

  3 C s       :     3.218636  s :     3.218636
      pz      :     0.966627  p :     2.792457
      px      :     0.796635
      py      :     1.029195
      dz2     :     0.007924  d :     0.059100
      dxz     :     0.011775
      dyz     :     0.013122
      dx2y2   :     0.014847
      dxy     :     0.011433

  4 C s       :     3.127758  s :     3.127758
      pz      :     0.909826  p :     2.660844
      px      :     0.908850
      py      :     0.842168
      dz2     :     0.007434  d :     0.039001
      dxz     :     0.005430
      dyz     :     0.010151
      dx2y2   :     0.008769
      dxy     :     0.007217

  5 C s       :     3.192891  s :     3.192891
      pz      :     0.965335  p :     2.893997
      px      :     0.983319
      py      :     0.945343
      dz2     :     0.005339  d :     0.036196
      dxz     :     0.006819
      dyz     :     0.008624
      dx2y2   :     0.007656
      dxy     :     0.007757

  6 C s       :     3.204400  s :     3.204400
      pz      :     0.982330  p :     2.975618
      px      :     0.999880
      py      :     0.993408
      dz2     :     0.007477  d :     0.034600
      dxz     :     0.005459
      dyz     :     0.007242
      dx2y2   :     0.007869
      dxy     :     0.006552

  7 C s       :     3.082137  s :     3.082137
      pz      :     0.861496  p :     2.434870
      px      :     0.925458
      py      :     0.647916
      dz2     :     0.012989  d :     0.072449
      dxz     :     0.007374
      dyz     :     0.019862
      dx2y2   :     0.015920
      dxy     :     0.016304

  8 F s       :     3.970693  s :     3.970693
      pz      :     1.832173  p :     5.333322
      px      :     1.883371
      py      :     1.617779
      dz2     :     0.002493  d :     0.017053
      dxz     :     0.001297
      dyz     :     0.005133
      dx2y2   :     0.004157
      dxy     :     0.003973

  9 C s       :     3.204196  s :     3.204196
      pz      :     1.002586  p :     2.972150
      px      :     1.015812
      py      :     0.953752
      dz2     :     0.005202  d :     0.034512
      dxz     :     0.006512
      dyz     :     0.007927
      dx2y2   :     0.007352
      dxy     :     0.007519

 10 C s       :     3.190917  s :     3.190917
      pz      :     0.985329  p :     2.928939
      px      :     0.973665
      py      :     0.969946
      dz2     :     0.007459  d :     0.036295
      dxz     :     0.005157
      dyz     :     0.008445
      dx2y2   :     0.007359
      dxy     :     0.007876

 11 C s       :     3.109827  s :     3.109827
      pz      :     0.851390  p :     2.651558
      px      :     0.927569
      py      :     0.872599
      dz2     :     0.010780  d :     0.056721
      dxz     :     0.007447
      dyz     :     0.015279
      dx2y2   :     0.012574
      dxy     :     0.010641

 12 N s       :     3.695281  s :     3.695281
      pz      :     1.066360  p :     3.662894
      px      :     1.122341
      py      :     1.474193
      dz2     :     0.006970  d :     0.035132
      dxz     :     0.005891
      dyz     :     0.008721
      dx2y2   :     0.007148
      dxy     :     0.006402

 13 C s       :     3.142270  s :     3.142270
      pz      :     0.888749  p :     2.777510
      px      :     0.905775
      py      :     0.982986
      dz2     :     0.009721  d :     0.053912
      dxz     :     0.008371
      dyz     :     0.017145
      dx2y2   :     0.008870
      dxy     :     0.009804

 14 C s       :     3.197376  s :     3.197376
      pz      :     0.993210  p :     2.901769
      px      :     0.991973
      py      :     0.916586
      dz2     :     0.006106  d :     0.035090
      dxz     :     0.006513
      dyz     :     0.008407
      dx2y2   :     0.007250
      dxy     :     0.006813

 15 C s       :     3.203457  s :     3.203457
      pz      :     0.954581  p :     2.891961
      px      :     0.943960
      py      :     0.993421
      dz2     :     0.008019  d :     0.036149
      dxz     :     0.005355
      dyz     :     0.008561
      dx2y2   :     0.007817
      dxy     :     0.006397

 16 C s       :     3.174339  s :     3.174339
      pz      :     0.944876  p :     2.847261
      px      :     0.980420
      py      :     0.921965
      dz2     :     0.006593  d :     0.036192
      dxz     :     0.004745
      dyz     :     0.010532
      dx2y2   :     0.007521
      dxy     :     0.006801

 17 C s       :     2.800484  s :     2.800484
      pz      :     0.684381  p :     2.139525
      px      :     0.647572
      py      :     0.807572
      dz2     :     0.027655  d :     0.138411
      dxz     :     0.027968
      dyz     :     0.028083
      dx2y2   :     0.032758
      dxy     :     0.021947

 18 F s       :     3.982334  s :     3.982334
      pz      :     1.804948  p :     5.305646
      px      :     1.883524
      py      :     1.617173
      dz2     :     0.002218  d :     0.016292
      dxz     :     0.001277
      dyz     :     0.005491
      dx2y2   :     0.004154
      dxy     :     0.003153

 19 F s       :     3.982582  s :     3.982582
      pz      :     1.565901  p :     5.296545
      px      :     1.817832
      py      :     1.912813
      dz2     :     0.005736  d :     0.016530
      dxz     :     0.005530
      dyz     :     0.003309
      dx2y2   :     0.001146
      dxy     :     0.000810

 20 F s       :     3.985353  s :     3.985353
      pz      :     1.895534  p :     5.292772
      px      :     1.485476
      py      :     1.911761
      dz2     :     0.002294  d :     0.016786
      dxz     :     0.003877
      dyz     :     0.000359
      dx2y2   :     0.006434
      dxy     :     0.003822

 21 C s       :     3.162474  s :     3.162474
      pz      :     0.891641  p :     2.722880
      px      :     0.883550
      py      :     0.947689
      dz2     :     0.008577  d :     0.038843
      dxz     :     0.008946
      dyz     :     0.005525
      dx2y2   :     0.008832
      dxy     :     0.006964

 22 C s       :     3.204428  s :     3.204428
      pz      :     0.974459  p :     2.939909
      px      :     0.984722
      py      :     0.980728
      dz2     :     0.006142  d :     0.036079
      dxz     :     0.010140
      dyz     :     0.005243
      dx2y2   :     0.006603
      dxy     :     0.007953

 23 C s       :     3.208769  s :     3.208769
      pz      :     0.990372  p :     2.962202
      px      :     0.973414
      py      :     0.998417
      dz2     :     0.005350  d :     0.036273
      dxz     :     0.009111
      dyz     :     0.006499
      dx2y2   :     0.007334
      dxy     :     0.007979

 24 C s       :     3.112097  s :     3.112097
      pz      :     0.888326  p :     2.673033
      px      :     0.866058
      py      :     0.918649
      dz2     :     0.008034  d :     0.041971
      dxz     :     0.010531
      dyz     :     0.005627
      dx2y2   :     0.008895
      dxy     :     0.008885

 25 C s       :     3.194824  s :     3.194824
      pz      :     0.969688  p :     2.922124
      px      :     0.988061
      py      :     0.964376
      dz2     :     0.005734  d :     0.036533
      dxz     :     0.009006
      dyz     :     0.006418
      dx2y2   :     0.007608
      dxy     :     0.007766

 26 C s       :     3.202555  s :     3.202555
      pz      :     0.946278  p :     2.907302
      px      :     0.996520
      py      :     0.964504
      dz2     :     0.007444  d :     0.035050
      dxz     :     0.007866
      dyz     :     0.005183
      dx2y2   :     0.009031
      dxy     :     0.005527

 27 C s       :     3.148677  s :     3.148677
      pz      :     0.947953  p :     2.781778
      px      :     0.890345
      py      :     0.943480
      dz2     :     0.008263  d :     0.053437
      dxz     :     0.016518
      dyz     :     0.005406
      dx2y2   :     0.010942
      dxy     :     0.012307

 28 N s       :     3.698769  s :     3.698769
      pz      :     1.406063  p :     3.693300
      px      :     1.001499
      py      :     1.285738
      dz2     :     0.005626  d :     0.035709
      dxz     :     0.010576
      dyz     :     0.004748
      dx2y2   :     0.005838
      dxy     :     0.008921

 29 C s       :     3.075191  s :     3.075191
      pz      :     0.905076  p :     2.654567
      px      :     0.820208
      py      :     0.929283
      dz2     :     0.011325  d :     0.059850
      dxz     :     0.014720
      dyz     :     0.008280
      dx2y2   :     0.013425
      dxy     :     0.012100

 30 C s       :     3.252875  s :     3.252875
      pz      :     0.953363  p :     2.883243
      px      :     0.968304
      py      :     0.961577
      dz2     :     0.005412  d :     0.034523
      dxz     :     0.008614
      dyz     :     0.006177
      dx2y2   :     0.007064
      dxy     :     0.007256

 31 H s       :     0.674256  s :     0.674256

 32 H s       :     0.818408  s :     0.818408

 33 H s       :     0.876712  s :     0.876712

 34 H s       :     0.862236  s :     0.862236

 35 H s       :     0.859064  s :     0.859064

 36 H s       :     0.862355  s :     0.862355

 37 H s       :     0.838164  s :     0.838164

 38 H s       :     0.851723  s :     0.851723

 39 H s       :     0.831049  s :     0.831049

 40 H s       :     0.868593  s :     0.868593

 41 H s       :     0.865276  s :     0.865276

 42 H s       :     0.857635  s :     0.857635

 43 H s       :     0.863420  s :     0.863420

 44 H s       :     0.846729  s :     0.846729

 45 H s       :     0.823979  s :     0.823979



                     *******************************
                     * LOEWDIN POPULATION ANALYSIS *
                     *******************************

----------------------
LOEWDIN ATOMIC CHARGES
----------------------
   0 O :   -0.278203
   1 C :    0.147460
   2 N :   -0.232572
   3 C :   -0.055650
   4 C :   -0.018020
   5 C :   -0.106162
   6 C :   -0.159396
   7 C :    0.115347
   8 F :   -0.106949
   9 C :   -0.158413
  10 C :   -0.117221
  11 C :    0.043896
  12 N :   -0.121177
  13 C :   -0.054861
  14 C :   -0.140279
  15 C :   -0.090349
  16 C :   -0.079414
  17 C :    0.312171
  18 F :   -0.109592
  19 F :   -0.109126
  20 F :   -0.103774
  21 C :   -0.046863
  22 C :   -0.129333
  23 C :   -0.120873
  24 C :   -0.022694
  25 C :   -0.093922
  26 C :   -0.145556
  27 C :   -0.061295
  28 N :   -0.123942
  29 C :    0.013383
  30 C :   -0.074088
  31 H :    0.250393
  32 H :    0.150751
  33 H :    0.131369
  34 H :    0.140124
  35 H :    0.141723
  36 H :    0.136352
  37 H :    0.141184
  38 H :    0.142615
  39 H :    0.150911
  40 H :    0.131844
  41 H :    0.134274
  42 H :    0.138213
  43 H :    0.136927
  44 H :    0.137399
  45 H :    0.163385

-------------------------------
LOEWDIN REDUCED ORBITAL CHARGES
-------------------------------
  0 O s       :     3.589636  s :     3.589636
      pz      :     1.447101  p :     4.638533
      px      :     1.774167
      py      :     1.417264
      dz2     :     0.022073  d :     0.050035
      dxz     :     0.011316
      dyz     :     0.014015
      dx2y2   :     0.001299
      dxy     :     0.001333

  1 C s       :     2.862364  s :     2.862364
      pz      :     0.961268  p :     2.759866
      px      :     0.969316
      py      :     0.829283
      dz2     :     0.057345  d :     0.230309
      dxz     :     0.094073
      dyz     :     0.041868
      dx2y2   :     0.016811
      dxy     :     0.020212

  2 N s       :     3.162349  s :     3.162349
      pz      :     1.188062  p :     4.001676
      px      :     1.144778
      py      :     1.668836
      dz2     :     0.020923  d :     0.068546
      dxz     :     0.023305
      dyz     :     0.003281
      dx2y2   :     0.011763
      dxy     :     0.009274

  3 C s       :     2.880745  s :     2.880745
      pz      :     1.047431  p :     3.044813
      px      :     0.913601
      py      :     1.083780
      dz2     :     0.016922  d :     0.130092
      dxz     :     0.027371
      dyz     :     0.028460
      dx2y2   :     0.033679
      dxy     :     0.023660

  4 C s       :     2.879993  s :     2.879993
      pz      :     1.013013  p :     3.040282
      px      :     1.005293
      py      :     1.021976
      dz2     :     0.017400  d :     0.097745
      dxz     :     0.013730
      dyz     :     0.026035
      dx2y2   :     0.022139
      dxy     :     0.018441

  5 C s       :     2.916476  s :     2.916476
      pz      :     1.033488  p :     3.105438
      px      :     1.016861
      py      :     1.055089
      dz2     :     0.012104  d :     0.084248
      dxz     :     0.011794
      dyz     :     0.021710
      dx2y2   :     0.020008
      dxy     :     0.018632

  6 C s       :     2.920467  s :     2.920467
      pz      :     1.042620  p :     3.157110
      px      :     1.036717
      py      :     1.077773
      dz2     :     0.016958  d :     0.081819
      dxz     :     0.014059
      dyz     :     0.018330
      dx2y2   :     0.017684
      dxy     :     0.014788

  7 C s       :     2.865725  s :     2.865725
      pz      :     0.981534  p :     2.839690
      px      :     1.001064
      py      :     0.857091
      dz2     :     0.031255  d :     0.179238
      dxz     :     0.018991
      dyz     :     0.048920
      dx2y2   :     0.041277
      dxy     :     0.038795

  8 F s       :     3.734634  s :     3.734634
      pz      :     1.830232  p :     5.338037
      px      :     1.877581
      py      :     1.630223
      dz2     :     0.004943  d :     0.034278
      dxz     :     0.002561
      dyz     :     0.010417
      dx2y2   :     0.008378
      dxy     :     0.007979

  9 C s       :     2.920521  s :     2.920521
      pz      :     1.055672  p :     3.156186
      px      :     1.043813
      py      :     1.056700
      dz2     :     0.011596  d :     0.081706
      dxz     :     0.011213
      dyz     :     0.020718
      dx2y2   :     0.019471
      dxy     :     0.018707

 10 C s       :     2.916106  s :     2.916106
      pz      :     1.031024  p :     3.116483
      px      :     1.016261
      py      :     1.069198
      dz2     :     0.016734  d :     0.084632
      dxz     :     0.012430
      dyz     :     0.020869
      dx2y2   :     0.016931
      dxy     :     0.017667

 11 C s       :     2.879648  s :     2.879648
      pz      :     0.972647  p :     2.940198
      px      :     0.952439
      py      :     1.015112
      dz2     :     0.025706  d :     0.136258
      dxz     :     0.016796
      dyz     :     0.036856
      dx2y2   :     0.032768
      dxy     :     0.024133

 12 N s       :     3.241040  s :     3.241040
      pz      :     1.147611  p :     3.801631
      px      :     1.151911
      py      :     1.502110
      dz2     :     0.016757  d :     0.078506
      dxz     :     0.015535
      dyz     :     0.020102
      dx2y2   :     0.013967
      dxy     :     0.012145

 13 C s       :     2.915518  s :     2.915518
      pz      :     0.983523  p :     3.015297
      px      :     0.951678
      py      :     1.080096
      dz2     :     0.021671  d :     0.124046
      dxz     :     0.019798
      dyz     :     0.039982
      dx2y2   :     0.019342
      dxy     :     0.023252

 14 C s       :     2.924537  s :     2.924537
      pz      :     1.043467  p :     3.131066
      px      :     1.012522
      py      :     1.075077
      dz2     :     0.013824  d :     0.084676
      dxz     :     0.011543
      dyz     :     0.022378
      dx2y2   :     0.019708
      dxy     :     0.017223

 15 C s       :     2.921948  s :     2.921948
      pz      :     1.015373  p :     3.083722
      px      :     0.976800
      py      :     1.091549
      dz2     :     0.018544  d :     0.084679
      dxz     :     0.013452
      dyz     :     0.021430
      dx2y2   :     0.016973
      dxy     :     0.014280

 16 C s       :     2.898787  s :     2.898787
      pz      :     1.034289  p :     3.087642
      px      :     1.026010
      py      :     1.027344
      dz2     :     0.016081  d :     0.092984
      dxz     :     0.012085
      dyz     :     0.027947
      dx2y2   :     0.019773
      dxy     :     0.017099

 17 C s       :     2.852882  s :     2.852882
      pz      :     0.817510  p :     2.506426
      px      :     0.788531
      py      :     0.900385
      dz2     :     0.065353  d :     0.328521
      dxz     :     0.065819
      dyz     :     0.068628
      dx2y2   :     0.082052
      dxy     :     0.046667

 18 F s       :     3.757532  s :     3.757532
      pz      :     1.807925  p :     5.320925
      px      :     1.881331
      py      :     1.631668
      dz2     :     0.004078  d :     0.031135
      dxz     :     0.002374
      dyz     :     0.010943
      dx2y2   :     0.008326
      dxy     :     0.005413

 19 F s       :     3.761573  s :     3.761573
      pz      :     1.590899  p :     5.316110
      px      :     1.819588
      py      :     1.905623
      dz2     :     0.011747  d :     0.031443
      dxz     :     0.010679
      dyz     :     0.005636
      dx2y2   :     0.002000
      dxy     :     0.001381

 20 F s       :     3.761293  s :     3.761293
      pz      :     1.893369  p :     5.310865
      px      :     1.512799
      py      :     1.904697
      dz2     :     0.004517  d :     0.031616
      dxz     :     0.006504
      dyz     :     0.000598
      dx2y2   :     0.013595
      dxy     :     0.006403

 21 C s       :     2.879759  s :     2.879759
      pz      :     1.025912  p :     3.067614
      px      :     1.027963
      py      :     1.013739
      dz2     :     0.020610  d :     0.099490
      dxz     :     0.024315
      dyz     :     0.014730
      dx2y2   :     0.022481
      dxy     :     0.017353

 22 C s       :     2.917550  s :     2.917550
      pz      :     1.030663  p :     3.127181
      px      :     1.076697
      py      :     1.019821
      dz2     :     0.014435  d :     0.084602
      dxz     :     0.024312
      dyz     :     0.011315
      dx2y2   :     0.016300
      dxy     :     0.018240

 23 C s       :     2.915891  s :     2.915891
      pz      :     1.039335  p :     3.120007
      px      :     1.062028
      py      :     1.018644
      dz2     :     0.012279  d :     0.084975
      dxz     :     0.022487
      dyz     :     0.011549
      dx2y2   :     0.019748
      dxy     :     0.018912

 24 C s       :     2.856919  s :     2.856919
      pz      :     1.018538  p :     3.056149
      px      :     1.047810
      py      :     0.989801
      dz2     :     0.019826  d :     0.109626
      dxz     :     0.029101
      dyz     :     0.014832
      dx2y2   :     0.023169
      dxy     :     0.022699

 25 C s       :     2.919345  s :     2.919345
      pz      :     1.029897  p :     3.089847
      px      :     1.063759
      py      :     0.996191
      dz2     :     0.012688  d :     0.084730
      dxz     :     0.022576
      dyz     :     0.011344
      dx2y2   :     0.019531
      dxy     :     0.018592

 26 C s       :     2.926631  s :     2.926631
      pz      :     1.041405  p :     3.134904
      px      :     1.076785
      py      :     1.016714
      dz2     :     0.017448  d :     0.084021
      dxz     :     0.020110
      dyz     :     0.013970
      dx2y2   :     0.019083
      dxy     :     0.013409

 27 C s       :     2.917832  s :     2.917832
      pz      :     1.015980  p :     3.021085
      px      :     1.024305
      py      :     0.980800
      dz2     :     0.019188  d :     0.122378
      dxz     :     0.037791
      dyz     :     0.012933
      dx2y2   :     0.025592
      dxy     :     0.026874

 28 N s       :     3.241846  s :     3.241846
      pz      :     1.399447  p :     3.803393
      px      :     1.127716
      py      :     1.276230
      dz2     :     0.010181  d :     0.078703
      dxz     :     0.024828
      dyz     :     0.006486
      dx2y2   :     0.016504
      dxy     :     0.020704

 29 C s       :     2.845491  s :     2.845491
      pz      :     0.999989  p :     2.992776
      px      :     1.015921
      py      :     0.976866
      dz2     :     0.027067  d :     0.148350
      dxz     :     0.037452
      dyz     :     0.021139
      dx2y2   :     0.033805
      dxy     :     0.028887

 30 C s       :     2.924710  s :     2.924710
      pz      :     1.030083  p :     3.068625
      px      :     1.041906
      py      :     0.996637
      dz2     :     0.011907  d :     0.080752
      dxz     :     0.021988
      dyz     :     0.010783
      dx2y2   :     0.018538
      dxy     :     0.017536

 31 H s       :     0.749607  s :     0.749607

 32 H s       :     0.849249  s :     0.849249

 33 H s       :     0.868631  s :     0.868631

 34 H s       :     0.859876  s :     0.859876

 35 H s       :     0.858277  s :     0.858277

 36 H s       :     0.863648  s :     0.863648

 37 H s       :     0.858816  s :     0.858816

 38 H s       :     0.857385  s :     0.857385

 39 H s       :     0.849089  s :     0.849089

 40 H s       :     0.868156  s :     0.868156

 41 H s       :     0.865726  s :     0.865726

 42 H s       :     0.861787  s :     0.861787

 43 H s       :     0.863073  s :     0.863073

 44 H s       :     0.862601  s :     0.862601

 45 H s       :     0.836615  s :     0.836615



                      *****************************
                      * MAYER POPULATION ANALYSIS *
                      *****************************

  NA   - Mulliken gross atomic population
  ZA   - Total nuclear charge
  QA   - Mulliken gross atomic charge
  VA   - Mayer's total valence
  BVA  - Mayer's bonded valence
  FA   - Mayer's free valence

  ATOM       NA         ZA         QA         VA         BVA        FA
  0 O      8.4745     8.0000    -0.4745     2.0568     2.0568     0.0000
  1 C      5.4823     6.0000     0.5177     3.8964     3.8964     0.0000
  2 N      7.6393     7.0000    -0.6393     2.8944     2.8944     0.0000
  3 C      6.0702     6.0000    -0.0702     3.7839     3.7839    -0.0000
  4 C      5.8276     6.0000     0.1724     3.9328     3.9328     0.0000
  5 C      6.1231     6.0000    -0.1231     3.9191     3.9191    -0.0000
  6 C      6.2146     6.0000    -0.2146     3.8875     3.8875    -0.0000
  7 C      5.5895     6.0000     0.4105     3.8289     3.8289    -0.0000
  8 F      9.3211     9.0000    -0.3211     1.0415     1.0415     0.0000
  9 C      6.2109     6.0000    -0.2109     3.8889     3.8889    -0.0000
 10 C      6.1562     6.0000    -0.1562     3.9194     3.9194    -0.0000
 11 C      5.8181     6.0000     0.1819     3.8904     3.8904     0.0000
 12 N      7.3933     7.0000    -0.3933     2.9871     2.9871     0.0000
 13 C      5.9737     6.0000     0.0263     3.9074     3.9074    -0.0000
 14 C      6.1342     6.0000    -0.1342     3.9050     3.9050     0.0000
 15 C      6.1316     6.0000    -0.1316     3.9062     3.9062     0.0000
 16 C      6.0578     6.0000    -0.0578     3.9366     3.9366     0.0000
 17 C      5.0784     6.0000     0.9216     3.8625     3.8625    -0.0000
 18 F      9.3043     9.0000    -0.3043     1.0633     1.0633     0.0000
 19 F      9.2957     9.0000    -0.2957     1.0590     1.0590     0.0000
 20 F      9.2949     9.0000    -0.2949     1.0613     1.0613    -0.0000
 21 C      5.9242     6.0000     0.0758     3.8657     3.8657     0.0000
 22 C      6.1804     6.0000    -0.1804     3.8876     3.8876     0.0000
 23 C      6.2072     6.0000    -0.2072     3.8999     3.8999    -0.0000
 24 C      5.8271     6.0000     0.1729     3.9932     3.9932    -0.0000
 25 C      6.1535     6.0000    -0.1535     3.8888     3.8888    -0.0000
 26 C      6.1449     6.0000    -0.1449     3.9098     3.9098    -0.0000
 27 C      5.9839     6.0000     0.0161     3.9114     3.9114     0.0000
 28 N      7.4278     7.0000    -0.4278     2.9605     2.9605     0.0000
 29 C      5.7896     6.0000     0.2104     3.9241     3.9241     0.0000
 30 C      6.1706     6.0000    -0.1706     3.8439     3.8439     0.0000
 31 H      0.6743     1.0000     0.3257     0.8715     0.8715    -0.0000
 32 H      0.8184     1.0000     0.1816     0.9521     0.9521    -0.0000
 33 H      0.8767     1.0000     0.1233     0.9517     0.9517     0.0000
 34 H      0.8622     1.0000     0.1378     0.9380     0.9380     0.0000
 35 H      0.8591     1.0000     0.1409     0.9375     0.9375     0.0000
 36 H      0.8624     1.0000     0.1376     0.9382     0.9382    -0.0000
 37 H      0.8382     1.0000     0.1618     0.9284     0.9284    -0.0000
 38 H      0.8517     1.0000     0.1483     0.9358     0.9358     0.0000
 39 H      0.8310     1.0000     0.1690     0.9382     0.9382     0.0000
 40 H      0.8686     1.0000     0.1314     0.9454     0.9454    -0.0000
 41 H      0.8653     1.0000     0.1347     0.9382     0.9382    -0.0000
 42 H      0.8576     1.0000     0.1424     0.9343     0.9343    -0.0000
 43 H      0.8634     1.0000     0.1366     0.9380     0.9380    -0.0000
 44 H      0.8467     1.0000     0.1533     0.9310     0.9310     0.0000
 45 H      0.8240     1.0000     0.1760     0.9467     0.9467     0.0000

  Mayer bond orders larger than 0.100000
B(  0-O ,  1-C ) :   1.8080 B(  1-C ,  2-N ) :   1.0254 B(  1-C , 21-C ) :   0.9810 
B(  2-N ,  3-C ) :   0.8978 B(  2-N , 31-H ) :   0.8193 B(  3-C ,  4-C ) :   0.9526 
B(  3-C , 11-C ) :   0.9501 B(  3-C , 32-H ) :   0.8905 B(  4-C ,  5-C ) :   1.4178 
B(  4-C , 10-C ) :   1.4318 B(  5-C ,  6-C ) :   1.4258 B(  5-C , 33-H ) :   0.9191 
B(  6-C ,  7-C ) :   1.3876 B(  6-C , 34-H ) :   0.9222 B(  7-C ,  8-F ) :   0.9150 
B(  7-C ,  9-C ) :   1.3990 B(  9-C , 10-C ) :   1.4148 B(  9-C , 35-H ) :   0.9212 
B( 10-C , 36-H ) :   0.9225 B( 11-C , 12-N ) :   1.3992 B( 11-C , 16-C ) :   1.3479 
B( 12-N , 13-C ) :   1.4201 B( 13-C , 14-C ) :   1.4194 B( 13-C , 37-H ) :   0.9265 
B( 14-C , 15-C ) :   1.4328 B( 14-C , 38-H ) :   0.9231 B( 15-C , 16-C ) :   1.4100 
B( 15-C , 39-H ) :   0.9160 B( 16-C , 17-C ) :   0.9682 B( 17-C , 18-F ) :   0.9433 
B( 17-C , 19-F ) :   0.9524 B( 17-C , 20-F ) :   0.9421 B( 21-C , 22-C ) :   1.3011 
B( 21-C , 30-C ) :   1.4502 B( 22-C , 23-C ) :   1.5019 B( 22-C , 40-H ) :   0.9197 
B( 23-C , 24-C ) :   1.2869 B( 23-C , 30-C ) :   0.1021 B( 23-C , 41-H ) :   0.9237 
B( 24-C , 25-C ) :   1.3027 B( 24-C , 29-C ) :   1.2502 B( 25-C , 26-C ) :   1.5143 
B( 25-C , 42-H ) :   0.9242 B( 26-C , 27-C ) :   1.3206 B( 26-C , 43-H ) :   0.9247 
B( 27-C , 28-N ) :   1.5174 B( 27-C , 44-H ) :   0.9296 B( 28-N , 29-C ) :   1.2429 
B( 29-C , 30-C ) :   1.2693 B( 30-C , 45-H ) :   0.9042 

-------
TIMINGS
-------

Total SCF time: 0 days 0 hours 6 min 43 sec 

Total time                  ....     403.464 sec
Sum of individual times     ....     403.166 sec  ( 99.9%)

SCF preparation             ....       0.405 sec  (  0.1%)
Fock matrix formation       ....     400.883 sec  ( 99.4%)
  Startup                   ....       0.085 sec  (  0.0% of F)
  Split-RI-J                ....      48.159 sec  ( 12.0% of F)
  Chain of spheres X        ....     317.858 sec  ( 79.3% of F)
  XC integration            ....      34.078 sec  (  8.5% of F)
    XC Preparation          ....       0.000 sec  (  0.0% of XC)
    Basis function eval.    ....      12.845 sec  ( 37.7% of XC)
    Density eval.           ....       8.145 sec  ( 23.9% of XC)
    XC-Functional eval.     ....       1.644 sec  (  4.8% of XC)
    XC-Potential eval.      ....       9.742 sec  ( 28.6% of XC)
Diagonalization             ....       0.000 sec  (  0.0%)
Density matrix formation    ....       0.266 sec  (  0.1%)
Total Energy calculation    ....       0.067 sec  (  0.0%)
Population analysis         ....       0.070 sec  (  0.0%)
Orbital Transformation      ....       0.283 sec  (  0.1%)
Orbital Orthonormalization  ....       0.000 sec  (  0.0%)
DIIS solution               ....       0.817 sec  (  0.2%)
SOSCF solution              ....       0.375 sec  (  0.1%)
Finished LeanSCF after 403.5 sec

Maximum memory used throughout the entire LEANSCF-calculation: 73.8 MB

-------------------------   --------------------
FINAL SINGLE POINT ENERGY     -1523.481571173997
-------------------------   --------------------


------------------------------------------------------------------------------
                              ORCA PROPERTY CALCULATIONS
------------------------------------------------------------------------------

GBWName                                 ... /home/nmrbox/aojoawo/Documents/ERDOS/inputs/CHEMBL4247089.gbw
Number of atoms                         ...     46
Number of basis functions               ...    464
Max core memory                         ...   1024 MB

Electric properties:
Dipole moment                           ... YES
Quadrupole moment                       ...  NO
Static polarizability (Dipole/Dipole)   ...  NO
Static polarizability (Dipole/Quad.)    ...  NO
Static polarizability (Quad./Quad.)     ...  NO
Static polarizability (Velocity)        ...  NO

Atomic electric properties:
Dipole moment                           ...  NO
Quadrupole moment                       ...  NO
Static polarizability                   ...  NO

Choice of electric origin               ... Center of mass
Position of electric origin             ...    -0.538243    -0.478409     0.325219

General magnetic properties:
Magnetizability                         ...  NO

EPR properties:
g-Tensor (aka g-matrix)                 ...  NO
Zero-Field splitting spin-orbit         ...  NO
Zero-field splitting spin-spin          ...  NO
Hyperfine couplings                     ...  NO (   0 nuclei)
Quadrupole couplings                    ...  NO (   0 nuclei)
Contact density                         ...  NO (   0 nuclei)

NMR properties:
Chemical shifts                         ...  NO (   0 nuclei)
Spin-rotation constants                 ...  NO (   0 nuclei)
Spin-spin couplings                     ...  NO (   0 nuclei,    0 pairs)

Choice of magnetic origin               ... GIAO
Position of magnetic origin             ...     0.000000     0.000000     0.000000

Properties with geometric perturbations:
SCF Hessian                             ...  NO
IR spectrum                             ...  NO
VCD spectrum                            ...  NO
X-ray spectroscopy properties:
SCF XES/XAS/RIXS spectra                ...  NO


-------------
DIPOLE MOMENT
-------------

Method             : SCF
Type of density    : Electron Density
Multiplicity       :   1
Irrep              :   0
Energy             : -1523.4815711739965991 Eh
Relativity type    : 
Basis              : AO
                                X                 Y                 Z
Electronic contribution:    -17.337975538     -13.218074225       5.165179849
Nuclear contribution   :     17.357884793      13.471354307      -8.021461548
                        -----------------------------------------
Total Dipole Moment    :      0.019909255       0.253280083      -2.856281699
                        -----------------------------------------
Magnitude (a.u.)       :      2.867558599
Magnitude (Debye)      :      7.288754713



--------------------
Rotational spectrum 
--------------------
 
Rotational constants in cm-1:             0.005915             0.002793             0.002228 
Rotational constants in MHz :           177.312613            83.736360            66.786539 

Dipole components along the rotational axes: 
x,y,z [a.u.] :    -0.182167    -1.088380    -2.646722 
x,y,z [Debye]:    -0.463031    -2.766441    -6.727433 

 

Dipole moment calculation done in   0.0 sec 

Maximum memory used throughout the entire PROP-calculation: 36.2 MB

--------------------------------
SUGGESTED CITATIONS FOR THIS RUN
--------------------------------

Below you find a list of papers that are relevant to this ORCA run
We neither can nor want to force you to cite these papers, but we appreciate if you do
You receive ORCA, which is the product of decades of hard work by many enthusiastic individuals, for free
The only thing we kindly ask in return is that you cite our papers,
We deeply appreciate it, if you show your appreciation for ORCA by not just citing the generic ORCA reference.

Please note that relegating all ORCA citations to the supporting information does *not* help us.
SI sections are not indexed - citations you put there will not count into any citation statistics
But we need these citations in order to attract the funding resources that allow us to do what we are doing

Therefore, if you are a happy ORCA user, please consider citing a few of the papers listed below in the main body of your paper

In addition to the list printed below, the program has created the file /home/nmrbox/aojoawo/Documents/ERDOS/inputs/CHEMBL4247089.bibtex that contains the list in bibtex format
You can import this file easily into all common literature databanks and citation aid programs


List of essential papers. We consider these as the minimum necessary citations

  1. Neese,F.
     Software update: the ORCA program system, version 5.0
     WIRES Comput. Molec. Sci., 2022 12(1)e1606
     doi.org/10.1002/wcms.1606

List of papers to cite with high priority. The work reported in these papers was absolutely
necessary for this run to complete.
Our perspective: the developers of density functionals and basis sets usually get cited in chemistry papers
Good! But without the algorithms to do something with them, the functionals or basis sets would not do anything.
Hence, in our opinion, the algorithm design and method developments papers are equally worthy of getting cited

  1. Neese,F.
     An improvement of the resolution of the identity approximation for the formation of the Coulomb matrix
     J. Comp. Chem., 2003 24(14)1740-1747
     doi.org/10.1002/jcc.10318
  2. Neese,F.; Wennmohs,F.; Hansen,A.; Becker,U.
     Efficient, approximate and parallel Hartree-Fock and hybrid DFT calculations. A 'chain-of-spheres' algorithm for the Hartree-Fock exchange
     Chem. Phys., 2009 356(1-3)98-109
     doi.org/10.1016/j.chemphys.2008.10.036
  3. Helmich-Paris,B.; de Souza,B.; Neese,F.; Izsák,R.
     An improved chain of spheres for exchange algorithm
     J. Chem. Phys., 2021 155 104109
     doi.org/doi: 10.1063/5.0058766.
  4. Neese,F.
     The SHARK Integral Generation and Digestion System
     J. Comp. Chem., 2022  1-16
     doi.org/10.1002/jcc.26942

List of suggested additional citations. These are papers that are important in the 'surrounding' of 
of this run, or papers that preceded the highly important papers. If you like your results we are grateful for a citation.

  1. Izsak,R.; Neese,F.
     An overlap fitted chain of spheres exchange method
     J. Chem. Phys., 2011 135 144105
     doi.org/10.1063/1.3646921
  2. Izsak,R.; Hansen,A.; Neese,F.
     The resolution of identity and chain of spheres approximations for the LPNO-CCSD singles Fock term
     Molec. Phys., 2012 110 2413-2417
     doi.org/10.1080/00268976.2012.687466
  3. Neese,F.
     The ORCA program system
     WIRES Comput. Molec. Sci., 2012 2(1)73-78
     doi.org/10.1002/wcms.81
  4. Izsak,R.; Neese,F.; Klopper,W.
     Robust fitting techniques in the chain of spheres approximation to the Fock exchange: The role of the complementary space
     J. Chem. Phys., 2013 139 
     doi.org/10.1063/1.4819264
  5. Neese,F.
     Software update: the ORCA program system, version 4.0
     WIRES Comput. Molec. Sci., 2018 8(1)1-6
     doi.org/10.1002/wcms.1327
  6. Neese,F.; Wennmohs,F.; Becker,U.; Riplinger,C.
     The ORCA quantum chemistry program package
     J. Chem. Phys., 2020 152 Art. No. L224108
     doi.org/10.1063/5.0004608

List of optional additional citations

  1. Neese,F.
     Approximate second-order SCF convergence for spin unrestricted wavefunctions
     Chem. Phys. Lett., 2000 325(1-3)93-98
     doi.org/10.1016/s0009-2614(00)00662-x

Timings for individual modules:

Sum of individual times          ...      420.319 sec (=   7.005 min)
Startup calculation              ...       10.973 sec (=   0.183 min)   2.6 %
SCF iterations                   ...      409.178 sec (=   6.820 min)  97.3 %
Property calculations            ...        0.168 sec (=   0.003 min)   0.0 %
                             ****ORCA TERMINATED NORMALLY****
TOTAL RUN TIME: 0 days 0 hours 7 minutes 1 seconds 31 msec
