
                                 *****************
                                 * O   R   C   A *
                                 *****************

                                            #,                                       
                                            ###                                      
                                            ####                                     
                                            #####                                    
                                            ######                                   
                                           ########,                                 
                                     ,,################,,,,,                         
                               ,,#################################,,                 
                          ,,##########################################,,             
                       ,#########################################, ''#####,          
                    ,#############################################,,   '####,        
                  ,##################################################,,,,####,       
                ,###########''''           ''''###############################       
              ,#####''   ,,,,##########,,,,          '''####'''          '####       
            ,##' ,,,,###########################,,,                        '##       
           ' ,,###''''                  '''############,,,                           
         ,,##''                                '''############,,,,        ,,,,,,###''
      ,#''                                            '''#######################'''  
     '                                                          ''''####''''         
             ,#######,   #######,   ,#######,      ##                                
            ,#'     '#,  ##    ##  ,#'     '#,    #''#        ,####,   ,####,        
            ##       ##  ##   ,#'  ##            #'  '#       #'       #'  '#        
            ##       ##  #######   ##           ,######,      #####,   #    #        
            '#,     ,#'  ##    ##  '#,     ,#' ,#      #,     #,   #   #,  ,#        
             '#######'   ##     ##  '#######'  #'      '#     '####' # '####'        



                #########################################################
                #                        -***-                          #
                #          Department of theory and spectroscopy        #
                #                                                       #
                #                      Frank Neese                      #
                #                                                       #
                #     Directorship, Architecture, Infrastructure        #
                #                    SHARK, DRIVERS                     #
                #        Core code/Algorithms in most modules           #
                #                                                       #
                #        Max Planck Institute fuer Kohlenforschung      #
                #                Kaiser Wilhelm Platz 1                 #
                #                 D-45470 Muelheim/Ruhr                 #
                #                      Germany                          #
                #                                                       #
                #                  All rights reserved                  #
                #                        -***-                          #
                #########################################################


                         Program Version 6.0.0  -   RELEASE  -


 With contributions from (in alphabetic order):
   Daniel Aravena         : Magnetic Suceptibility
   Michael Atanasov       : Ab Initio Ligand Field Theory (pilot matlab implementation)
   Alexander A. Auer      : GIAO ZORA, VPT2 properties, NMR spectrum
   Ute Becker             : All parallelization in ORCA, NUMFREQ, NUMCALC
   Giovanni Bistoni       : ED, misc. LED, open-shell LED, HFLD
   Martin Brehm           : Molecular dynamics
   Dmytro Bykov           : pre 5.0 version of the SCF Hessian
   Marcos Casanova-Páez   : Triplet and SCS-CIS(D). UHF-(DLPNO)-IP/EA/STEOM-CCSD. UHF-CVS-IP/STEOM-CCSD
   Vijay G. Chilkuri      : MRCI spin determinant printing, contributions to CSF-ICE
   Pauline Colinet        : FMM embedding
   Dipayan Datta          : RHF DLPNO-CCSD density
   Achintya Kumar Dutta   : EOM-CC, STEOM-CC
   Nicolas Foglia         : Exact transition moments, OPA infrastructure, MCD improvements
   Dmitry Ganyushin       : Spin-Orbit,Spin-Spin,Magnetic field MRCI
   Miquel Garcia          : C-PCM and meta-GGA Hessian, CCSD/C-PCM, Gaussian charge scheme
   Tiago L. C. Gouveia    : GS-ROHF, GS-ROCIS
   Yang Guo               : DLPNO-NEVPT2, F12-NEVPT2, CIM, IAO-localization
   Andreas Hansen         : Spin unrestricted coupled pair/coupled cluster methods
   Ingolf Harden          : AUTO-CI MPn and infrastructure 
   Benjamin Helmich-Paris : MC-RPA, TRAH-(SCF,CASSCF), AVAS, COSX integrals, SCF dyn. polar.
   Lee Huntington         : MR-EOM, pCC
   Robert Izsak           : Overlap fitted RIJCOSX, COSX-SCS-MP3, EOM
   Riya Kayal             : Wick's Theorem for AUTO-CI, AUTO-CI UHF-CCSDT
   Emily Kempfer          : AUTO-CI, RHF CISDT and CCSDT
   Christian Kollmar      : KDIIS, OOCD, Brueckner-CCSD(T), CCSD density, CASPT2, CASPT2-K, improved NEVPT2
   Axel Koslowski         : Symmetry handling
   Simone Kossmann        : Meta GGA functionals, TD-DFT gradient, OOMP2, (MP2 Hessian; deprecated post 5.0)
   Lucas Lang             : DCDCAS
   Marvin Lechner         : AUTO-CI (C++ implementation), FIC-MRCC
   Spencer Leger          : CASSCF response
   Dagmar Lenk            : GEPOL surface, SMD, ORCA-2-JSON
   Dimitrios Liakos       : Extrapolation schemes; Compound Job, initial MDCI parallelization
   Dimitrios Manganas     : Further ROCIS development; embedding schemes. LFT, Crystal Embedding
   Dimitrios Pantazis     : SARC Basis sets
   Anastasios Papadopoulos: AUTO-CI, single reference methods and gradients
   Taras Petrenko         : pre 6.0 DFT Hessian and TD-DFT gradient, (ASA, deprecated), ECA, 1-Electron XAS/XES, NRVS
   Peter Pinski           : DLPNO-MP2, DLPNO-MP2 Gradient
   Christoph Reimann      : Effective Core Potentials
   Marius Retegan         : Local ZFS, SOC
   Christoph Riplinger    : Optimizer, TS searches, QM/MM, DLPNO-CCSD(T), (RO)-DLPNO pert. Triples
   Michael Roemelt        : Original ROCIS implementation
   Masaaki Saitow         : Open-shell DLPNO-CCSD energy and density
   Barbara Sandhoefer     : DKH picture change effects
   Kantharuban Sivalingam : CASSCF convergence/infrastructure, NEVPT2 and variants, FIC-MRCI
   Bernardo de Souza      : ESD, SOC TD-DFT
   Georgi Stoychev        : AutoAux, RI-MP2 NMR, DLPNO-MP2 response, X2C
   Van Anh Tran           : RI-MP2 g-tensors
   Willem Van den Heuvel  : Paramagnetic NMR
   Zikuan Wang            : NOTCH, Electric field optimization 
   Frank Wennmohs         : Technical directorship and infrastructure
   Hang Xu                : AUTO-CI-Response properties 


 We gratefully acknowledge several colleagues who have allowed us to
 interface, adapt or use parts of their codes:
   Stefan Grimme, W. Hujo, H. Kruse, P. Pracht,  : VdW corrections, initial TS optimization,
                  C. Bannwarth, S. Ehlert,         DFT functionals, gCP, sTDA/sTD-DF
                  L. Wittmann, M. Mueller
   Ed Valeev, F. Pavosevic, A. Kumar             : LibInt (2-el integral package), F12 methods
   Garnet Chan, S. Sharma, J. Yang, R. Olivares  : DMRG
   Ulf Ekstrom                                   : XCFun DFT Library
   Mihaly Kallay                                 : mrcc  (arbitrary order and MRCC methods)
   Frank Weinhold                                : gennbo (NPA and NBO analysis)
   Simon Mueller                                 : openCOSMO-RS
   Christopher J. Cramer and Donald G. Truhlar   : smd solvation model
   Lars Goerigk                                  : TD-DFT with DH, B97 family of functionals
   V. Asgeirsson, H. Jonsson                     : NEB implementation
   FAccTs GmbH                                   : IRC, NEB, NEB-TS, DLPNO-Multilevel, CI-OPT
                                                   MM, QMMM, 2- and 3-layer-ONIOM, Crystal-QMMM,
                                                   LR-CPCM, SF, NACMEs, symmetry and pop. for TD-DFT,
                                                   nearIR, NL-DFT gradient (VV10), updates on ESD,
                                                   ML-optimized integration grids, MBIS, APM,
                                                   GOAT, DOCKER, SOLVATOR, interface openCOSMO-RS
   S Lehtola, MJT Oliveira, MAL Marques          : LibXC Library
   Liviu Ungur et al                             : ANISO software


 Your calculation uses the libint2 library for the computation of 2-el integrals
 For citations please refer to: http://libint.valeyev.net

 Your ORCA version has been built with support for libXC version: 6.2.2
 For citations please refer to: https://libxc.gitlab.io

 This ORCA versions uses:
   CBLAS   interface :  Fast vector & matrix operations
   LAPACKE interface :  Fast linear algebra routines
   SCALAPACK package :  Parallel linear algebra routines
   Shared memory     :  Shared parallel matrices
   BLAS/LAPACK       :  OpenBLAS 0.3.27  USE64BITINT DYNAMIC_ARCH NO_AFFINITY SkylakeX SINGLE_THREADED
        Core in use  :  SkylakeX
   Copyright (c) 2011-2014, The OpenBLAS Project


Warning: RI is on but no J-basis has been assigned. Assigning Def2/J (nothing to worry about!)
================================================================================

----- Orbital basis set information -----
Your calculation utilizes the basis: 6-31G*
   H-He, Li-Ne : W. J. Hehre, R. Ditchfield and J.A. Pople, J. Chem. Phys. 56, 2257 (1972).
                 Note: He and Ne are unpublished basis sets taken from the Gaussian program.
                 Note: Li and B from J. D. Dill and J. A. Pople, J. Chem. Phys. 62, 2921 (1975).
   Na - Ar     : M. M. Francl, W. J. Pietro, W. J. Hehre, J. S. Binkley, M. S. Gordon, 
                 D. J. DeFrees and J. A. Pople, J. Chem. Phys. 77, 3654 (1982).
   K - Zn      : V. A. Rassolov, J. A. Pople, M. A. Ratner, and T. L. Windus, J. Chem. Phys. 109, 1223 (1998).

----- AuxJ basis set information -----
Your calculation utilizes the auxiliary basis: def2/J
   F. Weigend, Phys. Chem. Chem. Phys. 8, 1057 (2006).

================================================================================
                                        WARNINGS
                       Please study these warnings very carefully!
================================================================================


================================================================================
                                       INPUT FILE
================================================================================
NAME = /home/nmrbox/aojoawo/Documents/ERDOS/inputs/CHEMBL3577887.inp
|  1> ! B3LYP 6-31G* SP
|  2> 
|  3> * xyz 0 1
|  4> C -1.5796 -1.3848 -2.4110
|  5> C -1.3101 -1.7348 -0.9371
|  6> C -1.8826 -3.0749 -0.5058
|  7> C -1.2289 -3.7961 0.5097
|  8> C -1.7503 -5.0083 0.9701
|  9> C -2.9405 -5.5062 0.4362
| 10> F -3.4497 -6.6771 0.8901
| 11> C -3.6059 -4.7967 -0.5652
| 12> C -3.0861 -3.5872 -1.0332
| 13> N -1.7718 -0.6625 -0.0269
| 14> C -3.2141 -0.3837 0.1134
| 15> C -3.5145 1.0933 0.0115
| 16> C -4.4819 1.6719 0.8536
| 17> C -4.8341 3.0188 0.7111
| 18> C -4.2283 3.7981 -0.2790
| 19> C -3.2591 3.2419 -1.1307
| 20> C -2.6207 4.0716 -2.1761
| 21> O -1.7050 3.5937 -2.8993
| 22> O -3.0285 5.3867 -2.3763
| 23> C -2.9188 1.8835 -0.9847
| 24> C -0.8622 -0.1203 0.9628
| 25> O -1.2883 0.1639 2.1170
| 26> C 0.5611 0.1294 0.6512
| 27> C 0.9336 0.6823 -0.5822
| 28> C 2.2822 0.8841 -0.8880
| 29> C 3.2793 0.5442 0.0362
| 30> O 4.6220 0.7162 -0.3322
| 31> C 5.6947 0.9093 0.5521
| 32> C 6.9497 0.3869 0.2120
| 33> C 8.0470 0.5778 1.0577
| 34> C 7.9007 1.3016 2.2420
| 35> C 6.6577 1.8427 2.5816
| 36> C 5.5560 1.6509 1.7403
| 37> C 2.9091 -0.0142 1.2735
| 38> C 1.5587 -0.2058 1.5832
| 39> H -2.6397 -1.1160 -2.5957
| 40> H -0.9519 -0.5219 -2.7168
| 41> H -1.3082 -2.2441 -3.0608
| 42> H -0.2041 -1.8351 -0.8749
| 43> H -0.3141 -3.4155 0.9505
| 44> H -1.2320 -5.5578 1.7478
| 45> H -4.5317 -5.1791 -0.9733
| 46> H -3.6327 -3.0574 -1.8004
| 47> H -3.5631 -0.7917 1.0893
| 48> H -3.8064 -0.8992 -0.6719
| 49> H -4.9766 1.0782 1.6133
| 50> H -5.5899 3.4489 1.3520
| 51> H -4.5236 4.8342 -0.3786
| 52> H -2.5965 5.9615 -3.0907
| 53> H -2.2010 1.4310 -1.6594
| 54> H 0.1815 0.9706 -1.3038
| 55> H 2.5544 1.3053 -1.8478
| 56> H 7.0726 -0.1695 -0.7077
| 57> H 9.0135 0.1722 0.7885
| 58> H 8.7521 1.4503 2.8916
| 59> H 6.5469 2.4103 3.4942
| 60> H 4.6057 2.0957 2.0040
| 61> H 3.6603 -0.3245 1.9885
| 62> H 1.2936 -0.6425 2.5358
| 63> *
| 64> 
| 65>                          ****END OF INPUT****
================================================================================

                       ****************************
                       * Single Point Calculation *
                       ****************************

---------------------------------
CARTESIAN COORDINATES (ANGSTROEM)
---------------------------------
  C     -1.579600   -1.384800   -2.411000
  C     -1.310100   -1.734800   -0.937100
  C     -1.882600   -3.074900   -0.505800
  C     -1.228900   -3.796100    0.509700
  C     -1.750300   -5.008300    0.970100
  C     -2.940500   -5.506200    0.436200
  F     -3.449700   -6.677100    0.890100
  C     -3.605900   -4.796700   -0.565200
  C     -3.086100   -3.587200   -1.033200
  N     -1.771800   -0.662500   -0.026900
  C     -3.214100   -0.383700    0.113400
  C     -3.514500    1.093300    0.011500
  C     -4.481900    1.671900    0.853600
  C     -4.834100    3.018800    0.711100
  C     -4.228300    3.798100   -0.279000
  C     -3.259100    3.241900   -1.130700
  C     -2.620700    4.071600   -2.176100
  O     -1.705000    3.593700   -2.899300
  O     -3.028500    5.386700   -2.376300
  C     -2.918800    1.883500   -0.984700
  C     -0.862200   -0.120300    0.962800
  O     -1.288300    0.163900    2.117000
  C      0.561100    0.129400    0.651200
  C      0.933600    0.682300   -0.582200
  C      2.282200    0.884100   -0.888000
  C      3.279300    0.544200    0.036200
  O      4.622000    0.716200   -0.332200
  C      5.694700    0.909300    0.552100
  C      6.949700    0.386900    0.212000
  C      8.047000    0.577800    1.057700
  C      7.900700    1.301600    2.242000
  C      6.657700    1.842700    2.581600
  C      5.556000    1.650900    1.740300
  C      2.909100   -0.014200    1.273500
  C      1.558700   -0.205800    1.583200
  H     -2.639700   -1.116000   -2.595700
  H     -0.951900   -0.521900   -2.716800
  H     -1.308200   -2.244100   -3.060800
  H     -0.204100   -1.835100   -0.874900
  H     -0.314100   -3.415500    0.950500
  H     -1.232000   -5.557800    1.747800
  H     -4.531700   -5.179100   -0.973300
  H     -3.632700   -3.057400   -1.800400
  H     -3.563100   -0.791700    1.089300
  H     -3.806400   -0.899200   -0.671900
  H     -4.976600    1.078200    1.613300
  H     -5.589900    3.448900    1.352000
  H     -4.523600    4.834200   -0.378600
  H     -2.596500    5.961500   -3.090700
  H     -2.201000    1.431000   -1.659400
  H      0.181500    0.970600   -1.303800
  H      2.554400    1.305300   -1.847800
  H      7.072600   -0.169500   -0.707700
  H      9.013500    0.172200    0.788500
  H      8.752100    1.450300    2.891600
  H      6.546900    2.410300    3.494200
  H      4.605700    2.095700    2.004000
  H      3.660300   -0.324500    1.988500
  H      1.293600   -0.642500    2.535800

----------------------------
CARTESIAN COORDINATES (A.U.)
----------------------------
  NO LB      ZA    FRAG     MASS         X           Y           Z
   0 C     6.0000    0    12.011   -2.985011   -2.616893   -4.556130
   1 C     6.0000    0    12.011   -2.475730   -3.278297   -1.770862
   2 C     6.0000    0    12.011   -3.557598   -5.810719   -0.955823
   3 C     6.0000    0    12.011   -2.322284   -7.173589    0.963193
   4 C     6.0000    0    12.011   -3.307588   -9.464315    1.833223
   5 C     6.0000    0    12.011   -5.556740  -10.405210    0.824299
   6 F     9.0000    0    18.998   -6.518988  -12.617890    1.682045
   7 C     6.0000    0    12.011   -6.814163   -9.064449   -1.068073
   8 C     6.0000    0    12.011   -5.831884   -6.778826   -1.952465
   9 N     7.0000    0    14.007   -3.348217   -1.251944   -0.050834
  10 C     6.0000    0    12.011   -6.073769   -0.725088    0.214295
  11 C     6.0000    0    12.011   -6.641442    2.066038    0.021732
  12 C     6.0000    0    12.011   -8.469564    3.159433    1.613070
  13 C     6.0000    0    12.011   -9.135125    5.704705    1.343784
  14 C     6.0000    0    12.011   -7.990329    7.177369   -0.527234
  15 C     6.0000    0    12.011   -6.158806    6.126303   -2.136713
  16 C     6.0000    0    12.011   -4.952405    7.694209   -4.112233
  17 O     8.0000    0    15.999   -3.221983    6.791109   -5.478883
  18 O     8.0000    0    15.999   -5.723036   10.179388   -4.490556
  19 C     6.0000    0    12.011   -5.515733    3.559299   -1.860813
  20 C     6.0000    0    12.011   -1.629322   -0.227334    1.819428
  21 O     8.0000    0    15.999   -2.434534    0.309726    4.000550
  22 C     6.0000    0    12.011    1.060325    0.244531    1.230590
  23 C     6.0000    0    12.011    1.764248    1.289360   -1.100199
  24 C     6.0000    0    12.011    4.312733    1.670707   -1.678077
  25 C     6.0000    0    12.011    6.196979    1.028389    0.068408
  26 O     8.0000    0    15.999    8.734314    1.353422   -0.627767
  27 C     6.0000    0    12.011   10.761423    1.718328    1.043318
  28 C     6.0000    0    12.011   13.133030    0.731135    0.400622
  29 C     6.0000    0    12.011   15.206626    1.091884    1.998763
  30 C     6.0000    0    12.011   14.930159    2.459668    4.236766
  31 C     6.0000    0    12.011   12.581230    3.482198    4.878517
  32 C     6.0000    0    12.011   10.499318    3.119749    3.288690
  33 C     6.0000    0    12.011    5.497402   -0.026834    2.406566
  34 C     6.0000    0    12.011    2.945516   -0.388906    2.991814
  35 H     1.0000    0     1.008   -4.988310   -2.108934   -4.905162
  36 H     1.0000    0     1.008   -1.798830   -0.986248   -5.134008
  37 H     1.0000    0     1.008   -2.472140   -4.240734   -5.784074
  38 H     1.0000    0     1.008   -0.385693   -3.467836   -1.653321
  39 H     1.0000    0     1.008   -0.593563   -6.454360    1.796185
  40 H     1.0000    0     1.008   -2.328143  -10.502720    3.302863
  41 H     1.0000    0     1.008   -8.563672   -9.787081   -1.839270
  42 H     1.0000    0     1.008   -6.864808   -5.777649   -3.402263
  43 H     1.0000    0     1.008   -6.733283   -1.496096    2.058479
  44 H     1.0000    0     1.008   -7.193054   -1.699242   -1.269707
  45 H     1.0000    0     1.008   -9.404411    2.037503    3.048695
  46 H     1.0000    0     1.008  -10.563380    6.517476    2.554910
  47 H     1.0000    0     1.008   -8.548365    9.135314   -0.715450
  48 H     1.0000    0     1.008   -4.906674   11.265602   -5.840577
  49 H     1.0000    0     1.008   -4.159287    2.704198   -3.135812
  50 H     1.0000    0     1.008    0.342985    1.834168   -2.463825
  51 H     1.0000    0     1.008    4.827116    2.466660   -3.491836
  52 H     1.0000    0     1.008   13.365277   -0.320309   -1.337359
  53 H     1.0000    0     1.008   17.033047    0.325411    1.490049
  54 H     1.0000    0     1.008   16.539072    2.740670    5.464332
  55 H     1.0000    0     1.008   12.371848    4.554807    6.603081
  56 H     1.0000    0     1.008    8.703512    3.960299    3.787011
  57 H     1.0000    0     1.008    6.916965   -0.613216    3.757720
  58 H     1.0000    0     1.008    2.444550   -1.214149    4.791968

--------------------------------
INTERNAL COORDINATES (ANGSTROEM)
--------------------------------
 C      0   0   0     0.000000000000     0.00000000     0.00000000
 C      1   0   0     1.538671979338     0.00000000     0.00000000
 C      2   1   0     1.519751278993   113.98194753     0.00000000
 C      3   2   1     1.406660364125   118.81044813   150.05135748
 C      4   3   2     1.397588981067   120.60658013   177.60188775
 C      5   4   3     1.396255585486   120.08891478   359.08579688
 F      6   5   4     1.355107619342   120.02327120   180.45539065
 C      6   5   4     1.396047767807   119.95679358     0.43056306
 C      8   6   5     1.397177973631   120.19206242   359.84391468
 N      2   1   3     1.480357463588   111.68936566   234.17202636
 C     10   2   1     1.475683848255   120.00903787    67.49940575
 C     11  10   2     1.510679572246   111.87955070   227.54993042
 C     12  11  10     1.407044110893   119.89400595   219.49169590
 C     13  12  11     1.399460860474   120.52161448   184.23800103
 C     14  13  12     1.398070148455   119.96934969     0.35429395
 C     15  14  13     1.405026679462   120.49973391   359.60402364
 C     16  15  14     1.479465379791   120.26392039   180.04103195
 O     17  16  15     1.260917578591   120.40372795   176.57031719
 O     17  16  15     1.391355055333   120.34957135   356.27745944
 C     12  11  10     1.404168426507   120.91074287    44.56799241
 C     10   2   1     1.449434058521   119.67441616   232.10012662
 O     21  10   2     1.262738488366   119.77239766   219.19962930
 C     21  10   2     1.478251514459   121.56621069    40.04768654
 C     23  21  10     1.402045013543   120.52099865    41.19624125
 C     24  23  21     1.397483037464   120.38688751   181.71373901
 C     25  24  23     1.401387191322   120.48323551   359.62392108
 O     26  25  24     1.402906215682   118.55860993   177.60146836
 C     27  26  25     1.403552417974   125.65444042   155.08611206
 C     28  27  26     1.401283258303   118.70402865   146.63680493
 C     29  28  27     1.398470089062   120.33603206   178.96832846
 C     30  29  28     1.395656340221   120.11223243   359.42257956
 C     31  30  29     1.397557286840   120.01467162   359.68928252
 C     32  31  30     1.399398377875   120.06953964     0.49605953
 C     26  25  24     1.407042959543   119.27388766     0.54069366
 C     34  26  25     1.398643918229   120.20606985   358.94015130
 H      1   2   3     1.109134590571   112.46079212    72.46659729
 H      1   2   3     1.110007810783   109.97927052   192.65666759
 H      1   2   3     1.110988069243   109.97067924   310.95150427
 H      2   1   3     1.112279160103   104.37347552   115.43240660
 H      4   3   2     1.084444576730   120.36611145   357.91896569
 H      5   4   3     1.084159780660   119.83903265   179.51202841
 H      8   6   5     1.081610378094   119.92974516   180.45435264
 H      9   8   6     1.080766135665   118.29293668   180.74694243
 H     11  10   2     1.113842812070   108.68329167   104.89687194
 H     11  10   2     1.110520432050   111.49103793   347.92529484
 H     13  12  11     1.083675168120   120.54002618     3.34229672
 H     14  13  12     1.080264995267   119.92440344   178.98158406
 H     15  14  13     1.081954462997   118.73216433   179.32763388
 H     19  17  16     1.013600710339   120.83073603   180.03085269
 H     20  12  11     1.084072497576   119.17991656   357.28185836
 H     24  23  21     1.081423996405   120.48829051     2.54791341
 H     25  24  23     1.082921197502   119.51643665   179.54617255
 H     29  28  27     1.081911946510   119.98517614   358.81203960
 H     30  29  28     1.082174777936   119.94556394   180.04335684
 H     31  30  29     1.081190922085   119.90819068   180.22583805
 H     32  31  30     1.080409718579   119.99143355   180.53582198
 H     33  32  31     1.081875602831   119.25094270   181.46293121
 H     34  26  25     1.082502900689   120.79736854   177.39572897
 H     35  34  26     1.080940174108   119.16146175   179.57747861

---------------------------
INTERNAL COORDINATES (A.U.)
---------------------------
 C      0   0   0     0.000000000000     0.00000000     0.00000000
 C      1   0   0     2.907668650887     0.00000000     0.00000000
 C      2   1   0     2.871913708973   113.98194753     0.00000000
 C      3   2   1     2.658202851638   118.81044813   150.05135748
 C      4   3   2     2.641060422003   120.60658013   177.60188775
 C      5   4   3     2.638540669526   120.08891478   359.08579688
 F      6   5   4     2.560782282547   120.02327120   180.45539065
 C      6   5   4     2.638147951028   119.95679358     0.43056306
 C      8   6   5     2.640283730510   120.19206242   359.84391468
 N      2   1   3     2.797470186487   111.68936566   234.17202636
 C     10   2   1     2.788638333453   120.00903787    67.49940575
 C     11  10   2     2.854770667653   111.87955070   227.54993042
 C     12  11  10     2.658928027935   119.89400595   219.49169590
 C     13  12  11     2.644597761439   120.52161448   184.23800103
 C     14  13  12     2.641969696590   119.96934969     0.35429395
 C     15  14  13     2.655115635036   120.49973391   359.60402364
 C     16  15  14     2.795784392423   120.26392039   180.04103195
 O     17  16  15     2.382788900984   120.40372795   176.57031719
 O     17  16  15     2.629280009626   120.34957135   356.27745944
 C     12  11  10     2.653493771998   120.91074287    44.56799241
 C     10   2   1     2.739033419782   119.67441616   232.10012662
 O     21  10   2     2.386229921773   119.77239766   219.19962930
 C     21  10   2     2.793490519382   121.56621069    40.04768654
 C     23  21  10     2.649481103026   120.52099865    41.19624125
 C     24  23  21     2.640860217608   120.38688751   181.71373901
 C     25  24  23     2.648237999183   120.48323551   359.62392108
 O     26  25  24     2.651108539215   118.55860993   177.60146836
 C     27  26  25     2.652329684573   125.65444042   155.08611206
 C     28  27  26     2.648041594241   118.70402865   146.63680493
 C     29  28  27     2.642725474807   120.33603206   178.96832846
 C     30  29  28     2.637408260089   120.11223243   359.42257956
 C     31  30  29     2.641000528594   120.01467162   359.68928252
 C     32  31  30     2.644479686438   120.06953964     0.49605953
 C     26  25  24     2.658925852199   119.27388766     0.54069366
 C     34  26  25     2.643053964328   120.20606985   358.94015130
 H      1   2   3     2.095960621837   112.46079212    72.46659729
 H      1   2   3     2.097610768894   109.97927052   192.65666759
 H      1   2   3     2.099463188923   109.97067924   310.95150427
 H      2   1   3     2.101902997063   104.37347552   115.43240660
 H      4   3   2     2.049303257437   120.36611145   357.91896569
 H      5   4   3     2.048765070859   119.83903265   179.51202841
 H      8   6   5     2.043947398204   119.92974516   180.45435264
 H      9   8   6     2.042352011223   118.29293668   180.74694243
 H     11  10   2     2.104857871049   108.68329167   104.89687194
 H     11  10   2     2.098579482698   111.49103793   347.92529484
 H     13  12  11     2.047849285878   120.54002618     3.34229672
 H     14  13  12     2.041404993117   119.92440344   178.98158406
 H     15  14  13     2.044597624439   118.73216433   179.32763388
 H     19  17  16     1.915427751689   120.83073603   180.03085269
 H     20  12  11     2.048600129734   119.17991656   357.28185836
 H     24  23  21     2.043595187856   120.48829051     2.54791341
 H     25  24  23     2.046424487898   119.51643665   179.54617255
 H     29  28  27     2.044517279921   119.98517614   358.81203960
 H     30  29  28     2.045013959335   119.94556394   180.04335684
 H     31  30  29     2.043154741223   119.90819068   180.22583805
 H     32  31  30     2.041678480541   119.99143355   180.53582198
 H     33  32  31     2.044448600321   119.25094270   181.46293121
 H     34  26  25     2.045634021477   120.79736854   177.39572897
 H     35  34  26     2.042680896217   119.16146175   179.57747861

---------------------
BASIS SET INFORMATION
---------------------
There are 5 groups of distinct atoms

 Group   1 Type C   : 10s4p1d contracted to 3s2p1d pattern {631/31/1}
 Group   2 Type F   : 10s4p1d contracted to 3s2p1d pattern {631/31/1}
 Group   3 Type N   : 10s4p1d contracted to 3s2p1d pattern {631/31/1}
 Group   4 Type O   : 10s4p1d contracted to 3s2p1d pattern {631/31/1}
 Group   5 Type H   : 4s contracted to 2s pattern {31}

Atom   0C    basis set group =>   1
Atom   1C    basis set group =>   1
Atom   2C    basis set group =>   1
Atom   3C    basis set group =>   1
Atom   4C    basis set group =>   1
Atom   5C    basis set group =>   1
Atom   6F    basis set group =>   2
Atom   7C    basis set group =>   1
Atom   8C    basis set group =>   1
Atom   9N    basis set group =>   3
Atom  10C    basis set group =>   1
Atom  11C    basis set group =>   1
Atom  12C    basis set group =>   1
Atom  13C    basis set group =>   1
Atom  14C    basis set group =>   1
Atom  15C    basis set group =>   1
Atom  16C    basis set group =>   1
Atom  17O    basis set group =>   4
Atom  18O    basis set group =>   4
Atom  19C    basis set group =>   1
Atom  20C    basis set group =>   1
Atom  21O    basis set group =>   4
Atom  22C    basis set group =>   1
Atom  23C    basis set group =>   1
Atom  24C    basis set group =>   1
Atom  25C    basis set group =>   1
Atom  26O    basis set group =>   4
Atom  27C    basis set group =>   1
Atom  28C    basis set group =>   1
Atom  29C    basis set group =>   1
Atom  30C    basis set group =>   1
Atom  31C    basis set group =>   1
Atom  32C    basis set group =>   1
Atom  33C    basis set group =>   1
Atom  34C    basis set group =>   1
Atom  35H    basis set group =>   5
Atom  36H    basis set group =>   5
Atom  37H    basis set group =>   5
Atom  38H    basis set group =>   5
Atom  39H    basis set group =>   5
Atom  40H    basis set group =>   5
Atom  41H    basis set group =>   5
Atom  42H    basis set group =>   5
Atom  43H    basis set group =>   5
Atom  44H    basis set group =>   5
Atom  45H    basis set group =>   5
Atom  46H    basis set group =>   5
Atom  47H    basis set group =>   5
Atom  48H    basis set group =>   5
Atom  49H    basis set group =>   5
Atom  50H    basis set group =>   5
Atom  51H    basis set group =>   5
Atom  52H    basis set group =>   5
Atom  53H    basis set group =>   5
Atom  54H    basis set group =>   5
Atom  55H    basis set group =>   5
Atom  56H    basis set group =>   5
Atom  57H    basis set group =>   5
Atom  58H    basis set group =>   5
---------------------------------
AUXILIARY/J BASIS SET INFORMATION
---------------------------------
There are 5 groups of distinct atoms

 Group   1 Type C   : 12s5p4d2f1g contracted to 6s4p3d1f1g pattern {711111/2111/211/2/1}
 Group   2 Type F   : 12s5p4d2f1g contracted to 6s4p3d1f1g pattern {711111/2111/211/2/1}
 Group   3 Type N   : 12s5p4d2f1g contracted to 6s4p3d1f1g pattern {711111/2111/211/2/1}
 Group   4 Type O   : 12s5p4d2f1g contracted to 6s4p3d1f1g pattern {711111/2111/211/2/1}
 Group   5 Type H   : 5s2p1d contracted to 3s1p1d pattern {311/2/1}

Atom   0C    basis set group =>   1
Atom   1C    basis set group =>   1
Atom   2C    basis set group =>   1
Atom   3C    basis set group =>   1
Atom   4C    basis set group =>   1
Atom   5C    basis set group =>   1
Atom   6F    basis set group =>   2
Atom   7C    basis set group =>   1
Atom   8C    basis set group =>   1
Atom   9N    basis set group =>   3
Atom  10C    basis set group =>   1
Atom  11C    basis set group =>   1
Atom  12C    basis set group =>   1
Atom  13C    basis set group =>   1
Atom  14C    basis set group =>   1
Atom  15C    basis set group =>   1
Atom  16C    basis set group =>   1
Atom  17O    basis set group =>   4
Atom  18O    basis set group =>   4
Atom  19C    basis set group =>   1
Atom  20C    basis set group =>   1
Atom  21O    basis set group =>   4
Atom  22C    basis set group =>   1
Atom  23C    basis set group =>   1
Atom  24C    basis set group =>   1
Atom  25C    basis set group =>   1
Atom  26O    basis set group =>   4
Atom  27C    basis set group =>   1
Atom  28C    basis set group =>   1
Atom  29C    basis set group =>   1
Atom  30C    basis set group =>   1
Atom  31C    basis set group =>   1
Atom  32C    basis set group =>   1
Atom  33C    basis set group =>   1
Atom  34C    basis set group =>   1
Atom  35H    basis set group =>   5
Atom  36H    basis set group =>   5
Atom  37H    basis set group =>   5
Atom  38H    basis set group =>   5
Atom  39H    basis set group =>   5
Atom  40H    basis set group =>   5
Atom  41H    basis set group =>   5
Atom  42H    basis set group =>   5
Atom  43H    basis set group =>   5
Atom  44H    basis set group =>   5
Atom  45H    basis set group =>   5
Atom  46H    basis set group =>   5
Atom  47H    basis set group =>   5
Atom  48H    basis set group =>   5
Atom  49H    basis set group =>   5
Atom  50H    basis set group =>   5
Atom  51H    basis set group =>   5
Atom  52H    basis set group =>   5
Atom  53H    basis set group =>   5
Atom  54H    basis set group =>   5
Atom  55H    basis set group =>   5
Atom  56H    basis set group =>   5
Atom  57H    basis set group =>   5
Atom  58H    basis set group =>   5
------------------------------------------------------------------------------
                             ORCA STARTUP CALCULATIONS
                           -- RI-GTO INTEGRALS CHOSEN --
------------------------------------------------------------------------------
------------------------------------------------------------------------------
                   ___                                                        
                  /   \      - P O W E R E D   B Y -                         
                 /     \                                                     
                 |  |  |   _    _      __       _____    __    __             
                 |  |  |  | |  | |    /  \     |  _  \  |  |  /  |          
                  \  \/   | |  | |   /    \    | | | |  |  | /  /          
                 / \  \   | |__| |  /  /\  \   | |_| |  |  |/  /          
                |  |  |   |  __  | /  /__\  \  |    /   |      \           
                |  |  |   | |  | | |   __   |  |    \   |  |\   \          
                \     /   | |  | | |  |  |  |  | |\  \  |  | \   \       
                 \___/    |_|  |_| |__|  |__|  |_| \__\ |__|  \__/        
                                                                              
                      - O R C A' S   B I G   F R I E N D -                    
                                      &                                       
                       - I N T E G R A L  F E E D E R -                       
                                                                              
 v1 FN, 2020, v2 2021, v3 2022-2024                                           
------------------------------------------------------------------------------


----------------------
SHARK INTEGRAL PACKAGE
----------------------

Number of atoms                             ...     59
Number of basis functions                   ...    538
Number of shells                            ...    258
Maximum angular momentum                    ...      2
Integral batch strategy                     ... SHARK/LIBINT Hybrid
RI-J (if used) integral strategy            ... SPLIT-RIJ (Revised 2003 algorithm where possible)
Printlevel                                  ...      1
Contraction scheme used                     ... SEGMENTED contraction
Prescreening option                         ... SCHWARTZ
   Thresh                                   ... 1.000e-10
   Tcut                                     ... 1.000e-11
   Tpresel                                  ... 1.000e-11 
Coulomb Range Separation                    ... NOT USED
Exchange Range Separation                   ... NOT USED
Multipole approximations                    ... NOT USED
Finite Nucleus Model                        ... NOT USED
CABS basis                                  ... NOT available
Auxiliary Coulomb fitting basis             ... AVAILABLE
   # of basis functions in Aux-J            ...   1979
   # of shells in Aux-J                     ...    645
   Maximum angular momentum in Aux-J        ...      4
Auxiliary J/K fitting basis                 ... NOT available
Auxiliary Correlation fitting basis         ... NOT available
Auxiliary 'external' fitting basis          ... NOT available

Checking pre-screening integrals            ... done (  0.0 sec) Dimension = 258
Check shell pair data                       ... done (  0.0 sec)
Shell pair information
Shell pair cut-off parameter TPreSel        ...   1.0e-11
Total number of shell pairs                 ...     33411
Shell pairs after pre-screening             ...     17139
Total number of primitive shell pairs       ...    193938
Primitive shell pairs kept                  ...     51707
          la=0 lb=0:   5708 shell pairs
          la=1 lb=0:   6043 shell pairs
          la=1 lb=1:   1582 shell pairs
          la=2 lb=0:   2301 shell pairs
          la=2 lb=1:   1271 shell pairs
          la=2 lb=2:    234 shell pairs

Calculating one electron integrals          ... done (  0.2 sec)
Calculating RI/J V-Matrix + Cholesky decomp.... done (  0.5 sec)
Calculating Nuclear repulsion               ... done (  0.0 sec) ENN=   3371.559304479663 Eh

Diagonalization of the overlap matrix:
Smallest eigenvalue                        ... 4.279e-04
Time for diagonalization                   ...    0.037 sec
Threshold for overlap eigenvalues          ... 1.000e-07
Number of eigenvalues below threshold      ... 0
Time for construction of square roots      ...    0.122 sec
Total time needed                          ...    0.211 sec

-------------------
DFT GRID GENERATION
-------------------

General Integration Accuracy     IntAcc      ... 4.388
Radial Grid Type                 RadialGrid  ... OptM3 with GC (2021)
Angular Grid (max. ang.)         AngularGrid ... 4 (Lebedev-302)
Angular grid pruning method      GridPruning ... 4 (adaptive)
Weight generation scheme         WeightScheme... mBecke (2022)
Basis function cutoff            BFCut       ... 1.0000e-10
Integration weight cutoff        WCut        ... 1.0000e-14
Partially contracted basis set               ... off
Rotationally invariant grid construction     ... off
Angular grids for H and He will be reduced by one unit

Total number of grid points                  ...   285127
Total number of batches                      ...     4487
Average number of points per batch           ...       63
Average number of grid points per atom       ...     4833

--------------------
COSX GRID GENERATION
--------------------

GRIDX 1
-------
General Integration Accuracy     IntAcc      ... 3.816
Radial Grid Type                 RadialGrid  ... OptM3 with GC (2021)
Angular Grid (max. ang.)         AngularGrid ... 1 (Lebedev-50)
Angular grid pruning method      GridPruning ... 4 (adaptive)
Weight generation scheme         WeightScheme... mBecke (2022)
Basis function cutoff            BFCut       ... 1.0000e-10
Integration weight cutoff        WCut        ... 1.0000e-14
Partially contracted basis set               ... on
Rotationally invariant grid construction     ... off
Angular grids for H and He will be reduced by one unit

Total number of grid points                  ...    36131
Total number of batches                      ...      311
Average number of points per batch           ...      116
Average number of grid points per atom       ...      612
UseSFitting                                  ... on

GRIDX 2
-------
General Integration Accuracy     IntAcc      ... 4.020
Radial Grid Type                 RadialGrid  ... OptM3 with GC (2021)
Angular Grid (max. ang.)         AngularGrid ... 2 (Lebedev-110)
Angular grid pruning method      GridPruning ... 4 (adaptive)
Weight generation scheme         WeightScheme... mBecke (2022)
Basis function cutoff            BFCut       ... 1.0000e-10
Integration weight cutoff        WCut        ... 1.0000e-14
Partially contracted basis set               ... on
Rotationally invariant grid construction     ... off
Angular grids for H and He will be reduced by one unit

Total number of grid points                  ...    78650
Total number of batches                      ...      648
Average number of points per batch           ...      121
Average number of grid points per atom       ...     1333
UseSFitting                                  ... on

GRIDX 3
-------
General Integration Accuracy     IntAcc      ... 4.338
Radial Grid Type                 RadialGrid  ... OptM3 with GC (2021)
Angular Grid (max. ang.)         AngularGrid ... 3 (Lebedev-194)
Angular grid pruning method      GridPruning ... 4 (adaptive)
Weight generation scheme         WeightScheme... mBecke (2022)
Basis function cutoff            BFCut       ... 1.0000e-10
Integration weight cutoff        WCut        ... 1.0000e-14
Partially contracted basis set               ... on
Rotationally invariant grid construction     ... off
Angular grids for H and He will be reduced by one unit

Total number of grid points                  ...   172024
Total number of batches                      ...     1371
Average number of points per batch           ...      125
Average number of grid points per atom       ...     2916
UseSFitting                                  ... on
Initializing property integral containers    ... done (  0.1 sec)

SHARK setup successfully completed in  11.7 seconds

Maximum memory used throughout the entire STARTUP-calculation: 121.7 MB
-------------------------------------------------------------------------------
                                 ORCA GUESS
                   Start orbitals & Density for SCF / CASSCF
-------------------------------------------------------------------------------

------------
SCF SETTINGS
------------
Hamiltonian:
 Density Functional     Method          .... DFT(GTOs)
 Exchange Functional    Exchange        .... B88
   X-Alpha parameter    XAlpha          ....  0.666667
   Becke's b parameter  XBeta           ....  0.004200
 Correlation Functional Correlation     .... LYP
 LDA part of GGA corr.  LDAOpt          .... VWN-5
 Gradients option       PostSCFGGA      .... off
 Hybrid DFT is turned on
   Fraction HF Exchange ScalHFX         ....  0.200000
   Scaling of DF-GGA-X  ScalDFX         ....  0.720000
   Scaling of DF-GGA-C  ScalDFC         ....  0.810000
   Scaling of DF-LDA-C  ScalLDAC        ....  1.000000
   Perturbative correction              ....  0.000000
   NL short-range parameter             ....  4.800000
 RI-approximation to the Coulomb term is turned on
   Number of AuxJ basis functions       .... 1979
   RIJ-COSX (HFX calculated with COS-X)).... on


General Settings:
 Integral files         IntName         .... /home/nmrbox/aojoawo/Documents/ERDOS/inputs/CHEMBL3577887
 Hartree-Fock type      HFTyp           .... RHF
 Total Charge           Charge          ....    0
 Multiplicity           Mult            ....    1
 Number of Electrons    NEL             ....  246
 Basis Dimension        Dim             ....  538
 Nuclear Repulsion      ENuc            ....   3371.5593044797 Eh

Convergence Acceleration:
 AO-DIIS                CNVDIIS         .... on
   Start iteration      DIISMaxIt       ....    12
   Startup error        DIISStart       ....  0.200000
   # of expansion vecs  DIISMaxEq       ....     5
   Bias factor          DIISBfac        ....   1.050
   Max. coefficient     DIISMaxC        ....  10.000
 MO-DIIS                CNVKDIIS        .... off
 Trust-Rad. Augm. Hess. CNVTRAH         .... auto
   Auto Start mean grad. ratio tolernc. ....  1.125000
   Auto Start start iteration           ....    50
   Auto Start num. interpolation iter.  ....    10
   Max. Number of Micro iterations      ....    24
   Max. Number of Macro iterations      .... Maxiter - #DIIS iter
   Number of Davidson start vectors     ....     2
   Converg. threshold    (grad. norm)   ....   5.000e-05
   Grad. Scal. Fac. for Micro threshold ....   0.100
   Minimum threshold for Micro iter.    ....   1.000e-02
   NR start threshold (gradient norm)   ....   1.000e-04
   Initial trust radius                 ....   0.400
   Minimum AH scaling param. (alpha)    ....   1.000
   Maximum AH scaling param. (alpha)    .... 1000.000
   Quad. conv. algorithm                .... NR
   White noise on init. David. guess    .... on
   Maximum white noise                  ....   0.010
   Pseudo random numbers                .... off
   Inactive MOs                         .... canonical
   Orbital update algorithm             .... Taylor
   Preconditioner                       .... Diag
   Full preconditioner red. dimension   ....   250
 SOSCF                  CNVSOSCF        .... on
   Start iteration      SOSCFMaxIt      ....   150
   Startup grad/error   SOSCFStart      ....  0.003300
   Hessian update       SOSCFHessUp     .... L-BFGS
 Level Shifting         CNVShift        .... on
   Level shift para.    LevelShift      ....    0.2500
   Turn off err/grad.   ShiftErr        ....    0.0010
 Zerner damping         CNVZerner       .... off
 Static damping         CNVDamp         .... on
   Fraction old density DampFac         ....    0.7000
   Max. Damping (<1)    DampMax         ....    0.9800
   Min. Damping (>=0)   DampMin         ....    0.0000
   Turn off err/grad.   DampErr         ....    0.1000

SCF Procedure:
 Maximum # iterations   MaxIter         ....   125
 SCF integral mode      SCFMode         .... Direct
   Integral package                     .... SHARK and LIBINT hybrid scheme
 Reset frequency        DirectResetFreq ....    20
 Integral Threshold     Thresh          ....  1.000e-10 Eh
 Primitive CutOff       TCut            ....  1.000e-11 Eh

Convergence Tolerance:
 Convergence Check Mode ConvCheckMode   .... Total+1el-Energy
 Convergence forced     ConvForced      .... 0
 Energy Change          TolE            ....  1.000e-06 Eh
 1-El. energy change                    ....  1.000e-03 Eh
 Orbital Gradient       TolG            ....  5.000e-05
 Orbital Rotation angle TolX            ....  5.000e-05
 DIIS Error             TolErr          ....  1.000e-06

------------------------------
INITIAL GUESS: MODEL POTENTIAL
------------------------------
Loading Hartree-Fock densities                     ... done
Calculating cut-offs                               ... done
Initializing the effective Hamiltonian             ... done
Setting up the integral package (SHARK)            ... done
Starting the Coulomb interaction                   ... done (   2.4 sec)
Making the grid                                    ... done (   1.3 sec)
Mapping shells                                     ... done
Starting the XC term evaluation                    ... done (   0.9 sec)
  promolecular density results
     # of electrons  =    245.989172031
     EX              =   -205.546641141
     EC              =     -8.413847648
     EX+EC           =   -213.960488789
Transforming the Hamiltonian                       ... done (   0.0 sec)
Diagonalizing the Hamiltonian                      ... done (   0.0 sec)
Back transforming the eigenvectors                 ... done (   0.0 sec)
Now organizing SCF variables                       ... done
                      ------------------
                      INITIAL GUESS DONE (   4.8 sec)
                      ------------------
             **** ENERGY FILE WAS UPDATED (/home/nmrbox/aojoawo/Documents/ERDOS/inputs/CHEMBL3577887.en.tmp) ****
Finished Guess after   5.1 sec
Maximum memory used throughout the entire GUESS-calculation: 65.4 MB

-------------------------------------------------------------------------------------------
                                      ORCA LEAN-SCF
                              memory conserving SCF solver
-------------------------------------------------------------------------------------------

----------------------------------------D-I-I-S--------------------------------------------
Iteration    Energy (Eh)           Delta-E    RMSDP     MaxDP     DIISErr   Damp  Time(sec)
-------------------------------------------------------------------------------------------
               ***  Starting incremental Fock matrix formation  ***
    1    -1573.2736562681980104     0.00e+00  1.87e-03  1.06e-01  2.72e-01  0.700  46.5
    2    -1573.6437990249455652    -3.70e-01  1.25e-03  5.93e-02  9.91e-02  0.700  20.6
                               ***Turning on AO-DIIS***
    3    -1573.7884335255416772    -1.45e-01  5.30e-04  1.54e-02  3.48e-02  0.700  19.8
    4    -1573.8772762256771784    -8.88e-02  8.71e-04  2.20e-02  1.71e-02  0.000  18.0
    5    -1574.0714659776035660    -1.94e-01  2.03e-04  7.14e-03  7.74e-03  0.000  19.3
                              *** Initializing SOSCF ***
---------------------------------------S-O-S-C-F--------------------------------------
Iteration    Energy (Eh)           Delta-E    RMSDP     MaxDP     MaxGrad    Time(sec)
--------------------------------------------------------------------------------------
    6    -1574.0728513746539647    -1.39e-03  6.29e-05  2.26e-03  2.29e-03    16.3
               *** Restarting incremental Fock matrix formation ***
    7    -1574.0729429445495953    -9.16e-05  5.20e-05  3.62e-03  4.46e-04    46.0
    8    -1574.0728989418016681     4.40e-05  3.16e-05  2.87e-03  9.08e-04    25.3
    9    -1574.0729590290461601    -6.01e-05  7.34e-06  5.38e-04  8.47e-05    26.2
   10    -1574.0729580830352461     9.46e-07  4.61e-06  3.38e-04  1.17e-04    21.6
                 **** Energy Check signals convergence ****

               *****************************************************
               *                     SUCCESS                       *
               *           SCF CONVERGED AFTER  10 CYCLES          *
               *****************************************************

Recomputing exchange energy using gridx3       ... done (   82.929 sec)
Old exchange energy                            :    -41.682241763 Eh
New exchange energy                            :    -41.682212503 Eh
Exchange energy change after final integration :      0.000029260 Eh
Total energy after final integration           :  -1574.072928823 Eh
             **** ENERGY FILE WAS UPDATED (/home/nmrbox/aojoawo/Documents/ERDOS/inputs/CHEMBL3577887.en.tmp) ****

----------------
TOTAL SCF ENERGY
----------------

Total Energy       :      -1574.07292882319416 Eh          -42832.70197 eV

Components:
Nuclear Repulsion  :       3371.55930447966284 Eh           91744.79289 eV
Electronic Energy  :      -4945.63226256269809 Eh         -134577.49565 eV
One Electron Energy:      -8850.25028711396408 Eh         -240827.55375 eV
Two Electron Energy:       3904.61802455126599 Eh          106250.05810 eV

Virial components:
Potential Energy   :      -3138.04023859704057 Eh          -85390.41606 eV
Kinetic Energy     :       1563.96730977384641 Eh           42557.71409 eV
Virial Ratio       :          2.00646152831085

DFT components:
N(Alpha)           :      123.000233522415 electrons
N(Beta)            :      123.000233522415 electrons
N(Total)           :      246.000467044830 electrons
E(X)               :     -165.618436085687 Eh       
E(C)               :       -9.905454942402 Eh       
E(XC)              :     -175.523891028089 Eh       

---------------
SCF CONVERGENCE
---------------

  Last Energy change         ...   -9.4601e-07  Tolerance :   1.0000e-06
  Last MAX-Density change    ...    3.3774e-04  Tolerance :   1.0000e-05
  Last RMS-Density change    ...    4.6120e-06  Tolerance :   1.0000e-06
  Last DIIS Error            ...    2.2865e-03  Tolerance :   1.0000e-06
  Last Orbital Gradient      ...    1.1720e-04  Tolerance :   5.0000e-05
  Last Orbital Rotation      ...    1.7732e-04  Tolerance :   5.0000e-05


----------------
ORBITAL ENERGIES
----------------

  NO   OCC          E(Eh)            E(eV) 
   0   2.0000     -24.698906      -672.0914 
   1   2.0000     -19.187280      -522.1124 
   2   2.0000     -19.181526      -521.9558 
   3   2.0000     -19.121509      -520.3227 
   4   2.0000     -19.107908      -519.9526 
   5   2.0000     -14.351624      -390.5275 
   6   2.0000     -10.318977      -280.7936 
   7   2.0000     -10.283720      -279.8342 
   8   2.0000     -10.269803      -279.4555 
   9   2.0000     -10.259975      -279.1881 
  10   2.0000     -10.253265      -279.0055 
  11   2.0000     -10.231011      -278.3999 
  12   2.0000     -10.222319      -278.1635 
  13   2.0000     -10.206140      -277.7232 
  14   2.0000     -10.198541      -277.5164 
  15   2.0000     -10.196336      -277.4564 
  16   2.0000     -10.195864      -277.4436 
  17   2.0000     -10.194922      -277.4179 
  18   2.0000     -10.194830      -277.4154 
  19   2.0000     -10.194741      -277.4130 
  20   2.0000     -10.193580      -277.3814 
  21   2.0000     -10.192270      -277.3458 
  22   2.0000     -10.191970      -277.3376 
  23   2.0000     -10.191699      -277.3302 
  24   2.0000     -10.191631      -277.3284 
  25   2.0000     -10.191283      -277.3189 
  26   2.0000     -10.190731      -277.3039 
  27   2.0000     -10.190156      -277.2882 
  28   2.0000     -10.188148      -277.2336 
  29   2.0000     -10.187896      -277.2268 
  30   2.0000     -10.187824      -277.2248 
  31   2.0000     -10.186678      -277.1936 
  32   2.0000     -10.186340      -277.1844 
  33   2.0000     -10.181457      -277.0515 
  34   2.0000     -10.180293      -277.0199 
  35   2.0000      -1.212241       -32.9867 
  36   2.0000      -1.066369       -29.0174 
  37   2.0000      -1.064758       -28.9735 
  38   2.0000      -1.006858       -27.3980 
  39   2.0000      -0.979748       -26.6603 
  40   2.0000      -0.920532       -25.0489 
  41   2.0000      -0.863670       -23.5017 
  42   2.0000      -0.862893       -23.4805 
  43   2.0000      -0.856704       -23.3121 
  44   2.0000      -0.848329       -23.0842 
  45   2.0000      -0.790906       -21.5217 
  46   2.0000      -0.775009       -21.0891 
  47   2.0000      -0.766147       -20.8479 
  48   2.0000      -0.756872       -20.5955 
  49   2.0000      -0.755733       -20.5645 
  50   2.0000      -0.753348       -20.4996 
  51   2.0000      -0.747510       -20.3408 
  52   2.0000      -0.733149       -19.9500 
  53   2.0000      -0.725601       -19.7446 
  54   2.0000      -0.690763       -18.7966 
  55   2.0000      -0.658099       -17.9078 
  56   2.0000      -0.648739       -17.6531 
  57   2.0000      -0.636668       -17.3246 
  58   2.0000      -0.623137       -16.9564 
  59   2.0000      -0.620085       -16.8734 
  60   2.0000      -0.609517       -16.5858 
  61   2.0000      -0.600191       -16.3320 
  62   2.0000      -0.592118       -16.1123 
  63   2.0000      -0.589578       -16.0432 
  64   2.0000      -0.584353       -15.9011 
  65   2.0000      -0.553657       -15.0658 
  66   2.0000      -0.547340       -14.8939 
  67   2.0000      -0.540941       -14.7197 
  68   2.0000      -0.526082       -14.3154 
  69   2.0000      -0.514133       -13.9903 
  70   2.0000      -0.497986       -13.5509 
  71   2.0000      -0.493886       -13.4393 
  72   2.0000      -0.487692       -13.2708 
  73   2.0000      -0.482693       -13.1347 
  74   2.0000      -0.477111       -12.9829 
  75   2.0000      -0.471302       -12.8248 
  76   2.0000      -0.463369       -12.6089 
  77   2.0000      -0.456534       -12.4229 
  78   2.0000      -0.454587       -12.3699 
  79   2.0000      -0.454340       -12.3632 
  80   2.0000      -0.450726       -12.2649 
  81   2.0000      -0.447035       -12.1644 
  82   2.0000      -0.444133       -12.0855 
  83   2.0000      -0.435327       -11.8459 
  84   2.0000      -0.431505       -11.7418 
  85   2.0000      -0.429005       -11.6738 
  86   2.0000      -0.427116       -11.6224 
  87   2.0000      -0.425561       -11.5801 
  88   2.0000      -0.424661       -11.5556 
  89   2.0000      -0.423041       -11.5115 
  90   2.0000      -0.408355       -11.1119 
  91   2.0000      -0.404267       -11.0007 
  92   2.0000      -0.402146       -10.9430 
  93   2.0000      -0.398266       -10.8374 
  94   2.0000      -0.396652       -10.7935 
  95   2.0000      -0.388494       -10.5715 
  96   2.0000      -0.384980       -10.4758 
  97   2.0000      -0.375027       -10.2050 
  98   2.0000      -0.367078        -9.9887 
  99   2.0000      -0.364288        -9.9128 
 100   2.0000      -0.362981        -9.8772 
 101   2.0000      -0.361098        -9.8260 
 102   2.0000      -0.358054        -9.7431 
 103   2.0000      -0.356452        -9.6995 
 104   2.0000      -0.355243        -9.6666 
 105   2.0000      -0.347483        -9.4555 
 106   2.0000      -0.346683        -9.4337 
 107   2.0000      -0.341689        -9.2978 
 108   2.0000      -0.338017        -9.1979 
 109   2.0000      -0.333622        -9.0783 
 110   2.0000      -0.325321        -8.8524 
 111   2.0000      -0.302429        -8.2295 
 112   2.0000      -0.261214        -7.1080 
 113   2.0000      -0.260005        -7.0751 
 114   2.0000      -0.259800        -7.0695 
 115   2.0000      -0.259041        -7.0489 
 116   2.0000      -0.254287        -6.9195 
 117   2.0000      -0.252309        -6.8657 
 118   2.0000      -0.250412        -6.8141 
 119   2.0000      -0.248423        -6.7599 
 120   2.0000      -0.238191        -6.4815 
 121   2.0000      -0.222881        -6.0649 
 122   2.0000      -0.217108        -5.9078 
 123   0.0000      -0.049528        -1.3477 
 124   0.0000      -0.035499        -0.9660 
 125   0.0000      -0.014098        -0.3836 
 126   0.0000      -0.012659        -0.3445 
 127   0.0000      -0.006748        -0.1836 
 128   0.0000      -0.004682        -0.1274 
 129   0.0000      -0.002071        -0.0564 
 130   0.0000       0.005112         0.1391 
 131   0.0000       0.043698         1.1891 
 132   0.0000       0.052348         1.4245 
 133   0.0000       0.054981         1.4961 
*Only the first 10 virtual orbitals were printed.

                    ********************************
                    * MULLIKEN POPULATION ANALYSIS *
                    ********************************

-----------------------
MULLIKEN ATOMIC CHARGES
-----------------------
   0 C :   -0.457349
   1 C :   -0.086345
   2 C :    0.166981
   3 C :   -0.160187
   4 C :   -0.207483
   5 C :    0.412175
   6 F :   -0.318071
   7 C :   -0.212280
   8 C :   -0.164649
   9 N :   -0.418171
  10 C :   -0.212763
  11 C :    0.152052
  12 C :   -0.156466
  13 C :   -0.126982
  14 C :   -0.161150
  15 C :    0.088537
  16 C :    0.519045
  17 O :   -0.462468
  18 O :   -0.624931
  19 C :   -0.204327
  20 C :    0.444538
  21 O :   -0.469614
  22 C :    0.075203
  23 C :   -0.162472
  24 C :   -0.184721
  25 C :    0.358235
  26 O :   -0.557128
  27 C :    0.344119
  28 C :   -0.174001
  29 C :   -0.125745
  30 C :   -0.129539
  31 C :   -0.127888
  32 C :   -0.185887
  33 C :   -0.193683
  34 C :   -0.151478
  35 H :    0.147223
  36 H :    0.159714
  37 H :    0.153878
  38 H :    0.163692
  39 H :    0.140980
  40 H :    0.146472
  41 H :    0.144335
  42 H :    0.134824
  43 H :    0.174092
  44 H :    0.165249
  45 H :    0.137909
  46 H :    0.136778
  47 H :    0.154506
  48 H :    0.427609
  49 H :    0.164540
  50 H :    0.165280
  51 H :    0.151140
  52 H :    0.141195
  53 H :    0.135493
  54 H :    0.128781
  55 H :    0.136486
  56 H :    0.152106
  57 H :    0.155995
  58 H :    0.156616
Sum of atomic charges:    0.0000000

--------------------------------
MULLIKEN REDUCED ORBITAL CHARGES
--------------------------------
  0 C s       :     3.310185  s :     3.310185
      pz      :     0.974376  p :     3.113611
      px      :     1.066620
      py      :     1.072615
      dz2     :     0.007842  d :     0.033553
      dxz     :     0.004139
      dyz     :     0.008276
      dx2y2   :     0.006796
      dxy     :     0.006499

  1 C s       :     3.219483  s :     3.219483
      pz      :     0.893891  p :     2.807377
      px      :     1.040879
      py      :     0.872606
      dz2     :     0.016027  d :     0.059485
      dxz     :     0.005932
      dyz     :     0.014714
      dx2y2   :     0.015725
      dxy     :     0.007088

  2 C s       :     3.122547  s :     3.122547
      pz      :     0.912088  p :     2.671279
      px      :     0.875829
      py      :     0.883362
      dz2     :     0.007172  d :     0.039192
      dxz     :     0.006441
      dyz     :     0.007334
      dx2y2   :     0.009057
      dxy     :     0.009189

  3 C s       :     3.199839  s :     3.199839
      pz      :     0.967111  p :     2.924171
      px      :     0.994868
      py      :     0.962192
      dz2     :     0.006210  d :     0.036177
      dxz     :     0.006750
      dyz     :     0.007105
      dx2y2   :     0.007981
      dxy     :     0.008130

  4 C s       :     3.204610  s :     3.204610
      pz      :     1.006524  p :     2.968290
      px      :     0.963281
      py      :     0.998485
      dz2     :     0.004212  d :     0.034583
      dxz     :     0.006575
      dyz     :     0.007949
      dx2y2   :     0.007849
      dxy     :     0.007998

  5 C s       :     3.081268  s :     3.081268
      pz      :     0.899392  p :     2.433883
      px      :     0.867931
      py      :     0.666560
      dz2     :     0.011695  d :     0.072674
      dxz     :     0.010387
      dyz     :     0.014899
      dx2y2   :     0.018176
      dxy     :     0.017517

  6 F s       :     3.971061  s :     3.971061
      pz      :     1.866957  p :     5.329870
      px      :     1.860714
      py      :     1.602200
      dz2     :     0.002261  d :     0.017139
      dxz     :     0.001345
      dyz     :     0.004338
      dx2y2   :     0.004633
      dxy     :     0.004562

  7 C s       :     3.204036  s :     3.204036
      pz      :     0.987153  p :     2.973566
      px      :     0.995178
      py      :     0.991235
      dz2     :     0.006440  d :     0.034677
      dxz     :     0.005838
      dyz     :     0.006811
      dx2y2   :     0.006985
      dxy     :     0.008603

  8 C s       :     3.199312  s :     3.199312
      pz      :     0.991712  p :     2.929121
      px      :     0.966319
      py      :     0.971090
      dz2     :     0.004194  d :     0.036216
      dxz     :     0.007686
      dyz     :     0.007559
      dx2y2   :     0.008178
      dxy     :     0.008599

  9 N s       :     3.564829  s :     3.564829
      pz      :     1.348747  p :     3.820602
      px      :     1.079101
      py      :     1.392754
      dz2     :     0.005633  d :     0.032740
      dxz     :     0.008235
      dyz     :     0.004810
      dx2y2   :     0.007567
      dxy     :     0.006494

 10 C s       :     3.227978  s :     3.227978
      pz      :     1.101710  p :     2.931201
      px      :     0.827633
      py      :     1.001858
      dz2     :     0.008776  d :     0.053583
      dxz     :     0.011270
      dyz     :     0.008113
      dx2y2   :     0.013817
      dxy     :     0.011607

 11 C s       :     3.143455  s :     3.143455
      pz      :     0.898320  p :     2.664872
      px      :     0.906596
      py      :     0.859956
      dz2     :     0.007618  d :     0.039621
      dxz     :     0.005650
      dyz     :     0.009947
      dx2y2   :     0.008969
      dxy     :     0.007437

 12 C s       :     3.207270  s :     3.207270
      pz      :     0.982002  p :     2.913143
      px      :     0.965774
      py      :     0.965367
      dz2     :     0.004803  d :     0.036053
      dxz     :     0.005820
      dyz     :     0.009841
      dx2y2   :     0.007220
      dxy     :     0.008369

 13 C s       :     3.193370  s :     3.193370
      pz      :     0.973055  p :     2.897786
      px      :     0.987598
      py      :     0.937133
      dz2     :     0.005122  d :     0.035826
      dxz     :     0.006609
      dyz     :     0.008779
      dx2y2   :     0.007132
      dxy     :     0.008183

 14 C s       :     3.211357  s :     3.211357
      pz      :     0.958345  p :     2.913829
      px      :     0.965290
      py      :     0.990194
      dz2     :     0.008208  d :     0.035965
      dxz     :     0.005736
      dyz     :     0.006501
      dx2y2   :     0.008890
      dxy     :     0.006630

 15 C s       :     3.162359  s :     3.162359
      pz      :     0.917247  p :     2.710848
      px      :     0.923543
      py      :     0.870058
      dz2     :     0.005951  d :     0.038256
      dxz     :     0.005508
      dyz     :     0.010146
      dx2y2   :     0.007948
      dxy     :     0.008703

 16 C s       :     3.003118  s :     3.003118
      pz      :     0.856782  p :     2.367312
      px      :     0.802181
      py      :     0.708349
      dz2     :     0.020285  d :     0.110525
      dxz     :     0.016042
      dyz     :     0.020133
      dx2y2   :     0.027409
      dxy     :     0.026656

 17 O s       :     3.874068  s :     3.874068
      pz      :     1.486059  p :     4.563180
      px      :     1.383186
      py      :     1.693935
      dz2     :     0.005346  d :     0.025220
      dxz     :     0.006100
      dyz     :     0.003861
      dx2y2   :     0.005529
      dxy     :     0.004385

 18 O s       :     3.872311  s :     3.872311
      pz      :     1.627247  p :     4.731624
      px      :     1.743148
      py      :     1.361229
      dz2     :     0.002709  d :     0.020996
      dxz     :     0.004339
      dyz     :     0.004973
      dx2y2   :     0.003410
      dxy     :     0.005565

 19 C s       :     3.233838  s :     3.233838
      pz      :     0.967211  p :     2.934925
      px      :     0.985309
      py      :     0.982405
      dz2     :     0.005417  d :     0.035564
      dxz     :     0.006423
      dyz     :     0.008707
      dx2y2   :     0.006897
      dxy     :     0.008119

 20 C s       :     3.050933  s :     3.050933
      pz      :     0.753264  p :     2.405768
      px      :     0.842758
      py      :     0.809746
      dz2     :     0.028935  d :     0.098761
      dxz     :     0.032375
      dyz     :     0.017944
      dx2y2   :     0.009612
      dxy     :     0.009895

 21 O s       :     3.890162  s :     3.890162
      pz      :     1.362125  p :     4.554173
      px      :     1.731968
      py      :     1.460080
      dz2     :     0.009155  d :     0.025279
      dxz     :     0.006138
      dyz     :     0.007293
      dx2y2   :     0.001107
      dxy     :     0.001586

 22 C s       :     3.147716  s :     3.147716
      pz      :     0.870187  p :     2.738013
      px      :     0.872400
      py      :     0.995426
      dz2     :     0.010121  d :     0.039068
      dxz     :     0.010689
      dyz     :     0.005705
      dx2y2   :     0.007024
      dxy     :     0.005529

 23 C s       :     3.206826  s :     3.206826
      pz      :     0.973384  p :     2.918881
      px      :     0.975187
      py      :     0.970310
      dz2     :     0.007316  d :     0.036765
      dxz     :     0.012898
      dyz     :     0.004716
      dx2y2   :     0.005938
      dxy     :     0.005897

 24 C s       :     3.204430  s :     3.204430
      pz      :     0.976381  p :     2.946043
      px      :     0.950215
      py      :     1.019447
      dz2     :     0.007409  d :     0.034249
      dxz     :     0.010728
      dyz     :     0.004372
      dx2y2   :     0.005224
      dxy     :     0.006516

 25 C s       :     3.080359  s :     3.080359
      pz      :     0.895564  p :     2.494937
      px      :     0.656830
      py      :     0.942543
      dz2     :     0.013123  d :     0.066469
      dxz     :     0.018380
      dyz     :     0.006519
      dx2y2   :     0.013498
      dxy     :     0.014950

 26 O s       :     3.887121  s :     3.887121
      pz      :     1.628757  p :     4.642437
      px      :     1.231024
      py      :     1.782655
      dz2     :     0.004741  d :     0.027570
      dxz     :     0.009641
      dyz     :     0.003159
      dx2y2   :     0.004833
      dxy     :     0.005196

 27 C s       :     3.077784  s :     3.077784
      pz      :     0.826165  p :     2.512200
      px      :     0.740165
      py      :     0.945870
      dz2     :     0.012433  d :     0.065897
      dxz     :     0.019979
      dyz     :     0.009059
      dx2y2   :     0.011501
      dxy     :     0.012924

 28 C s       :     3.196667  s :     3.196667
      pz      :     0.987290  p :     2.942931
      px      :     0.953831
      py      :     1.001810
      dz2     :     0.007485  d :     0.034403
      dxz     :     0.007728
      dyz     :     0.005954
      dx2y2   :     0.006312
      dxy     :     0.006925

 29 C s       :     3.189877  s :     3.189877
      pz      :     0.943788  p :     2.899334
      px      :     0.976710
      py      :     0.978836
      dz2     :     0.009033  d :     0.036534
      dxz     :     0.009221
      dyz     :     0.005590
      dx2y2   :     0.006244
      dxy     :     0.006446

 30 C s       :     3.181469  s :     3.181469
      pz      :     0.966497  p :     2.912113
      px      :     0.960522
      py      :     0.985094
      dz2     :     0.006657  d :     0.035957
      dxz     :     0.012035
      dyz     :     0.004753
      dx2y2   :     0.007155
      dxy     :     0.005357

 31 C s       :     3.190548  s :     3.190548
      pz      :     0.980655  p :     2.900857
      px      :     0.931353
      py      :     0.988850
      dz2     :     0.007241  d :     0.036482
      dxz     :     0.008966
      dyz     :     0.006426
      dx2y2   :     0.006733
      dxy     :     0.007117

 32 C s       :     3.187139  s :     3.187139
      pz      :     0.971913  p :     2.964243
      px      :     1.000351
      py      :     0.991978
      dz2     :     0.008860  d :     0.034506
      dxz     :     0.007417
      dyz     :     0.005782
      dx2y2   :     0.006214
      dxy     :     0.006232

 33 C s       :     3.190130  s :     3.190130
      pz      :     0.967754  p :     2.969215
      px      :     0.992544
      py      :     1.008918
      dz2     :     0.006879  d :     0.034338
      dxz     :     0.011830
      dyz     :     0.004604
      dx2y2   :     0.005553
      dxy     :     0.005472

 34 C s       :     3.212072  s :     3.212072
      pz      :     0.978941  p :     2.902929
      px      :     0.944328
      py      :     0.979660
      dz2     :     0.008151  d :     0.036477
      dxz     :     0.010567
      dyz     :     0.004893
      dx2y2   :     0.005756
      dxy     :     0.007111

 35 H s       :     0.852777  s :     0.852777

 36 H s       :     0.840286  s :     0.840286

 37 H s       :     0.846122  s :     0.846122

 38 H s       :     0.836308  s :     0.836308

 39 H s       :     0.859020  s :     0.859020

 40 H s       :     0.853528  s :     0.853528

 41 H s       :     0.855665  s :     0.855665

 42 H s       :     0.865176  s :     0.865176

 43 H s       :     0.825908  s :     0.825908

 44 H s       :     0.834751  s :     0.834751

 45 H s       :     0.862091  s :     0.862091

 46 H s       :     0.863222  s :     0.863222

 47 H s       :     0.845494  s :     0.845494

 48 H s       :     0.572391  s :     0.572391

 49 H s       :     0.835460  s :     0.835460

 50 H s       :     0.834720  s :     0.834720

 51 H s       :     0.848860  s :     0.848860

 52 H s       :     0.858805  s :     0.858805

 53 H s       :     0.864507  s :     0.864507

 54 H s       :     0.871219  s :     0.871219

 55 H s       :     0.863514  s :     0.863514

 56 H s       :     0.847894  s :     0.847894

 57 H s       :     0.844005  s :     0.844005

 58 H s       :     0.843384  s :     0.843384



                     *******************************
                     * LOEWDIN POPULATION ANALYSIS *
                     *******************************

----------------------
LOEWDIN ATOMIC CHARGES
----------------------
   0 C :   -0.363633
   1 C :   -0.057412
   2 C :   -0.032687
   3 C :   -0.117505
   4 C :   -0.153945
   5 C :    0.115704
   6 F :   -0.103946
   7 C :   -0.157294
   8 C :   -0.129258
   9 N :   -0.108403
  10 C :   -0.141930
  11 C :   -0.020821
  12 C :   -0.103861
  13 C :   -0.127769
  14 C :   -0.106321
  15 C :   -0.057412
  16 C :    0.179266
  17 O :   -0.278972
  18 O :   -0.336801
  19 C :   -0.096608
  20 C :    0.143204
  21 O :   -0.274066
  22 C :   -0.061150
  23 C :   -0.111582
  24 C :   -0.145155
  25 C :    0.097064
  26 O :   -0.138466
  27 C :    0.084275
  28 C :   -0.145321
  29 C :   -0.121673
  30 C :   -0.140399
  31 C :   -0.122774
  32 C :   -0.157870
  33 C :   -0.160518
  34 C :   -0.097416
  35 H :    0.123165
  36 H :    0.131226
  37 H :    0.132082
  38 H :    0.142057
  39 H :    0.137909
  40 H :    0.144085
  41 H :    0.142959
  42 H :    0.134742
  43 H :    0.138457
  44 H :    0.138918
  45 H :    0.137117
  46 H :    0.135998
  47 H :    0.145266
  48 H :    0.345386
  49 H :    0.147391
  50 H :    0.146331
  51 H :    0.146619
  52 H :    0.141592
  53 H :    0.135516
  54 H :    0.132008
  55 H :    0.135570
  56 H :    0.143352
  57 H :    0.146028
  58 H :    0.147681

-------------------------------
LOEWDIN REDUCED ORBITAL CHARGES
-------------------------------
  0 C s       :     2.988916  s :     2.988916
      pz      :     1.058382  p :     3.309046
      px      :     1.124643
      py      :     1.126022
      dz2     :     0.016987  d :     0.065670
      dxz     :     0.008525
      dyz     :     0.016330
      dx2y2   :     0.012223
      dxy     :     0.011605

  1 C s       :     2.887316  s :     2.887316
      pz      :     0.994896  p :     3.039119
      px      :     1.080046
      py      :     0.964177
      dz2     :     0.037695  d :     0.130977
      dxz     :     0.011768
      dyz     :     0.032533
      dx2y2   :     0.033521
      dxy     :     0.015460

  2 C s       :     2.882196  s :     2.882196
      pz      :     1.012182  p :     3.052252
      px      :     1.034149
      py      :     1.005921
      dz2     :     0.016698  d :     0.098240
      dxz     :     0.017528
      dyz     :     0.017717
      dx2y2   :     0.022854
      dxy     :     0.023443

  3 C s       :     2.918052  s :     2.918052
      pz      :     1.021820  p :     3.114668
      px      :     1.050909
      py      :     1.041939
      dz2     :     0.013793  d :     0.084785
      dxz     :     0.014120
      dyz     :     0.018798
      dx2y2   :     0.018968
      dxy     :     0.019106

  4 C s       :     2.921586  s :     2.921586
      pz      :     1.045873  p :     3.150536
      px      :     1.044174
      py      :     1.060488
      dz2     :     0.009408  d :     0.081823
      dxz     :     0.014495
      dyz     :     0.016992
      dx2y2   :     0.019947
      dxy     :     0.020982

  5 C s       :     2.864957  s :     2.864957
      pz      :     0.999229  p :     2.839639
      px      :     1.014917
      py      :     0.825493
      dz2     :     0.027559  d :     0.179699
      dxz     :     0.024560
      dyz     :     0.038178
      dx2y2   :     0.043950
      dxy     :     0.045452

  6 F s       :     3.734461  s :     3.734461
      pz      :     1.862500  p :     5.335077
      px      :     1.857260
      py      :     1.615318
      dz2     :     0.004525  d :     0.034408
      dxz     :     0.002666
      dyz     :     0.008707
      dx2y2   :     0.009344
      dxy     :     0.009166

  7 C s       :     2.920624  s :     2.920624
      pz      :     1.037922  p :     3.154525
      px      :     1.060379
      py      :     1.056223
      dz2     :     0.014147  d :     0.082145
      dxz     :     0.012998
      dyz     :     0.018170
      dx2y2   :     0.016811
      dxy     :     0.020018

  8 C s       :     2.916755  s :     2.916755
      pz      :     1.035341  p :     3.127811
      px      :     1.043950
      py      :     1.048519
      dz2     :     0.009635  d :     0.084693
      dxz     :     0.016003
      dyz     :     0.016401
      dx2y2   :     0.020287
      dxy     :     0.022365

  9 N s       :     3.128159  s :     3.128159
      pz      :     1.363745  p :     3.897772
      px      :     1.151645
      py      :     1.382382
      dz2     :     0.012887  d :     0.082472
      dxz     :     0.022082
      dyz     :     0.011213
      dx2y2   :     0.019395
      dxy     :     0.016895

 10 C s       :     2.920720  s :     2.920720
      pz      :     1.124363  p :     3.109142
      px      :     0.930122
      py      :     1.054657
      dz2     :     0.017888  d :     0.112067
      dxz     :     0.022431
      dyz     :     0.015261
      dx2y2   :     0.031950
      dxy     :     0.024538

 11 C s       :     2.881846  s :     2.881846
      pz      :     1.017632  p :     3.039763
      px      :     1.003240
      py      :     1.018890
      dz2     :     0.018251  d :     0.099212
      dxz     :     0.015430
      dyz     :     0.024269
      dx2y2   :     0.022593
      dxy     :     0.018669

 12 C s       :     2.921904  s :     2.921904
      pz      :     1.022879  p :     3.098350
      px      :     1.011221
      py      :     1.064251
      dz2     :     0.011012  d :     0.083607
      dxz     :     0.011726
      dyz     :     0.021978
      dx2y2   :     0.018156
      dxy     :     0.020735

 13 C s       :     2.918177  s :     2.918177
      pz      :     1.033795  p :     3.125004
      px      :     1.026602
      py      :     1.064607
      dz2     :     0.012116  d :     0.084588
      dxz     :     0.012698
      dyz     :     0.022305
      dx2y2   :     0.018536
      dxy     :     0.018934

 14 C s       :     2.919667  s :     2.919667
      pz      :     1.019234  p :     3.102687
      px      :     1.006361
      py      :     1.077092
      dz2     :     0.018212  d :     0.083967
      dxz     :     0.015561
      dyz     :     0.016362
      dx2y2   :     0.018828
      dxy     :     0.015004

 15 C s       :     2.876789  s :     2.876789
      pz      :     1.010451  p :     3.080821
      px      :     1.023949
      py      :     1.046421
      dz2     :     0.014733  d :     0.099801
      dxz     :     0.014741
      dyz     :     0.026445
      dx2y2   :     0.020661
      dxy     :     0.023221

 16 C s       :     2.864849  s :     2.864849
      pz      :     0.922720  p :     2.702645
      px      :     0.904800
      py      :     0.875125
      dz2     :     0.044675  d :     0.253239
      dxz     :     0.037668
      dyz     :     0.045354
      dx2y2   :     0.061795
      dxy     :     0.063748

 17 O s       :     3.591459  s :     3.591459
      pz      :     1.509262  p :     4.638096
      px      :     1.427167
      py      :     1.701666
      dz2     :     0.007873  d :     0.049417
      dxz     :     0.015177
      dyz     :     0.007164
      dx2y2   :     0.009478
      dxy     :     0.009725

 18 O s       :     3.540662  s :     3.540662
      pz      :     1.627480  p :     4.754096
      px      :     1.737547
      py      :     1.389070
      dz2     :     0.005809  d :     0.042043
      dxz     :     0.005856
      dyz     :     0.010033
      dx2y2   :     0.008793
      dxy     :     0.011552

 19 C s       :     2.918840  s :     2.918840
      pz      :     1.028195  p :     3.095693
      px      :     1.021239
      py      :     1.046259
      dz2     :     0.012223  d :     0.082075
      dxz     :     0.012183
[...]
      dxy     :     0.012329

 27 C s       :     2.860421  s :     2.860421
      pz      :     0.971885  p :     2.898843
      px      :     0.923423
      py      :     1.003535
      dz2     :     0.030705  d :     0.156461
      dxz     :     0.048564
      dyz     :     0.021090
      dx2y2   :     0.027122
      dxy     :     0.028980

 28 C s       :     2.918911  s :     2.918911
      pz      :     1.065777  p :     3.145338
      px      :     1.052029
      py      :     1.027532
      dz2     :     0.016563  d :     0.081072
      dxz     :     0.020938
      dyz     :     0.010515
      dx2y2   :     0.016599
      dxy     :     0.016457

 29 C s       :     2.916735  s :     2.916735
      pz      :     1.048540  p :     3.119136
      px      :     1.065317
      py      :     1.005278
      dz2     :     0.022024  d :     0.085802
      dxz     :     0.023669
      dyz     :     0.013827
      dx2y2   :     0.013051
      dxy     :     0.013232

 30 C s       :     2.915566  s :     2.915566
      pz      :     1.053521  p :     3.139914
      px      :     1.067056
      py      :     1.019337
      dz2     :     0.016608  d :     0.084919
      dxz     :     0.027480
      dyz     :     0.011863
      dx2y2   :     0.015733
      dxy     :     0.013235

 31 C s       :     2.917263  s :     2.917263
      pz      :     1.049631  p :     3.119719
      px      :     1.063570
      py      :     1.006518
      dz2     :     0.016276  d :     0.085792
      dxz     :     0.023441
      dyz     :     0.011391
      dx2y2   :     0.017647
      dxy     :     0.017037

 32 C s       :     2.920987  s :     2.920987
      pz      :     1.047841  p :     3.155720
      px      :     1.079691
      py      :     1.028188
      dz2     :     0.021242  d :     0.081163
      dxz     :     0.019755
      dyz     :     0.014261
      dx2y2   :     0.013200
      dxy     :     0.012705

 33 C s       :     2.920089  s :     2.920089
      pz      :     1.056489  p :     3.159407
      px      :     1.077231
      py      :     1.025688
      dz2     :     0.017364  d :     0.081022
      dxz     :     0.028360
      dyz     :     0.009985
      dx2y2   :     0.013195
      dxy     :     0.012118

 34 C s       :     2.918514  s :     2.918514
      pz      :     1.058005  p :     3.093913
      px      :     1.055058
      py      :     0.980850
      dz2     :     0.018193  d :     0.084989
      dxz     :     0.027011
      dyz     :     0.008305
      dx2y2   :     0.015687
      dxy     :     0.015793

 35 H s       :     0.876835  s :     0.876835

 36 H s       :     0.868774  s :     0.868774

 37 H s       :     0.867918  s :     0.867918

 38 H s       :     0.857943  s :     0.857943

 39 H s       :     0.862091  s :     0.862091

 40 H s       :     0.855915  s :     0.855915

 41 H s       :     0.857041  s :     0.857041

 42 H s       :     0.865258  s :     0.865258

 43 H s       :     0.861543  s :     0.861543

 44 H s       :     0.861082  s :     0.861082

 45 H s       :     0.862883  s :     0.862883

 46 H s       :     0.864002  s :     0.864002

 47 H s       :     0.854734  s :     0.854734

 48 H s       :     0.654614  s :     0.654614

 49 H s       :     0.852609  s :     0.852609

 50 H s       :     0.853669  s :     0.853669

 51 H s       :     0.853381  s :     0.853381

 52 H s       :     0.858408  s :     0.858408

 53 H s       :     0.864484  s :     0.864484

 54 H s       :     0.867992  s :     0.867992

 55 H s       :     0.864430  s :     0.864430

 56 H s       :     0.856648  s :     0.856648

 57 H s       :     0.853972  s :     0.853972

 58 H s       :     0.852319  s :     0.852319



                      *****************************
                      * MAYER POPULATION ANALYSIS *
                      *****************************

  NA   - Mulliken gross atomic population
  ZA   - Total nuclear charge
  QA   - Mulliken gross atomic charge
  VA   - Mayer's total valence
  BVA  - Mayer's bonded valence
  FA   - Mayer's free valence

  ATOM       NA         ZA         QA         VA         BVA        FA
  0 C      6.4573     6.0000    -0.4573     3.8181     3.8181    -0.0000
  1 C      6.0863     6.0000    -0.0863     3.9035     3.9035     0.0000
  2 C      5.8330     6.0000     0.1670     3.8949     3.8949     0.0000
  3 C      6.1602     6.0000    -0.1602     3.9215     3.9215     0.0000
  4 C      6.2075     6.0000    -0.2075     3.8845     3.8845     0.0000
  5 C      5.5878     6.0000     0.4122     3.8330     3.8330     0.0000
  6 F      9.3181     9.0000    -0.3181     1.0452     1.0452     0.0000
  7 C      6.2123     6.0000    -0.2123     3.8879     3.8879    -0.0000
  8 C      6.1646     6.0000    -0.1646     3.9156     3.9156     0.0000
  9 N      7.4182     7.0000    -0.4182     2.9903     2.9903     0.0000
 10 C      6.2128     6.0000    -0.2128     3.8198     3.8198     0.0000
 11 C      5.8479     6.0000     0.1521     3.9073     3.9073     0.0000
 12 C      6.1565     6.0000    -0.1565     3.9328     3.9328     0.0000
 13 C      6.1270     6.0000    -0.1270     3.9207     3.9207    -0.0000
 14 C      6.1611     6.0000    -0.1611     3.8946     3.8946    -0.0000
 15 C      5.9115     6.0000     0.0885     3.9034     3.9034    -0.0000
 16 C      5.4810     6.0000     0.5190     3.9500     3.9500     0.0000
 17 O      8.4625     8.0000    -0.4625     2.0530     2.0530     0.0000
 18 O      8.6249     8.0000    -0.6249     1.8646     1.8646     0.0000
 19 C      6.2043     6.0000    -0.2043     3.8889     3.8889     0.0000
 20 C      5.5555     6.0000     0.4445     3.9281     3.9281    -0.0000
 21 O      8.4696     8.0000    -0.4696     2.0362     2.0362    -0.0000
 22 C      5.9248     6.0000     0.0752     3.8838     3.8838    -0.0000
 23 C      6.1625     6.0000    -0.1625     3.9086     3.9086     0.0000
 24 C      6.1847     6.0000    -0.1847     3.9022     3.9022     0.0000
 25 C      5.6418     6.0000     0.3582     3.8501     3.8501    -0.0000
 26 O      8.5571     8.0000    -0.5571     1.9618     1.9618     0.0000
 27 C      5.6559     6.0000     0.3441     3.8578     3.8578     0.0000
 28 C      6.1740     6.0000    -0.1740     3.9146     3.9146    -0.0000
 29 C      6.1257     6.0000    -0.1257     3.9504     3.9504    -0.0000
 30 C      6.1295     6.0000    -0.1295     3.9456     3.9456    -0.0000
 31 C      6.1279     6.0000    -0.1279     3.9534     3.9534     0.0000
 32 C      6.1859     6.0000    -0.1859     3.8962     3.8962    -0.0000
 33 C      6.1937     6.0000    -0.1937     3.8705     3.8705    -0.0000
 34 C      6.1515     6.0000    -0.1515     3.9370     3.9370     0.0000
 35 H      0.8528     1.0000     0.1472     0.9398     0.9398    -0.0000
 36 H      0.8403     1.0000     0.1597     0.9380     0.9380     0.0000
 37 H      0.8461     1.0000     0.1539     0.9369     0.9369    -0.0000
 38 H      0.8363     1.0000     0.1637     0.9368     0.9368    -0.0000
 39 H      0.8590     1.0000     0.1410     0.9404     0.9404     0.0000
 40 H      0.8535     1.0000     0.1465     0.9364     0.9364     0.0000
 41 H      0.8557     1.0000     0.1443     0.9366     0.9366    -0.0000
 42 H      0.8652     1.0000     0.1348     0.9416     0.9416     0.0000
 43 H      0.8259     1.0000     0.1741     0.9351     0.9351     0.0000
 44 H      0.8348     1.0000     0.1652     0.9325     0.9325     0.0000
 45 H      0.8621     1.0000     0.1379     0.9384     0.9384     0.0000
 46 H      0.8632     1.0000     0.1368     0.9366     0.9366    -0.0000
 47 H      0.8455     1.0000     0.1545     0.9394     0.9394     0.0000
 48 H      0.5724     1.0000     0.4276     0.8011     0.8011     0.0000
 49 H      0.8355     1.0000     0.1645     0.9484     0.9484     0.0000
 50 H      0.8347     1.0000     0.1653     0.9382     0.9382     0.0000
 51 H      0.8489     1.0000     0.1511     0.9371     0.9371     0.0000
 52 H      0.8588     1.0000     0.1412     0.9378     0.9378    -0.0000
 53 H      0.8645     1.0000     0.1355     0.9360     0.9360     0.0000
 54 H      0.8712     1.0000     0.1288     0.9369     0.9369    -0.0000
 55 H      0.8635     1.0000     0.1365     0.9360     0.9360     0.0000
 56 H      0.8479     1.0000     0.1521     0.9390     0.9390     0.0000
 57 H      0.8440     1.0000     0.1560     0.9412     0.9412    -0.0000
 58 H      0.8434     1.0000     0.1566     0.9397     0.9397     0.0000

  Mayer bond orders larger than 0.100000
B(  0-C ,  1-C ) :   0.9914 B(  0-C , 35-H ) :   0.9366 B(  0-C , 36-H ) :   0.9366 
B(  0-C , 37-H ) :   0.9405 B(  1-C ,  2-C ) :   0.9556 B(  1-C ,  9-N ) :   0.9485 
B(  1-C , 38-H ) :   0.9139 B(  2-C ,  3-C ) :   1.4210 B(  2-C ,  8-C ) :   1.4224 
B(  3-C ,  4-C ) :   1.4251 B(  3-C , 39-H ) :   0.9218 B(  4-C ,  5-C ) :   1.3910 
B(  4-C , 40-H ) :   0.9202 B(  5-C ,  6-F ) :   0.9176 B(  5-C ,  7-C ) :   1.3965 
B(  7-C ,  8-C ) :   1.4183 B(  7-C , 41-H ) :   0.9206 B(  8-C , 42-H ) :   0.9201 
B(  9-N , 10-C ) :   0.9239 B(  9-N , 20-C ) :   1.0305 B( 10-C , 11-C ) :   0.9670 
B( 10-C , 43-H ) :   0.9149 B( 10-C , 44-H ) :   0.9148 B( 11-C , 12-C ) :   1.4170 
B( 11-C , 19-C ) :   1.4057 B( 12-C , 13-C ) :   1.4344 B( 12-C , 45-H ) :   0.9222 
B( 13-C , 14-C ) :   1.4313 B( 13-C , 46-H ) :   0.9292 B( 14-C , 15-C ) :   1.3839 
B( 14-C , 47-H ) :   0.9185 B( 15-C , 16-C ) :   1.0126 B( 15-C , 19-C ) :   1.3825 
B( 16-C , 17-O ) :   1.8490 B( 16-C , 18-O ) :   1.0202 B( 18-O , 48-H ) :   0.7457 
B( 19-C , 49-H ) :   0.8980 B( 20-C , 21-O ) :   1.8157 B( 20-C , 22-C ) :   0.9708 
B( 22-C , 23-C ) :   1.3899 B( 22-C , 34-C ) :   1.3986 B( 23-C , 24-C ) :   1.4304 
B( 23-C , 50-H ) :   0.9085 B( 24-C , 25-C ) :   1.4057 B( 24-C , 51-H ) :   0.9190 
B( 25-C , 26-O ) :   0.8915 B( 25-C , 33-C ) :   1.3656 B( 26-O , 27-C ) :   0.8674 
B( 27-C , 28-C ) :   1.4207 B( 27-C , 32-C ) :   1.3844 B( 28-C , 29-C ) :   1.4409 
B( 28-C , 52-H ) :   0.9209 B( 29-C , 30-C ) :   1.4546 B( 29-C , 53-H ) :   0.9293 
B( 30-C , 31-C ) :   1.4502 B( 30-C , 54-H ) :   0.9303 B( 31-C , 32-C ) :   1.4463 
B( 31-C , 55-H ) :   0.9289 B( 32-C , 56-H ) :   0.9149 B( 33-C , 34-C ) :   1.4347 
B( 33-C , 57-H ) :   0.9123 B( 34-C , 58-H ) :   0.9181 

-------
TIMINGS
-------

Total SCF time: 0 days 0 hours 5 min 43 sec 

Total time                  ....     343.451 sec
Sum of individual times     ....     343.110 sec  ( 99.9%)

SCF preparation             ....       0.515 sec  (  0.2%)
Fock matrix formation       ....     339.212 sec  ( 98.8%)
  Startup                   ....       0.120 sec  (  0.0% of F)
  Split-RI-J                ....      44.340 sec  ( 13.1% of F)
  Chain of spheres X        ....     265.198 sec  ( 78.2% of F)
  XC integration            ....      28.430 sec  (  8.4% of F)
    XC Preparation          ....       0.000 sec  (  0.0% of XC)
    Basis function eval.    ....      10.899 sec  ( 38.3% of XC)
    Density eval.           ....       6.625 sec  ( 23.3% of XC)
    XC-Functional eval.     ....       1.238 sec  (  4.4% of XC)
    XC-Potential eval.      ....       7.903 sec  ( 27.8% of XC)
Diagonalization             ....       0.000 sec  (  0.0%)
Density matrix formation    ....       0.484 sec  (  0.1%)
Total Energy calculation    ....       0.105 sec  (  0.0%)
Population analysis         ....       0.097 sec  (  0.0%)
Orbital Transformation      ....       0.334 sec  (  0.1%)
Orbital Orthonormalization  ....       0.000 sec  (  0.0%)
DIIS solution               ....       1.390 sec  (  0.4%)
SOSCF solution              ....       0.973 sec  (  0.3%)
Finished LeanSCF after 343.6 sec

Maximum memory used throughout the entire LEANSCF-calculation: 91.4 MB

-------------------------   --------------------
FINAL SINGLE POINT ENERGY     -1574.072928823194
-------------------------   --------------------


------------------------------------------------------------------------------
                              ORCA PROPERTY CALCULATIONS
------------------------------------------------------------------------------

GBWName                                 ... /home/nmrbox/aojoawo/Documents/ERDOS/inputs/CHEMBL3577887.gbw
Number of atoms                         ...     59
Number of basis functions               ...    538
Max core memory                         ...   1024 MB

Electric properties:
Dipole moment                           ... YES
Quadrupole moment                       ...  NO
Static polarizability (Dipole/Dipole)   ...  NO
Static polarizability (Dipole/Quad.)    ...  NO
Static polarizability (Quad./Quad.)     ...  NO
Static polarizability (Velocity)        ...  NO

Atomic electric properties:
Dipole moment                           ...  NO
Quadrupole moment                       ...  NO
Static polarizability                   ...  NO

Choice of electric origin               ... Center of mass
Position of electric origin             ...    -0.204979    -0.008418     0.078748

General magnetic properties:
Magnetizability                         ...  NO

EPR properties:
g-Tensor (aka g-matrix)                 ...  NO
Zero-Field splitting spin-orbit         ...  NO
Zero-field splitting spin-spin          ...  NO
Hyperfine couplings                     ...  NO (   0 nuclei)
Quadrupole couplings                    ...  NO (   0 nuclei)
Contact density                         ...  NO (   0 nuclei)

NMR properties:
Chemical shifts                         ...  NO (   0 nuclei)
Spin-rotation constants                 ...  NO (   0 nuclei)
Spin-spin couplings                     ...  NO (   0 nuclei,    0 pairs)

Choice of magnetic origin               ... GIAO
Position of magnetic origin             ...     0.000000     0.000000     0.000000

Properties with geometric perturbations:
SCF Hessian                             ...  NO
IR spectrum                             ...  NO
VCD spectrum                            ...  NO
X-ray spectroscopy properties:
SCF XES/XAS/RIXS spectra                ...  NO


-------------
DIPOLE MOMENT
-------------

Method             : SCF
Type of density    : Electron Density
Multiplicity       :   1
Irrep              :   0
Energy             : -1574.0729288231941609 Eh
Relativity type    : 
Basis              : AO
                                X                 Y                 Z
Electronic contribution:     -6.892684120      -5.718915358       2.566914801
Nuclear contribution   :      7.024279401       5.865954791      -2.929342499
                        -----------------------------------------
Total Dipole Moment    :      0.131595281       0.147039433      -0.362427698
                        -----------------------------------------
Magnitude (a.u.)       :      0.412664209
Magnitude (Debye)      :      1.048909060



--------------------
Rotational spectrum 
--------------------
 
Rotational constants in cm-1:             0.003700             0.002157             0.001514 
Rotational constants in MHz :           110.909006            64.665972            45.376750 

Dipole components along the rotational axes: 
x,y,z [a.u.] :    -0.105334     0.192180    -0.349662 
x,y,z [Debye]:    -0.267739     0.488483    -0.888769 

 

Dipole moment calculation done in   0.0 sec 

Maximum memory used throughout the entire PROP-calculation: 44.3 MB

--------------------------------
SUGGESTED CITATIONS FOR THIS RUN
--------------------------------

Below you find a list of papers that are relevant to this ORCA run
We neither can nor want to force you to cite these papers, but we appreciate if you do
You receive ORCA, which is the product of decades of hard work by many enthusiastic individuals, for free
The only thing we kindly ask in return is that you cite our papers,
We deeply appreciate it, if you show your appreciation for ORCA by not just citing the generic ORCA reference.

Please note that relegating all ORCA citations to the supporting information does *not* help us.
SI sections are not indexed - citations you put there will not count into any citation statistics
But we need these citations in order to attract the funding resources that allow us to do what we are doing

Therefore, if you are a happy ORCA user, please consider citing a few of the papers listed below in the main body of your paper

In addition to the list printed below, the program has created the file /home/nmrbox/aojoawo/Documents/ERDOS/inputs/CHEMBL3577887.bibtex that contains the list in bibtex format
You can import this file easily into all common literature databanks and citation aid programs


List of essential papers. We consider these as the minimum necessary citations

  1. Neese,F.
     Software update: the ORCA program system, version 5.0
     WIRES Comput. Molec. Sci., 2022 12(1)e1606
     doi.org/10.1002/wcms.1606

List of papers to cite with high priority. The work reported in these papers was absolutely
necessary for this run to complete.
Our perspective: the developers of density functionals and basis sets usually get cited in chemistry papers
Good! But without the algorithms to do something with them, the functionals or basis sets would not do anything.
Hence, in our opinion, the algorithm design and method developments papers are equally worthy of getting cited

  1. Neese,F.
     An improvement of the resolution of the identity approximation for the formation of the Coulomb matrix
     J. Comp. Chem., 2003 24(14)1740-1747
     doi.org/10.1002/jcc.10318
  2. Neese,F.; Wennmohs,F.; Hansen,A.; Becker,U.
     Efficient, approximate and parallel Hartree-Fock and hybrid DFT calculations. A 'chain-of-spheres' algorithm for the Hartree-Fock exchange
     Chem. Phys., 2009 356(1-3)98-109
     doi.org/10.1016/j.chemphys.2008.10.036
  3. Helmich-Paris,B.; de Souza,B.; Neese,F.; Izsák,R.
     An improved chain of spheres for exchange algorithm
     J. Chem. Phys., 2021 155 104109
     doi.org/doi: 10.1063/5.0058766.
  4. Neese,F.
     The SHARK Integral Generation and Digestion System
     J. Comp. Chem., 2022  1-16
     doi.org/10.1002/jcc.26942

List of suggested additional citations. These are papers that are important in the 'surrounding' of 
of this run, or papers that preceded the highly important papers. If you like your results we are grateful for a citation.

  1. Izsak,R.; Neese,F.
     An overlap fitted chain of spheres exchange method
     J. Chem. Phys., 2011 135 144105
     doi.org/10.1063/1.3646921
  2. Izsak,R.; Hansen,A.; Neese,F.
     The resolution of identity and chain of spheres approximations for the LPNO-CCSD singles Fock term
     Molec. Phys., 2012 110 2413-2417
     doi.org/10.1080/00268976.2012.687466
  3. Neese,F.
     The ORCA program system
     WIRES Comput. Molec. Sci., 2012 2(1)73-78
     doi.org/10.1002/wcms.81
  4. Izsak,R.; Neese,F.; Klopper,W.
     Robust fitting techniques in the chain of spheres approximation to the Fock exchange: The role of the complementary space
     J. Chem. Phys., 2013 139 
     doi.org/10.1063/1.4819264
  5. Neese,F.
     Software update: the ORCA program system, version 4.0
     WIRES Comput. Molec. Sci., 2018 8(1)1-6
     doi.org/10.1002/wcms.1327
  6. Neese,F.; Wennmohs,F.; Becker,U.; Riplinger,C.
     The ORCA quantum chemistry program package
     J. Chem. Phys., 2020 152 Art. No. L224108
     doi.org/10.1063/5.0004608

List of optional additional citations

  1. Neese,F.
     Approximate second-order SCF convergence for spin unrestricted wavefunctions
     Chem. Phys. Lett., 2000 325(1-3)93-98
     doi.org/10.1016/s0009-2614(00)00662-x

Timings for individual modules:

Sum of individual times          ...      360.985 sec (=   6.016 min)
Startup calculation              ...       11.884 sec (=   0.198 min)   3.3 %
SCF iterations                   ...      348.884 sec (=   5.815 min)  96.6 %
Property calculations            ...        0.217 sec (=   0.004 min)   0.1 %
                             ****ORCA TERMINATED NORMALLY****
TOTAL RUN TIME: 0 days 0 hours 6 minutes 2 seconds 562 msec
