
                                 *****************
                                 * O   R   C   A *
                                 *****************

                                            #,                                       
                                            ###                                      
                                            ####                                     
                                            #####                                    
                                            ######                                   
                                           ########,                                 
                                     ,,################,,,,,                         
                               ,,#################################,,                 
                          ,,##########################################,,             
                       ,#########################################, ''#####,          
                    ,#############################################,,   '####,        
                  ,##################################################,,,,####,       
                ,###########''''           ''''###############################       
              ,#####''   ,,,,##########,,,,          '''####'''          '####       
            ,##' ,,,,###########################,,,                        '##       
           ' ,,###''''                  '''############,,,                           
         ,,##''                                '''############,,,,        ,,,,,,###''
      ,#''                                            '''#######################'''  
     '                                                          ''''####''''         
             ,#######,   #######,   ,#######,      ##                                
            ,#'     '#,  ##    ##  ,#'     '#,    #''#        ,####,   ,####,        
            ##       ##  ##   ,#'  ##            #'  '#       #'       #'  '#        
            ##       ##  #######   ##           ,######,      #####,   #    #        
            '#,     ,#'  ##    ##  '#,     ,#' ,#      #,     #,   #   #,  ,#        
             '#######'   ##     ##  '#######'  #'      '#     '####' # '####'        



                #########################################################
                #                        -***-                          #
                #          Department of theory and spectroscopy        #
                #                                                       #
                #                      Frank Neese                      #
                #                                                       #
                #     Directorship, Architecture, Infrastructure        #
                #                    SHARK, DRIVERS                     #
                #        Core code/Algorithms in most modules           #
                #                                                       #
                #        Max Planck Institute fuer Kohlenforschung      #
                #                Kaiser Wilhelm Platz 1                 #
                #                 D-45470 Muelheim/Ruhr                 #
                #                      Germany                          #
                #                                                       #
                #                  All rights reserved                  #
                #                        -***-                          #
                #########################################################


                         Program Version 6.0.0  -   RELEASE  -


 With contributions from (in alphabetic order):
   Daniel Aravena         : Magnetic Suceptibility
   Michael Atanasov       : Ab Initio Ligand Field Theory (pilot matlab implementation)
   Alexander A. Auer      : GIAO ZORA, VPT2 properties, NMR spectrum
   Ute Becker             : All parallelization in ORCA, NUMFREQ, NUMCALC
   Giovanni Bistoni       : ED, misc. LED, open-shell LED, HFLD
   Martin Brehm           : Molecular dynamics
   Dmytro Bykov           : pre 5.0 version of the SCF Hessian
   Marcos Casanova-Páez   : Triplet and SCS-CIS(D). UHF-(DLPNO)-IP/EA/STEOM-CCSD. UHF-CVS-IP/STEOM-CCSD
   Vijay G. Chilkuri      : MRCI spin determinant printing, contributions to CSF-ICE
   Pauline Colinet        : FMM embedding
   Dipayan Datta          : RHF DLPNO-CCSD density
   Achintya Kumar Dutta   : EOM-CC, STEOM-CC
   Nicolas Foglia         : Exact transition moments, OPA infrastructure, MCD improvements
   Dmitry Ganyushin       : Spin-Orbit,Spin-Spin,Magnetic field MRCI
   Miquel Garcia          : C-PCM and meta-GGA Hessian, CCSD/C-PCM, Gaussian charge scheme
   Tiago L. C. Gouveia    : GS-ROHF, GS-ROCIS
   Yang Guo               : DLPNO-NEVPT2, F12-NEVPT2, CIM, IAO-localization
   Andreas Hansen         : Spin unrestricted coupled pair/coupled cluster methods
   Ingolf Harden          : AUTO-CI MPn and infrastructure 
   Benjamin Helmich-Paris : MC-RPA, TRAH-(SCF,CASSCF), AVAS, COSX integrals, SCF dyn. polar.
   Lee Huntington         : MR-EOM, pCC
   Robert Izsak           : Overlap fitted RIJCOSX, COSX-SCS-MP3, EOM
   Riya Kayal             : Wick's Theorem for AUTO-CI, AUTO-CI UHF-CCSDT
   Emily Kempfer          : AUTO-CI, RHF CISDT and CCSDT
   Christian Kollmar      : KDIIS, OOCD, Brueckner-CCSD(T), CCSD density, CASPT2, CASPT2-K, improved NEVPT2
   Axel Koslowski         : Symmetry handling
   Simone Kossmann        : Meta GGA functionals, TD-DFT gradient, OOMP2, (MP2 Hessian; deprecated post 5.0)
   Lucas Lang             : DCDCAS
   Marvin Lechner         : AUTO-CI (C++ implementation), FIC-MRCC
   Spencer Leger          : CASSCF response
   Dagmar Lenk            : GEPOL surface, SMD, ORCA-2-JSON
   Dimitrios Liakos       : Extrapolation schemes; Compound Job, initial MDCI parallelization
   Dimitrios Manganas     : Further ROCIS development; embedding schemes. LFT, Crystal Embedding
   Dimitrios Pantazis     : SARC Basis sets
   Anastasios Papadopoulos: AUTO-CI, single reference methods and gradients
   Taras Petrenko         : pre 6.0 DFT Hessian and TD-DFT gradient, (ASA, deprecated), ECA, 1-Electron XAS/XES, NRVS
   Peter Pinski           : DLPNO-MP2, DLPNO-MP2 Gradient
   Christoph Reimann      : Effective Core Potentials
   Marius Retegan         : Local ZFS, SOC
   Christoph Riplinger    : Optimizer, TS searches, QM/MM, DLPNO-CCSD(T), (RO)-DLPNO pert. Triples
   Michael Roemelt        : Original ROCIS implementation
   Masaaki Saitow         : Open-shell DLPNO-CCSD energy and density
   Barbara Sandhoefer     : DKH picture change effects
   Kantharuban Sivalingam : CASSCF convergence/infrastructure, NEVPT2 and variants, FIC-MRCI
   Bernardo de Souza      : ESD, SOC TD-DFT
   Georgi Stoychev        : AutoAux, RI-MP2 NMR, DLPNO-MP2 response, X2C
   Van Anh Tran           : RI-MP2 g-tensors
   Willem Van den Heuvel  : Paramagnetic NMR
   Zikuan Wang            : NOTCH, Electric field optimization 
   Frank Wennmohs         : Technical directorship and infrastructure
   Hang Xu                : AUTO-CI-Response properties 


 We gratefully acknowledge several colleagues who have allowed us to
 interface, adapt or use parts of their codes:
   Stefan Grimme, W. Hujo, H. Kruse, P. Pracht,  : VdW corrections, initial TS optimization,
                  C. Bannwarth, S. Ehlert,         DFT functionals, gCP, sTDA/sTD-DF
                  L. Wittmann, M. Mueller
   Ed Valeev, F. Pavosevic, A. Kumar             : LibInt (2-el integral package), F12 methods
   Garnet Chan, S. Sharma, J. Yang, R. Olivares  : DMRG
   Ulf Ekstrom                                   : XCFun DFT Library
   Mihaly Kallay                                 : mrcc  (arbitrary order and MRCC methods)
   Frank Weinhold                                : gennbo (NPA and NBO analysis)
   Simon Mueller                                 : openCOSMO-RS
   Christopher J. Cramer and Donald G. Truhlar   : smd solvation model
   Lars Goerigk                                  : TD-DFT with DH, B97 family of functionals
   V. Asgeirsson, H. Jonsson                     : NEB implementation
   FAccTs GmbH                                   : IRC, NEB, NEB-TS, DLPNO-Multilevel, CI-OPT
                                                   MM, QMMM, 2- and 3-layer-ONIOM, Crystal-QMMM,
                                                   LR-CPCM, SF, NACMEs, symmetry and pop. for TD-DFT,
                                                   nearIR, NL-DFT gradient (VV10), updates on ESD,
                                                   ML-optimized integration grids, MBIS, APM,
                                                   GOAT, DOCKER, SOLVATOR, interface openCOSMO-RS
   S Lehtola, MJT Oliveira, MAL Marques          : LibXC Library
   Liviu Ungur et al                             : ANISO software


 Your calculation uses the libint2 library for the computation of 2-el integrals
 For citations please refer to: http://libint.valeyev.net

 Your ORCA version has been built with support for libXC version: 6.2.2
 For citations please refer to: https://libxc.gitlab.io

 This ORCA versions uses:
   CBLAS   interface :  Fast vector & matrix operations
   LAPACKE interface :  Fast linear algebra routines
   SCALAPACK package :  Parallel linear algebra routines
   Shared memory     :  Shared parallel matrices
   BLAS/LAPACK       :  OpenBLAS 0.3.27  USE64BITINT DYNAMIC_ARCH NO_AFFINITY SkylakeX SINGLE_THREADED
        Core in use  :  SkylakeX
   Copyright (c) 2011-2014, The OpenBLAS Project


Warning: RI is on but no J-basis has been assigned. Assigning Def2/J (nothing to worry about!)
================================================================================

----- Orbital basis set information -----
Your calculation utilizes the basis: 6-31G*
   H-He, Li-Ne : W. J. Hehre, R. Ditchfield and J.A. Pople, J. Chem. Phys. 56, 2257 (1972).
                 Note: He and Ne are unpublished basis sets taken from the Gaussian program.
                 Note: Li and B from J. D. Dill and J. A. Pople, J. Chem. Phys. 62, 2921 (1975).
   Na - Ar     : M. M. Francl, W. J. Pietro, W. J. Hehre, J. S. Binkley, M. S. Gordon, 
                 D. J. DeFrees and J. A. Pople, J. Chem. Phys. 77, 3654 (1982).
   K - Zn      : V. A. Rassolov, J. A. Pople, M. A. Ratner, and T. L. Windus, J. Chem. Phys. 109, 1223 (1998).

----- AuxJ basis set information -----
Your calculation utilizes the auxiliary basis: def2/J
   F. Weigend, Phys. Chem. Chem. Phys. 8, 1057 (2006).

================================================================================
                                        WARNINGS
                       Please study these warnings very carefully!
================================================================================


================================================================================
                                       INPUT FILE
================================================================================
NAME = /home/nmrbox/aojoawo/Documents/ERDOS/inputs/CHEMBL5270507.inp
|  1> ! B3LYP 6-31G* SP
|  2> 
|  3> * xyz 0 1
|  4> C 6.0082 0.1792 -0.8850
|  5> C 5.4390 0.0938 0.5250
|  6> N 4.0436 0.5136 0.5294
|  7> N 3.6403 1.7613 0.6978
|  8> N 2.3224 1.8029 0.5871
|  9> C 1.9548 0.5296 0.3360
| 10> C 0.5657 0.0993 0.1311
| 11> S -0.7791 1.1074 0.1809
| 12> C -1.8724 -0.1394 -0.1391
| 13> C -3.3421 0.0061 -0.2514
| 14> C -4.1445 -1.1178 -0.5228
| 15> C -5.5326 -0.9883 -0.6302
| 16> C -6.1347 0.2612 -0.4685
| 17> C -5.3498 1.3847 -0.1988
| 18> F -5.9357 2.5973 -0.0420
| 19> C -3.9607 1.2607 -0.0903
| 20> N -1.2266 -1.3205 -0.2847
| 21> C 0.1194 -1.1919 -0.1361
| 22> O 0.9752 -2.2830 -0.2465
| 23> N 3.0225 -0.2906 0.2893
| 24> H 5.4363 -0.4840 -1.5683
| 25> H 7.0710 -0.1421 -0.8790
| 26> H 5.9509 1.2242 -1.2571
| 27> H 5.5159 -0.9518 0.8938
| 28> H 6.0286 0.7471 1.2039
| 29> H -3.7007 -2.0970 -0.6521
| 30> H -6.1419 -1.8581 -0.8392
| 31> H -7.2096 0.3577 -0.5523
| 32> H -3.3754 2.1464 0.1191
| 33> H 0.6119 -3.2079 -0.4421
| 34> *
| 35> 
| 36>                          ****END OF INPUT****
================================================================================

                       ****************************
                       * Single Point Calculation *
                       ****************************

---------------------------------
CARTESIAN COORDINATES (ANGSTROEM)
---------------------------------
  C      6.008200    0.179200   -0.885000
  C      5.439000    0.093800    0.525000
  N      4.043600    0.513600    0.529400
  N      3.640300    1.761300    0.697800
  N      2.322400    1.802900    0.587100
  C      1.954800    0.529600    0.336000
  C      0.565700    0.099300    0.131100
  S     -0.779100    1.107400    0.180900
  C     -1.872400   -0.139400   -0.139100
  C     -3.342100    0.006100   -0.251400
  C     -4.144500   -1.117800   -0.522800
  C     -5.532600   -0.988300   -0.630200
  C     -6.134700    0.261200   -0.468500
  C     -5.349800    1.384700   -0.198800
  F     -5.935700    2.597300   -0.042000
  C     -3.960700    1.260700   -0.090300
  N     -1.226600   -1.320500   -0.284700
  C      0.119400   -1.191900   -0.136100
  O      0.975200   -2.283000   -0.246500
  N      3.022500   -0.290600    0.289300
  H      5.436300   -0.484000   -1.568300
  H      7.071000   -0.142100   -0.879000
  H      5.950900    1.224200   -1.257100
  H      5.515900   -0.951800    0.893800
  H      6.028600    0.747100    1.203900
  H     -3.700700   -2.097000   -0.652100
  H     -6.141900   -1.858100   -0.839200
  H     -7.209600    0.357700   -0.552300
  H     -3.375400    2.146400    0.119100
  H      0.611900   -3.207900   -0.442100

----------------------------
CARTESIAN COORDINATES (A.U.)
----------------------------
  NO LB      ZA    FRAG     MASS         X           Y           Z
   0 C     6.0000    0    12.011   11.353853    0.338639   -1.672408
   1 C     6.0000    0    12.011   10.278220    0.177256    0.992106
   2 N     7.0000    0    14.007    7.641297    0.970563    1.000421
   3 N     7.0000    0    14.007    6.879170    3.328375    1.318651
   4 N     7.0000    0    14.007    4.388700    3.406987    1.109458
   5 C     6.0000    0    12.011    3.694037    1.000799    0.634948
   6 C     6.0000    0    12.011    1.069018    0.187650    0.247743
   7 S    16.0000    0    32.060   -1.472286    2.092683    0.341851
   8 C     6.0000    0    12.011   -3.538323   -0.263428   -0.262861
   9 C     6.0000    0    12.011   -6.315654    0.011527   -0.475077
  10 C     6.0000    0    12.011   -7.831970   -2.112336   -0.987949
  11 C     6.0000    0    12.011  -10.455099   -1.867616   -1.190905
  12 C     6.0000    0    12.011  -11.592903    0.493596   -0.885337
  13 C     6.0000    0    12.011  -10.109657    2.616704   -0.375678
  14 F     9.0000    0    18.998  -11.216847    4.908186   -0.079368
  15 C     6.0000    0    12.011   -7.484638    2.382378   -0.170642
  16 N     7.0000    0    14.007   -2.317938   -2.495383   -0.538005
  17 C     6.0000    0    12.011    0.225633   -2.252365   -0.257192
  18 O     8.0000    0    15.999    1.842861   -4.314245   -0.465817
  19 N     7.0000    0    14.007    5.711697   -0.549154    0.546698
  20 H     1.0000    0     1.008   10.273118   -0.914627   -2.963657
  21 H     1.0000    0     1.008   13.362253   -0.268530   -1.661069
  22 H     1.0000    0     1.008   11.245571    2.313403   -2.375575
  23 H     1.0000    0     1.008   10.423540   -1.798641    1.689037
  24 H     1.0000    0     1.008   11.392403    1.411814    2.275041
  25 H     1.0000    0     1.008   -6.993310   -3.962756   -1.232290
  26 H     1.0000    0     1.008  -11.606509   -3.511300   -1.585858
  27 H     1.0000    0     1.008  -13.624170    0.675955   -1.043696
  28 H     1.0000    0     1.008   -6.378582    4.056108    0.225066
  29 H     1.0000    0     1.008    1.156323   -6.062052   -0.835448

--------------------------------
INTERNAL COORDINATES (ANGSTROEM)
--------------------------------
 C      0   0   0     0.000000000000     0.00000000     0.00000000
 C      1   0   0     1.522951673560     0.00000000     0.00000000
 N      2   1   0     1.457186522035   110.15380340     0.00000000
 N      3   2   1     1.322030536712   124.36080367   271.14118166
 N      4   3   2     1.323195170789   108.83566550   177.18639775
 C      5   4   3     1.348878741770   104.91160182   359.57790922
 C      6   5   4     1.468584662183   124.07872572   180.32161214
 S      7   6   5     1.681437685435   125.21898568   359.74418601
 C      8   7   6     1.688850239068    93.98680366   179.98183668
 C      9   8   7     1.481148078350   125.74677450   179.99566084
 C     10   9   8     1.407357427948   120.12658097   179.99538409
 C     11  10   9     1.398258423897   120.45458430   179.99776406
 C     12  11  10     1.396395914488   120.13418734     0.00000000
 C     13  12  11     1.396802903061   119.98611153     0.00000000
 F     14  13  12     1.355825877464   119.92531705   180.00112319
 C     14  13  12     1.398837753279   120.11189400     0.00000000
 N      9   8   7     1.353977182230   110.83012434     0.00000000
 C     17   9   8     1.360270531916   112.19406527     0.00000000
 O     18  17   9     1.391071892463   121.73098609   180.00901101
 N      3   2   1     1.321752949685   124.32914810    87.06969083
 H      1   2   3     1.110766735188   110.09784899   299.75733033
 H      1   2   3     1.110321363390   109.66510054   179.99260998
 H      1   2   3     1.110750512041   110.09810470    60.22371204
 H      2   1   3     1.111398402914   109.51893479   120.67502968
 H      2   1   3     1.111455919054   109.52959523   239.27954788
 H     11  10   9     1.082824810392   120.76484201     0.00000000
 H     12  11  10     1.082349079549   119.95083077   179.99671243
 H     13  12  11     1.082471570065   119.93192489   180.00161675
 H     16  14  13     1.082076217279   118.65873015   179.99529131
 H     19  18  17     1.012761699513   120.72720977     0.00000000

---------------------------
INTERNAL COORDINATES (A.U.)
---------------------------
 C      0   0   0     0.000000000000     0.00000000     0.00000000
 C      1   0   0     2.877961578226     0.00000000     0.00000000
 N      2   1   0     2.753683452687   110.15380340     0.00000000
 N      3   2   1     2.498275655067   124.36080367   271.14118166
 N      4   3   2     2.500476494519   108.83566550   177.18639775
 C      5   4   3     2.549011409814   104.91160182   359.57790922
 C      6   5   4     2.775222816004   124.07872572   180.32161214
 S      7   6   5     3.177456736726   125.21898568   359.74418601
 C      8   7   6     3.191464433046    93.98680366   179.98183668
 C      9   8   7     2.798964231865   125.74677450   179.99566084
 C     10   9   8     2.659520111361   120.12658097   179.99538409
 C     11  10   9     2.642325485614   120.45458430   179.99776406
 C     12  11  10     2.638805852910   120.13418734     0.00000000
 C     13  12  11     2.639574949852   119.98611153     0.00000000
 F     14  13  12     2.562139593690   119.92531705   180.00112319
 C     14  13  12     2.643420259488   120.11189400     0.00000000
 N      9   8   7     2.558646065993   110.83012434     0.00000000
 C     17   9   8     2.570538773365   112.19406527     0.00000000
 O     18  17   9     2.628744909350   121.73098609   180.00901101
 N      3   2   1     2.497751091607   124.32914810    87.06969083
 H      1   2   3     2.099044928175   110.09784899   299.75733033
 H      1   2   3     2.098203297449   109.66510054   179.99260998
 H      1   2   3     2.099014270871   110.09810470    60.22371204
 H      2   1   3     2.100238607185   109.51893479   120.67502968
 H      2   1   3     2.100347296938   109.52959523   239.27954788
 H     11  10   9     2.046242342656   120.76484201     0.00000000
 H     12  11  10     2.045343341649   119.95083077   179.99671243
 H     13  12  11     2.045574815179   119.93192489   180.00161675
 H     16  14  13     2.044827706686   118.65873015   179.99529131
 H     19  18  17     1.913842251004   120.72720977     0.00000000

---------------------
BASIS SET INFORMATION
---------------------
There are 6 groups of distinct atoms

 Group   1 Type C   : 10s4p1d contracted to 3s2p1d pattern {631/31/1}
 Group   2 Type N   : 10s4p1d contracted to 3s2p1d pattern {631/31/1}
 Group   3 Type S   : 16s10p1d contracted to 4s3p1d pattern {6631/631/1}
 Group   4 Type F   : 10s4p1d contracted to 3s2p1d pattern {631/31/1}
 Group   5 Type O   : 10s4p1d contracted to 3s2p1d pattern {631/31/1}
 Group   6 Type H   : 4s contracted to 2s pattern {31}

Atom   0C    basis set group =>   1
Atom   1C    basis set group =>   1
Atom   2N    basis set group =>   2
Atom   3N    basis set group =>   2
Atom   4N    basis set group =>   2
Atom   5C    basis set group =>   1
Atom   6C    basis set group =>   1
Atom   7S    basis set group =>   3
Atom   8C    basis set group =>   1
Atom   9C    basis set group =>   1
Atom  10C    basis set group =>   1
Atom  11C    basis set group =>   1
Atom  12C    basis set group =>   1
Atom  13C    basis set group =>   1
Atom  14F    basis set group =>   4
Atom  15C    basis set group =>   1
Atom  16N    basis set group =>   2
Atom  17C    basis set group =>   1
Atom  18O    basis set group =>   5
Atom  19N    basis set group =>   2
Atom  20H    basis set group =>   6
Atom  21H    basis set group =>   6
Atom  22H    basis set group =>   6
Atom  23H    basis set group =>   6
Atom  24H    basis set group =>   6
Atom  25H    basis set group =>   6
Atom  26H    basis set group =>   6
Atom  27H    basis set group =>   6
Atom  28H    basis set group =>   6
Atom  29H    basis set group =>   6
---------------------------------
AUXILIARY/J BASIS SET INFORMATION
---------------------------------
There are 6 groups of distinct atoms

 Group   1 Type C   : 12s5p4d2f1g contracted to 6s4p3d1f1g pattern {711111/2111/211/2/1}
 Group   2 Type N   : 12s5p4d2f1g contracted to 6s4p3d1f1g pattern {711111/2111/211/2/1}
 Group   3 Type S   : 14s5p5d2f1g contracted to 8s4p3d1f1g pattern {71111111/2111/311/2/1}
 Group   4 Type F   : 12s5p4d2f1g contracted to 6s4p3d1f1g pattern {711111/2111/211/2/1}
 Group   5 Type O   : 12s5p4d2f1g contracted to 6s4p3d1f1g pattern {711111/2111/211/2/1}
 Group   6 Type H   : 5s2p1d contracted to 3s1p1d pattern {311/2/1}

Atom   0C    basis set group =>   1
Atom   1C    basis set group =>   1
Atom   2N    basis set group =>   2
Atom   3N    basis set group =>   2
Atom   4N    basis set group =>   2
Atom   5C    basis set group =>   1
Atom   6C    basis set group =>   1
Atom   7S    basis set group =>   3
Atom   8C    basis set group =>   1
Atom   9C    basis set group =>   1
Atom  10C    basis set group =>   1
Atom  11C    basis set group =>   1
Atom  12C    basis set group =>   1
Atom  13C    basis set group =>   1
Atom  14F    basis set group =>   4
Atom  15C    basis set group =>   1
Atom  16N    basis set group =>   2
Atom  17C    basis set group =>   1
Atom  18O    basis set group =>   5
Atom  19N    basis set group =>   2
Atom  20H    basis set group =>   6
Atom  21H    basis set group =>   6
Atom  22H    basis set group =>   6
Atom  23H    basis set group =>   6
Atom  24H    basis set group =>   6
Atom  25H    basis set group =>   6
Atom  26H    basis set group =>   6
Atom  27H    basis set group =>   6
Atom  28H    basis set group =>   6
Atom  29H    basis set group =>   6
------------------------------------------------------------------------------
                             ORCA STARTUP CALCULATIONS
                           -- RI-GTO INTEGRALS CHOSEN --
------------------------------------------------------------------------------
------------------------------------------------------------------------------
                   ___                                                        
                  /   \      - P O W E R E D   B Y -                         
                 /     \                                                     
                 |  |  |   _    _      __       _____    __    __             
                 |  |  |  | |  | |    /  \     |  _  \  |  |  /  |          
                  \  \/   | |  | |   /    \    | | | |  |  | /  /          
                 / \  \   | |__| |  /  /\  \   | |_| |  |  |/  /          
                |  |  |   |  __  | /  /__\  \  |    /   |      \           
                |  |  |   | |  | | |   __   |  |    \   |  |\   \          
                \     /   | |  | | |  |  |  |  | |\  \  |  | \   \       
                 \___/    |_|  |_| |__|  |__|  |_| \__\ |__|  \__/        
                                                                              
                      - O R C A' S   B I G   F R I E N D -                    
                                      &                                       
                       - I N T E G R A L  F E E D E R -                       
                                                                              
 v1 FN, 2020, v2 2021, v3 2022-2024                                           
------------------------------------------------------------------------------


----------------------
SHARK INTEGRAL PACKAGE
----------------------

Number of atoms                             ...     30
Number of basis functions                   ...    304
Number of shells                            ...    142
Maximum angular momentum                    ...      2
Integral batch strategy                     ... SHARK/LIBINT Hybrid
RI-J (if used) integral strategy            ... SPLIT-RIJ (Revised 2003 algorithm where possible)
Printlevel                                  ...      1
Contraction scheme used                     ... SEGMENTED contraction
Prescreening option                         ... SCHWARTZ
   Thresh                                   ... 1.000e-10
   Tcut                                     ... 1.000e-11
   Tpresel                                  ... 1.000e-11 
Coulomb Range Separation                    ... NOT USED
Exchange Range Separation                   ... NOT USED
Multipole approximations                    ... NOT USED
Finite Nucleus Model                        ... NOT USED
CABS basis                                  ... NOT available
Auxiliary Coulomb fitting basis             ... AVAILABLE
   # of basis functions in Aux-J            ...   1092
   # of shells in Aux-J                     ...    352
   Maximum angular momentum in Aux-J        ...      4
Auxiliary J/K fitting basis                 ... NOT available
Auxiliary Correlation fitting basis         ... NOT available
Auxiliary 'external' fitting basis          ... NOT available

Checking pre-screening integrals            ... done (  0.0 sec) Dimension = 142
Check shell pair data                       ... done (  0.0 sec)
Shell pair information
Shell pair cut-off parameter TPreSel        ...   1.0e-11
Total number of shell pairs                 ...     10153
Shell pairs after pre-screening             ...      6286
Total number of primitive shell pairs       ...     62608
Primitive shell pairs kept                  ...     22076
          la=0 lb=0:   1873 shell pairs
          la=1 lb=0:   2198 shell pairs
          la=1 lb=1:    660 shell pairs
          la=2 lb=0:    891 shell pairs
          la=2 lb=1:    546 shell pairs
          la=2 lb=2:    118 shell pairs

Calculating one electron integrals          ... done (  0.1 sec)
Calculating RI/J V-Matrix + Cholesky decomp.... done (  0.2 sec)
Calculating Nuclear repulsion               ... done (  0.0 sec) ENN=   1550.831347614870 Eh

Diagonalization of the overlap matrix:
Smallest eigenvalue                        ... 4.971e-04
Time for diagonalization                   ...    0.014 sec
Threshold for overlap eigenvalues          ... 1.000e-07
Number of eigenvalues below threshold      ... 0
Time for construction of square roots      ...    0.017 sec
Total time needed                          ...    0.039 sec

-------------------
DFT GRID GENERATION
-------------------

General Integration Accuracy     IntAcc      ... 4.388
Radial Grid Type                 RadialGrid  ... OptM3 with GC (2021)
Angular Grid (max. ang.)         AngularGrid ... 4 (Lebedev-302)
Angular grid pruning method      GridPruning ... 4 (adaptive)
Weight generation scheme         WeightScheme... mBecke (2022)
Basis function cutoff            BFCut       ... 1.0000e-10
Integration weight cutoff        WCut        ... 1.0000e-14
Partially contracted basis set               ... off
Rotationally invariant grid construction     ... off
Angular grids for H and He will be reduced by one unit

Total number of grid points                  ...   153648
Total number of batches                      ...     2414
Average number of points per batch           ...       63
Average number of grid points per atom       ...     5122

--------------------
COSX GRID GENERATION
--------------------

GRIDX 1
-------
General Integration Accuracy     IntAcc      ... 3.816
Radial Grid Type                 RadialGrid  ... OptM3 with GC (2021)
Angular Grid (max. ang.)         AngularGrid ... 1 (Lebedev-50)
Angular grid pruning method      GridPruning ... 4 (adaptive)
Weight generation scheme         WeightScheme... mBecke (2022)
Basis function cutoff            BFCut       ... 1.0000e-10
Integration weight cutoff        WCut        ... 1.0000e-14
Partially contracted basis set               ... on
Rotationally invariant grid construction     ... off
Angular grids for H and He will be reduced by one unit

Total number of grid points                  ...    20544
Total number of batches                      ...      177
Average number of points per batch           ...      116
Average number of grid points per atom       ...      685
UseSFitting                                  ... on

GRIDX 2
-------
General Integration Accuracy     IntAcc      ... 4.020
Radial Grid Type                 RadialGrid  ... OptM3 with GC (2021)
Angular Grid (max. ang.)         AngularGrid ... 2 (Lebedev-110)
Angular grid pruning method      GridPruning ... 4 (adaptive)
Weight generation scheme         WeightScheme... mBecke (2022)
Basis function cutoff            BFCut       ... 1.0000e-10
Integration weight cutoff        WCut        ... 1.0000e-14
Partially contracted basis set               ... on
Rotationally invariant grid construction     ... off
Angular grids for H and He will be reduced by one unit

Total number of grid points                  ...    43418
Total number of batches                      ...      353
Average number of points per batch           ...      122
Average number of grid points per atom       ...     1447
UseSFitting                                  ... on

GRIDX 3
-------
General Integration Accuracy     IntAcc      ... 4.338
Radial Grid Type                 RadialGrid  ... OptM3 with GC (2021)
Angular Grid (max. ang.)         AngularGrid ... 3 (Lebedev-194)
Angular grid pruning method      GridPruning ... 4 (adaptive)
Weight generation scheme         WeightScheme... mBecke (2022)
Basis function cutoff            BFCut       ... 1.0000e-10
Integration weight cutoff        WCut        ... 1.0000e-14
Partially contracted basis set               ... on
Rotationally invariant grid construction     ... off
Angular grids for H and He will be reduced by one unit

Total number of grid points                  ...    96047
Total number of batches                      ...      766
Average number of points per batch           ...      125
Average number of grid points per atom       ...     3202
UseSFitting                                  ... on
Initializing property integral containers    ... done (  0.0 sec)

SHARK setup successfully completed in   5.9 seconds

Maximum memory used throughout the entire STARTUP-calculation: 62.8 MB
-------------------------------------------------------------------------------
                                 ORCA GUESS
                   Start orbitals & Density for SCF / CASSCF
-------------------------------------------------------------------------------

------------
SCF SETTINGS
------------
Hamiltonian:
 Density Functional     Method          .... DFT(GTOs)
 Exchange Functional    Exchange        .... B88
   X-Alpha parameter    XAlpha          ....  0.666667
   Becke's b parameter  XBeta           ....  0.004200
 Correlation Functional Correlation     .... LYP
 LDA part of GGA corr.  LDAOpt          .... VWN-5
 Gradients option       PostSCFGGA      .... off
 Hybrid DFT is turned on
   Fraction HF Exchange ScalHFX         ....  0.200000
   Scaling of DF-GGA-X  ScalDFX         ....  0.720000
   Scaling of DF-GGA-C  ScalDFC         ....  0.810000
   Scaling of DF-LDA-C  ScalLDAC        ....  1.000000
   Perturbative correction              ....  0.000000
   NL short-range parameter             ....  4.800000
 RI-approximation to the Coulomb term is turned on
   Number of AuxJ basis functions       .... 1092
   RIJ-COSX (HFX calculated with COS-X)).... on


General Settings:
 Integral files         IntName         .... /home/nmrbox/aojoawo/Documents/ERDOS/inputs/CHEMBL5270507
 Hartree-Fock type      HFTyp           .... RHF
 Total Charge           Charge          ....    0
 Multiplicity           Mult            ....    1
 Number of Electrons    NEL             ....  150
 Basis Dimension        Dim             ....  304
 Nuclear Repulsion      ENuc            ....   1550.8313476149 Eh

Convergence Acceleration:
 AO-DIIS                CNVDIIS         .... on
   Start iteration      DIISMaxIt       ....    12
   Startup error        DIISStart       ....  0.200000
   # of expansion vecs  DIISMaxEq       ....     5
   Bias factor          DIISBfac        ....   1.050
   Max. coefficient     DIISMaxC        ....  10.000
 MO-DIIS                CNVKDIIS        .... off
 Trust-Rad. Augm. Hess. CNVTRAH         .... auto
   Auto Start mean grad. ratio tolernc. ....  1.125000
   Auto Start start iteration           ....    50
   Auto Start num. interpolation iter.  ....    10
   Max. Number of Micro iterations      ....    24
   Max. Number of Macro iterations      .... Maxiter - #DIIS iter
   Number of Davidson start vectors     ....     2
   Converg. threshold    (grad. norm)   ....   5.000e-05
   Grad. Scal. Fac. for Micro threshold ....   0.100
   Minimum threshold for Micro iter.    ....   1.000e-02
   NR start threshold (gradient norm)   ....   1.000e-04
   Initial trust radius                 ....   0.400
   Minimum AH scaling param. (alpha)    ....   1.000
   Maximum AH scaling param. (alpha)    .... 1000.000
   Quad. conv. algorithm                .... NR
   White noise on init. David. guess    .... on
   Maximum white noise                  ....   0.010
   Pseudo random numbers                .... off
   Inactive MOs                         .... canonical
   Orbital update algorithm             .... Taylor
   Preconditioner                       .... Diag
   Full preconditioner red. dimension   ....   250
 SOSCF                  CNVSOSCF        .... on
   Start iteration      SOSCFMaxIt      ....   150
   Startup grad/error   SOSCFStart      ....  0.003300
   Hessian update       SOSCFHessUp     .... L-BFGS
 Level Shifting         CNVShift        .... on
   Level shift para.    LevelShift      ....    0.2500
   Turn off err/grad.   ShiftErr        ....    0.0010
 Zerner damping         CNVZerner       .... off
 Static damping         CNVDamp         .... on
   Fraction old density DampFac         ....    0.7000
   Max. Damping (<1)    DampMax         ....    0.9800
   Min. Damping (>=0)   DampMin         ....    0.0000
   Turn off err/grad.   DampErr         ....    0.1000

SCF Procedure:
 Maximum # iterations   MaxIter         ....   125
 SCF integral mode      SCFMode         .... Direct
   Integral package                     .... SHARK and LIBINT hybrid scheme
 Reset frequency        DirectResetFreq ....    20
 Integral Threshold     Thresh          ....  1.000e-10 Eh
 Primitive CutOff       TCut            ....  1.000e-11 Eh

Convergence Tolerance:
 Convergence Check Mode ConvCheckMode   .... Total+1el-Energy
 Convergence forced     ConvForced      .... 0
 Energy Change          TolE            ....  1.000e-06 Eh
 1-El. energy change                    ....  1.000e-03 Eh
 Orbital Gradient       TolG            ....  5.000e-05
 Orbital Rotation angle TolX            ....  5.000e-05
 DIIS Error             TolErr          ....  1.000e-06

------------------------------
INITIAL GUESS: MODEL POTENTIAL
------------------------------
Loading Hartree-Fock densities                     ... done
Calculating cut-offs                               ... done
Initializing the effective Hamiltonian             ... done
Setting up the integral package (SHARK)            ... done
Starting the Coulomb interaction                   ... done (   1.0 sec)
Making the grid                                    ... done (   0.7 sec)
Mapping shells                                     ... done
Starting the XC term evaluation                    ... done (   0.5 sec)
  promolecular density results
     # of electrons  =    149.988155280
     EX              =   -140.816031164
     EC              =     -5.321854448
     EX+EC           =   -146.137885612
Transforming the Hamiltonian                       ... done (   0.0 sec)
Diagonalizing the Hamiltonian                      ... done (   0.0 sec)
Back transforming the eigenvectors                 ... done (   0.0 sec)
Now organizing SCF variables                       ... done
                      ------------------
                      INITIAL GUESS DONE (   2.3 sec)
                      ------------------
             **** ENERGY FILE WAS UPDATED (/home/nmrbox/aojoawo/Documents/ERDOS/inputs/CHEMBL5270507.en.tmp) ****
Finished Guess after   2.4 sec
Maximum memory used throughout the entire GUESS-calculation: 33.1 MB

-------------------------------------------------------------------------------------------
                                      ORCA LEAN-SCF
                              memory conserving SCF solver
-------------------------------------------------------------------------------------------

----------------------------------------D-I-I-S--------------------------------------------
Iteration    Energy (Eh)           Delta-E    RMSDP     MaxDP     DIISErr   Damp  Time(sec)
-------------------------------------------------------------------------------------------
               ***  Starting incremental Fock matrix formation  ***
    1    -1309.2464794037857700     0.00e+00  2.40e-03  8.97e-02  2.09e-01  0.700  24.6
    2    -1309.4441109323104229    -1.98e-01  1.64e-03  5.83e-02  9.39e-02  0.700  11.7
                               ***Turning on AO-DIIS***
    3    -1309.5190408705627760    -7.49e-02  7.04e-04  2.19e-02  3.25e-02  0.700  11.5
    4    -1309.5642074735994811    -4.52e-02  1.28e-03  5.86e-02  1.63e-02  0.000  10.5
    5    -1309.6644008808827948    -1.00e-01  2.64e-04  8.63e-03  6.91e-03  0.000  11.3
                              *** Initializing SOSCF ***
---------------------------------------S-O-S-C-F--------------------------------------
Iteration    Energy (Eh)           Delta-E    RMSDP     MaxDP     MaxGrad    Time(sec)
--------------------------------------------------------------------------------------
    6    -1309.6650854687979972    -6.85e-04  8.87e-05  2.57e-03  2.43e-03     9.6
               *** Restarting incremental Fock matrix formation ***
    7    -1309.6651487563715364    -6.33e-05  6.59e-05  2.05e-03  4.58e-04    24.3
    8    -1309.6651335121052853     1.52e-05  3.80e-05  1.58e-03  9.90e-04    15.5
    9    -1309.6651596463741498    -2.61e-05  1.78e-05  6.28e-04  1.36e-04    13.9
   10    -1309.6651584917242417     1.15e-06  1.02e-05  4.59e-04  2.19e-04    12.4
   11    -1309.6651602787849242    -1.79e-06  3.42e-06  1.32e-04  2.25e-05    11.4
   12    -1309.6651602581534917     2.06e-08  2.10e-06  8.56e-05  4.47e-05     9.5
                 **** Energy Check signals convergence ****

               *****************************************************
               *                     SUCCESS                       *
               *           SCF CONVERGED AFTER  12 CYCLES          *
               *****************************************************

Recomputing exchange energy using gridx3       ... done (   43.879 sec)
Old exchange energy                            :    -28.412296326 Eh
New exchange energy                            :    -28.412351338 Eh
Exchange energy change after final integration :     -0.000055013 Eh
Total energy after final integration           :  -1309.665215271 Eh
             **** ENERGY FILE WAS UPDATED (/home/nmrbox/aojoawo/Documents/ERDOS/inputs/CHEMBL5270507.en.tmp) ****

----------------
TOTAL SCF ENERGY
----------------

Total Energy       :      -1309.66521527083660 Eh          -35637.80230 eV

Components:
Nuclear Repulsion  :       1550.83134761486986 Eh           42200.26639 eV
Electronic Energy  :      -2860.49650787302335 Eh          -77838.06719 eV
One Electron Energy:      -4873.62924433766057 Eh         -132618.19392 eV
Two Electron Energy:       2013.13273646463722 Eh           54780.12673 eV

Virial components:
Potential Energy   :      -2613.00349299850086 Eh          -71103.43987 eV
Kinetic Energy     :       1303.33827772766426 Eh           35465.63758 eV
Virial Ratio       :          2.00485440936654

DFT components:
N(Alpha)           :       75.000015466126 electrons
N(Beta)            :       75.000015466126 electrons
N(Total)           :      150.000030932253 electrons
E(X)               :     -112.973123103782 Eh       
E(C)               :       -6.248322415913 Eh       
E(XC)              :     -119.221445519695 Eh       

---------------
SCF CONVERGENCE
---------------

  Last Energy change         ...   -2.0631e-08  Tolerance :   1.0000e-06
  Last MAX-Density change    ...    8.5598e-05  Tolerance :   1.0000e-05
  Last RMS-Density change    ...    2.1047e-06  Tolerance :   1.0000e-06
  Last DIIS Error            ...    2.4294e-03  Tolerance :   1.0000e-06
  Last Orbital Gradient      ...    4.4721e-05  Tolerance :   5.0000e-05
  Last Orbital Rotation      ...    6.5547e-05  Tolerance :   5.0000e-05


----------------
ORBITAL ENERGIES
----------------

  NO   OCC          E(Eh)            E(eV) 
   0   2.0000     -88.904851     -2419.2240 
   1   2.0000     -24.702502      -672.1893 
   2   2.0000     -19.174990      -521.7780 
   3   2.0000     -14.455071      -393.3425 
   4   2.0000     -14.393308      -391.6618 
   5   2.0000     -14.363964      -390.8633 
   6   2.0000     -14.356510      -390.6605 
   7   2.0000     -14.335546      -390.0901 
   8   2.0000     -10.284480      -279.8549 
   9   2.0000     -10.276230      -279.6304 
  10   2.0000     -10.259270      -279.1689 
  11   2.0000     -10.252409      -278.9822 
  12   2.0000     -10.248358      -278.8720 
  13   2.0000     -10.222960      -278.1809 
  14   2.0000     -10.219321      -278.0819 
  15   2.0000     -10.199820      -277.5512 
  16   2.0000     -10.197821      -277.4968 
  17   2.0000     -10.195649      -277.4377 
  18   2.0000     -10.192545      -277.3533 
  19   2.0000     -10.192069      -277.3403 
  20   2.0000      -7.981421      -217.1855 
  21   2.0000      -5.944405      -161.7555 
  22   2.0000      -5.940442      -161.6476 
  23   2.0000      -5.938450      -161.5934 
  24   2.0000      -1.215812       -33.0839 
  25   2.0000      -1.142472       -31.0882 
  26   2.0000      -1.044840       -28.4315 
  27   2.0000      -0.962867       -26.2009 
  28   2.0000      -0.945831       -25.7374 
  29   2.0000      -0.892510       -24.2864 
  30   2.0000      -0.867434       -23.6041 
  31   2.0000      -0.819734       -22.3061 
  32   2.0000      -0.790885       -21.5211 
  33   2.0000      -0.782432       -21.2910 
  34   2.0000      -0.753628       -20.5073 
  35   2.0000      -0.732896       -19.9431 
  36   2.0000      -0.684985       -18.6394 
  37   2.0000      -0.665505       -18.1093 
  38   2.0000      -0.637653       -17.3514 
  39   2.0000      -0.622161       -16.9299 
  40   2.0000      -0.608959       -16.5706 
  41   2.0000      -0.583656       -15.8821 
  42   2.0000      -0.580827       -15.8051 
  43   2.0000      -0.537883       -14.6365 
  44   2.0000      -0.531210       -14.4549 
  45   2.0000      -0.521719       -14.1967 
  46   2.0000      -0.500938       -13.6312 
  47   2.0000      -0.498088       -13.5537 
  48   2.0000      -0.487163       -13.2564 
  49   2.0000      -0.472462       -12.8564 
  50   2.0000      -0.464471       -12.6389 
  51   2.0000      -0.458826       -12.4853 
  52   2.0000      -0.449074       -12.2199 
  53   2.0000      -0.441294       -12.0082 
  54   2.0000      -0.432553       -11.7704 
  55   2.0000      -0.412540       -11.2258 
  56   2.0000      -0.398423       -10.8416 
  57   2.0000      -0.393545       -10.7089 
  58   2.0000      -0.383031       -10.4228 
  59   2.0000      -0.380239       -10.3468 
  60   2.0000      -0.376885       -10.2556 
  61   2.0000      -0.376745       -10.2518 
  62   2.0000      -0.370842       -10.0911 
  63   2.0000      -0.355163        -9.6645 
  64   2.0000      -0.352580        -9.5942 
  65   2.0000      -0.348485        -9.4827 
  66   2.0000      -0.320184        -8.7126 
  67   2.0000      -0.307113        -8.3570 
  68   2.0000      -0.292665        -7.9638 
  69   2.0000      -0.286070        -7.7844 
  70   2.0000      -0.278594        -7.5809 
  71   2.0000      -0.273215        -7.4346 
  72   2.0000      -0.267988        -7.2923 
  73   2.0000      -0.249733        -6.7956 
  74   2.0000      -0.208603        -5.6764 
  75   0.0000      -0.063496        -1.7278 
  76   0.0000      -0.017605        -0.4791 
  77   0.0000      -0.006816        -0.1855 
  78   0.0000       0.008503         0.2314 
  79   0.0000       0.023658         0.6438 
  80   0.0000       0.049441         1.3454 
  81   0.0000       0.070678         1.9232 
  82   0.0000       0.080933         2.2023 
  83   0.0000       0.091688         2.4949 
  84   0.0000       0.102251         2.7824 
  85   0.0000       0.108773         2.9599 
*Only the first 10 virtual orbitals were printed.

                    ********************************
                    * MULLIKEN POPULATION ANALYSIS *
                    ********************************

-----------------------
MULLIKEN ATOMIC CHARGES
-----------------------
   0 C :   -0.445936
   1 C :   -0.143347
   2 N :   -0.029614
   3 N :   -0.066662
   4 N :   -0.325460
   5 C :    0.409268
   6 C :   -0.221497
   7 S :    0.307202
   8 C :   -0.023197
   9 C :    0.157982
  10 C :   -0.160306
  11 C :   -0.116626
  12 C :   -0.201417
  13 C :    0.412078
  14 F :   -0.315531
  15 C :   -0.280879
  16 N :   -0.428244
  17 C :    0.489035
  18 O :   -0.635577
  19 N :   -0.299885
  20 H :    0.175042
  21 H :    0.156480
  22 H :    0.173643
  23 H :    0.188518
  24 H :    0.187931
  25 H :    0.158836
  26 H :    0.144405
  27 H :    0.147744
  28 H :    0.162481
  29 H :    0.423534
Sum of atomic charges:   -0.0000000

--------------------------------
MULLIKEN REDUCED ORBITAL CHARGES
--------------------------------
  0 C s       :     3.312437  s :     3.312437
      pz      :     0.952755  p :     3.100033
      px      :     1.051437
      py      :     1.095840
      dz2     :     0.007510  d :     0.033466
      dxz     :     0.005380
      dyz     :     0.007812
      dx2y2   :     0.008629
      dxy     :     0.004135

  1 C s       :     3.224676  s :     3.224676
      pz      :     1.018975  p :     2.866702
      px      :     0.773689
      py      :     1.074038
      dz2     :     0.009638  d :     0.051968
      dxz     :     0.011534
      dyz     :     0.009340
      dx2y2   :     0.014008
      dxy     :     0.007448

  2 N s       :     3.430636  s :     3.430636
      pz      :     1.411001  p :     3.517266
      px      :     1.081034
      py      :     1.025230
      dz2     :     0.006105  d :     0.081712
      dxz     :     0.010368
      dyz     :     0.014332
      dx2y2   :     0.026980
      dxy     :     0.023927

  3 N s       :     3.667708  s :     3.667708
      pz      :     1.146550  p :     3.329160
      px      :     1.076155
      py      :     1.106455
      dz2     :     0.007886  d :     0.069795
      dxz     :     0.012045
      dyz     :     0.010772
      dx2y2   :     0.023562
      dxy     :     0.015529

  4 N s       :     3.734848  s :     3.734848
      pz      :     1.169824  p :     3.536478
      px      :     1.010179
      py      :     1.356475
      dz2     :     0.006437  d :     0.054135
      dxz     :     0.009250
      dyz     :     0.007818
      dx2y2   :     0.019343
      dxy     :     0.011287

  5 C s       :     3.012441  s :     3.012441
      pz      :     0.982919  p :     2.505312
      px      :     0.732985
      py      :     0.789408
      dz2     :     0.005585  d :     0.072979
      dxz     :     0.011121
      dyz     :     0.010876
      dx2y2   :     0.022803
      dxy     :     0.022593

  6 C s       :     3.214581  s :     3.214581
      pz      :     1.193958  p :     2.969043
      px      :     0.880716
      py      :     0.894368
      dz2     :     0.003893  d :     0.037874
      dxz     :     0.006727
      dyz     :     0.005986
      dx2y2   :     0.009166
      dxy     :     0.012102

  7 S s       :     5.801423  s :     5.801423
      pz      :     3.592276  p :     9.785770
      px      :     2.925040
      py      :     3.268455
      dz2     :     0.012074  d :     0.105604
      dxz     :     0.022521
      dyz     :     0.010395
      dx2y2   :     0.014014
      dxy     :     0.046601

  8 C s       :     3.179001  s :     3.179001
      pz      :     1.028705  p :     2.784532
      px      :     0.923446
      py      :     0.832382
      dz2     :     0.004625  d :     0.059664
      dxz     :     0.008064
      dyz     :     0.009948
      dx2y2   :     0.017378
      dxy     :     0.019648

  9 C s       :     3.127565  s :     3.127565
      pz      :     0.980467  p :     2.674059
      px      :     0.850856
      py      :     0.842736
      dz2     :     0.003575  d :     0.040395
      dxz     :     0.005806
      dyz     :     0.006673
      dx2y2   :     0.013700
      dxy     :     0.010641

 10 C s       :     3.200948  s :     3.200948
      pz      :     0.984570  p :     2.924001
      px      :     0.938817
      py      :     1.000615
      dz2     :     0.003565  d :     0.035356
      dxz     :     0.005395
      dyz     :     0.003026
      dx2y2   :     0.010990
      dxy     :     0.012381

 11 C s       :     3.191416  s :     3.191416
      pz      :     0.981372  p :     2.888672
      px      :     0.950654
      py      :     0.956646
      dz2     :     0.003252  d :     0.036538
      dxz     :     0.005351
      dyz     :     0.004028
      dx2y2   :     0.010300
      dxy     :     0.013607

 12 C s       :     3.202616  s :     3.202616
      pz      :     1.022429  p :     2.964192
      px      :     0.976196
      py      :     0.965567
      dz2     :     0.003785  d :     0.034609
      dxz     :     0.002525
      dyz     :     0.005987
      dx2y2   :     0.012345
      dxy     :     0.009967

 13 C s       :     3.085568  s :     3.085568
      pz      :     0.975190  p :     2.429773
      px      :     0.830798
      py      :     0.623786
      dz2     :     0.005291  d :     0.072581
      dxz     :     0.008670
      dyz     :     0.012570
      dx2y2   :     0.022821
      dxy     :     0.023229

 14 F s       :     3.972044  s :     3.972044
      pz      :     1.895462  p :     5.326302
      px      :     1.847214
      py      :     1.583625
      dz2     :     0.002070  d :     0.017185
      dxz     :     0.001004
      dyz     :     0.003873
      dx2y2   :     0.004914
      dxy     :     0.005324

 15 C s       :     3.216929  s :     3.216929
      pz      :     1.043778  p :     3.030015
      px      :     0.985296
      py      :     1.000941
      dz2     :     0.003407  d :     0.033935
      dxz     :     0.005250
      dyz     :     0.003782
      dx2y2   :     0.010316
      dxy     :     0.011181

 16 N s       :     3.702452  s :     3.702452
      pz      :     1.225258  p :     3.687730
      px      :     1.100956
      py      :     1.361515
      dz2     :     0.004548  d :     0.038063
      dxz     :     0.006671
      dyz     :     0.006689
      dx2y2   :     0.012144
      dxy     :     0.008011

 17 C s       :     2.982093  s :     2.982093
      pz      :     0.954418  p :     2.441812
      px      :     0.734905
      py      :     0.752489
      dz2     :     0.006325  d :     0.087060
      dxz     :     0.013537
      dyz     :     0.013441
      dx2y2   :     0.024782
      dxy     :     0.028976

 18 O s       :     3.895010  s :     3.895010
      pz      :     1.834857  p :     4.717374
      px      :     1.641273
      py      :     1.241244
      dz2     :     0.003773  d :     0.023193
      dxz     :     0.003426
      dyz     :     0.002398
      dx2y2   :     0.003892
      dxy     :     0.009704

 19 N s       :     3.741656  s :     3.741656
      pz      :     1.199191  p :     3.504218
      px      :     0.892963
      py      :     1.412064
      dz2     :     0.006558  d :     0.054010
      dxz     :     0.009524
      dyz     :     0.009049
      dx2y2   :     0.007322
      dxy     :     0.021557

 20 H s       :     0.824958  s :     0.824958

 21 H s       :     0.843520  s :     0.843520

 22 H s       :     0.826357  s :     0.826357

 23 H s       :     0.811482  s :     0.811482

 24 H s       :     0.812069  s :     0.812069

 25 H s       :     0.841164  s :     0.841164

 26 H s       :     0.855595  s :     0.855595

 27 H s       :     0.852256  s :     0.852256

 28 H s       :     0.837519  s :     0.837519

 29 H s       :     0.576466  s :     0.576466



                     *******************************
                     * LOEWDIN POPULATION ANALYSIS *
                     *******************************

----------------------
LOEWDIN ATOMIC CHARGES
----------------------
   0 C :   -0.362362
   1 C :   -0.152409
   2 N :    0.097238
   3 N :   -0.076288
   4 N :   -0.126789
   5 C :   -0.005427
   6 C :   -0.245000
   7 S :    0.432051
   8 C :   -0.118323
   9 C :   -0.020152
  10 C :   -0.116585
  11 C :   -0.117425
  12 C :   -0.152238
  13 C :    0.119826
  14 F :   -0.101417
  15 C :   -0.154236
  16 N :   -0.184365
  17 C :    0.092598
  18 O :   -0.326216
  19 N :   -0.123169
  20 H :    0.139300
  21 H :    0.134512
  22 H :    0.138709
  23 H :    0.150461
  24 H :    0.149817
  25 H :    0.148708
  26 H :    0.139851
  27 H :    0.144855
  28 H :    0.151020
  29 H :    0.343455

-------------------------------
LOEWDIN REDUCED ORBITAL CHARGES
-------------------------------
  0 C s       :     2.987941  s :     2.987941
      pz      :     1.056183  p :     3.308276
      px      :     1.112567
      py      :     1.139527
      dz2     :     0.016587  d :     0.066145
      dxz     :     0.011704
      dyz     :     0.015202
      dx2y2   :     0.015587
      dxy     :     0.007065

  1 C s       :     2.929718  s :     2.929718
      pz      :     1.099995  p :     3.113010
      px      :     0.897437
      py      :     1.115578
      dz2     :     0.021482  d :     0.109681
      dxz     :     0.025613
      dyz     :     0.016909
      dx2y2   :     0.029327
      dxy     :     0.016348

  2 N s       :     3.068358  s :     3.068358
      pz      :     1.356651  p :     3.644896
      px      :     1.150176
      py      :     1.138070
      dz2     :     0.013092  d :     0.189507
      dxz     :     0.019381
      dyz     :     0.030510
      dx2y2   :     0.066157
      dxy     :     0.060367

  3 N s       :     3.305896  s :     3.305896
      pz      :     1.148630  p :     3.616524
      px      :     1.205917
      py      :     1.261978
      dz2     :     0.016162  d :     0.153868
      dxz     :     0.022927
      dyz     :     0.019236
      dx2y2   :     0.055535
      dxy     :     0.040009

  4 N s       :     3.298340  s :     3.298340
      pz      :     1.162381  p :     3.712091
      px      :     1.155052
      py      :     1.394658
      dz2     :     0.012381  d :     0.116359
      dxz     :     0.017752
      dyz     :     0.012299
      dx2y2   :     0.047300
      dxy     :     0.026627

  5 C s       :     2.857075  s :     2.857075
      pz      :     0.981487  p :     2.972820
      px      :     0.993253
      py      :     0.998080
      dz2     :     0.012363  d :     0.175532
      dxz     :     0.021768
      dyz     :     0.022879
      dx2y2   :     0.058511
      dxy     :     0.060011

  6 C s       :     2.910833  s :     2.910833
      pz      :     1.166393  p :     3.236956
      px      :     1.025515
      py      :     1.045048
      dz2     :     0.008388  d :     0.097212
      dxz     :     0.013436
      dyz     :     0.013032
      dx2y2   :     0.026610
      dxy     :     0.035746

  7 S s       :     5.518093  s :     5.518093
      pz      :     3.571109  p :     9.925324
      px      :     2.975120
      py      :     3.379096
      dz2     :     0.014377  d :     0.124532
      dxz     :     0.026885
      dyz     :     0.010398
      dx2y2   :     0.016436
      dxy     :     0.056435

  8 C s       :     2.917743  s :     2.917743
      pz      :     1.018178  p :     3.061868
      px      :     1.033596
      py      :     1.010094
      dz2     :     0.009723  d :     0.138712
      dxz     :     0.014940
      dyz     :     0.020444
      dx2y2   :     0.043078
      dxy     :     0.050527

  9 C s       :     2.866355  s :     2.866355
      pz      :     0.981780  p :     3.050578
      px      :     1.006996
      py      :     1.061802
      dz2     :     0.007473  d :     0.103219
      dxz     :     0.012151
      dyz     :     0.014639
      dx2y2   :     0.038084
      dxy     :     0.030873

 10 C s       :     2.915807  s :     2.915807
      pz      :     0.985001  p :     3.118342
      px      :     1.058936
      py      :     1.074405
      dz2     :     0.006443  d :     0.082436
      dxz     :     0.011617
      dyz     :     0.005567
      dx2y2   :     0.028328
      dxy     :     0.030481

 11 C s       :     2.916582  s :     2.916582
      pz      :     0.975993  p :     3.114729
      px      :     1.072350
      py      :     1.066385
      dz2     :     0.006022  d :     0.086115
      dxz     :     0.011389
      dyz     :     0.008012
      dx2y2   :     0.027271
      dxy     :     0.033420

 12 C s       :     2.922235  s :     2.922235
      pz      :     1.012775  p :     3.148228
      px      :     1.076010
      py      :     1.059442
      dz2     :     0.007127  d :     0.081775
      dxz     :     0.004218
      dyz     :     0.013352
      dx2y2   :     0.030053
      dxy     :     0.027026

 13 C s       :     2.864339  s :     2.864339
      pz      :     0.973900  p :     2.836416
      px      :     1.028617
      py      :     0.833899
      dz2     :     0.012965  d :     0.179419
      dxz     :     0.018522
      dyz     :     0.027224
      dx2y2   :     0.060142
      dxy     :     0.060566

 14 F s       :     3.735070  s :     3.735070
      pz      :     1.887941  p :     5.331997
      px      :     1.845327
      py      :     1.598728
      dz2     :     0.004216  d :     0.034350
      dxz     :     0.001970
      dyz     :     0.007715
      dx2y2   :     0.009802
      dxy     :     0.010647

 15 C s       :     2.919357  s :     2.919357
      pz      :     1.032047  p :     3.155459
      px      :     1.054658
      py      :     1.068754
      dz2     :     0.006408  d :     0.079421
      dxz     :     0.010594
      dyz     :     0.007151
      dx2y2   :     0.027469
      dxy     :     0.027799

 16 N s       :     3.252833  s :     3.252833
      pz      :     1.219158  p :     3.848369
      px      :     1.191808
      py      :     1.437404
      dz2     :     0.008756  d :     0.083163
      dxz     :     0.014307
      dyz     :     0.009878
      dx2y2   :     0.030525
      dxy     :     0.019697

 17 C s       :     2.842073  s :     2.842073
      pz      :     0.965404  p :     2.862782
      px      :     0.954630
      py      :     0.942747
      dz2     :     0.014308  d :     0.202548
      dxz     :     0.026961
      dyz     :     0.028526
      dx2y2   :     0.063623
      dxy     :     0.069130

 18 O s       :     3.534997  s :     3.534997
      pz      :     1.823156  p :     4.747034
      px      :     1.652796
      py      :     1.271082
      dz2     :     0.005761  d :     0.044185
      dxz     :     0.004650
      dyz     :     0.005667
      dx2y2   :     0.009009
      dxy     :     0.019098

 19 N s       :     3.285123  s :     3.285123
      pz      :     1.202181  p :     3.720167
      px      :     1.031102
      py      :     1.486883
      dz2     :     0.012645  d :     0.117880
      dxz     :     0.023339
      dyz     :     0.011568
      dx2y2   :     0.017430
      dxy     :     0.052899

 20 H s       :     0.860700  s :     0.860700

 21 H s       :     0.865488  s :     0.865488

 22 H s       :     0.861291  s :     0.861291

 23 H s       :     0.849539  s :     0.849539

 24 H s       :     0.850183  s :     0.850183

 25 H s       :     0.851292  s :     0.851292

 26 H s       :     0.860149  s :     0.860149

 27 H s       :     0.855145  s :     0.855145

 28 H s       :     0.848980  s :     0.848980

 29 H s       :     0.656545  s :     0.656545



                      *****************************
                      * MAYER POPULATION ANALYSIS *
                      *****************************

  NA   - Mulliken gross atomic population
  ZA   - Total nuclear charge
  QA   - Mulliken gross atomic charge
  VA   - Mayer's total valence
  BVA  - Mayer's bonded valence
  FA   - Mayer's free valence

  ATOM       NA         ZA         QA         VA         BVA        FA
  0 C      6.4459     6.0000    -0.4459     3.8141     3.8141     0.0000
  1 C      6.1433     6.0000    -0.1433     3.7816     3.7816    -0.0000
  2 N      7.0296     7.0000    -0.0296     3.4795     3.4795    -0.0000
  3 N      7.0667     7.0000    -0.0667     2.8491     2.8491    -0.0000
  4 N      7.3255     7.0000    -0.3255     2.9088     2.9088    -0.0000
  5 C      5.5907     6.0000     0.4093     3.8084     3.8084     0.0000
  6 C      6.2215     6.0000    -0.2215     3.7639     3.7639    -0.0000
  7 S     15.6928    16.0000     0.3072     2.4822     2.4822    -0.0000
  8 C      6.0232     6.0000    -0.0232     3.8506     3.8506    -0.0000
  9 C      5.8420     6.0000     0.1580     3.9339     3.9339     0.0000
 10 C      6.1603     6.0000    -0.1603     3.9077     3.9077     0.0000
 11 C      6.1166     6.0000    -0.1166     3.9135     3.9135    -0.0000
 12 C      6.2014     6.0000    -0.2014     3.8841     3.8841    -0.0000
 13 C      5.5879     6.0000     0.4121     3.8355     3.8355    -0.0000
 14 F      9.3155     9.0000    -0.3155     1.0490     1.0490    -0.0000
 15 C      6.2809     6.0000    -0.2809     3.8593     3.8593     0.0000
 16 N      7.4282     7.0000    -0.4282     2.9518     2.9518     0.0000
 17 C      5.5110     6.0000     0.4890     3.8670     3.8670    -0.0000
 18 O      8.6356     8.0000    -0.6356     1.8563     1.8563     0.0000
 19 N      7.2999     7.0000    -0.2999     2.8221     2.8221    -0.0000
 20 H      0.8250     1.0000     0.1750     0.9326     0.9326     0.0000
 21 H      0.8435     1.0000     0.1565     0.9351     0.9351     0.0000
 22 H      0.8264     1.0000     0.1736     0.9330     0.9330     0.0000
 23 H      0.8115     1.0000     0.1885     0.9267     0.9267    -0.0000
 24 H      0.8121     1.0000     0.1879     0.9270     0.9270    -0.0000
 25 H      0.8412     1.0000     0.1588     0.9432     0.9432     0.0000
 26 H      0.8556     1.0000     0.1444     0.9358     0.9358    -0.0000
 27 H      0.8523     1.0000     0.1477     0.9355     0.9355     0.0000
 28 H      0.8375     1.0000     0.1625     0.9339     0.9339     0.0000
 29 H      0.5765     1.0000     0.4235     0.7987     0.7987     0.0000

  Mayer bond orders larger than 0.100000
B(  0-C ,  1-C ) :   1.0039 B(  0-C , 20-H ) :   0.9436 B(  0-C , 21-H ) :   0.9425 
B(  0-C , 22-H ) :   0.9441 B(  1-C ,  2-N ) :   0.8988 B(  1-C , 23-H ) :   0.9266 
B(  1-C , 24-H ) :   0.9271 B(  2-N ,  3-N ) :   1.2400 B(  2-N , 19-N ) :   1.2224 
B(  3-N ,  4-N ) :   1.4312 B(  3-N , 19-N ) :   0.1309 B(  4-N ,  5-C ) :   1.2864 
B(  5-C ,  6-C ) :   1.0423 B(  5-C , 19-N ) :   1.3849 B(  6-C ,  7-S ) :   1.0935 
B(  6-C ,  8-C ) :   0.1239 B(  6-C , 17-C ) :   1.4218 B(  7-S ,  8-C ) :   1.1544 
B(  8-C ,  9-C ) :   1.0249 B(  8-C , 16-N ) :   1.4414 B(  9-C , 10-C ) :   1.4085 
B(  9-C , 15-C ) :   1.3568 B( 10-C , 11-C ) :   1.4347 B( 10-C , 25-H ) :   0.9124 
B( 11-C , 12-C ) :   1.4225 B( 11-C , 26-H ) :   0.9289 B( 12-C , 13-C ) :   1.3883 
B( 12-C , 27-H ) :   0.9203 B( 13-C , 14-F ) :   0.9148 B( 13-C , 15-C ) :   1.3925 
B( 15-C , 28-H ) :   0.9067 B( 16-N , 17-C ) :   1.2893 B( 17-C , 18-O ) :   0.9960 
B( 18-O , 29-H ) :   0.7561 

-------
TIMINGS
-------

Total SCF time: 0 days 0 hours 3 min 30 sec 

Total time                  ....     210.401 sec
Sum of individual times     ....     210.124 sec  ( 99.9%)

SCF preparation             ....       0.248 sec  (  0.1%)
Fock matrix formation       ....     208.850 sec  ( 99.3%)
  Startup                   ....       0.063 sec  (  0.0% of F)
  Split-RI-J                ....      22.822 sec  ( 10.9% of F)
  Chain of spheres X        ....     163.636 sec  ( 78.4% of F)
  XC integration            ....      21.769 sec  ( 10.4% of F)
    Basis function eval.    ....       8.634 sec  ( 39.7% of XC)
    Density eval.           ....       4.700 sec  ( 21.6% of XC)
    XC-Functional eval.     ....       1.375 sec  (  6.3% of XC)
    XC-Potential eval.      ....       5.870 sec  ( 27.0% of XC)
Diagonalization             ....       0.000 sec  (  0.0%)
Density matrix formation    ....       0.194 sec  (  0.1%)
Total Energy calculation    ....       0.050 sec  (  0.0%)
Population analysis         ....       0.044 sec  (  0.0%)
Orbital Transformation      ....       0.076 sec  (  0.0%)
Orbital Orthonormalization  ....       0.000 sec  (  0.0%)
DIIS solution               ....       0.378 sec  (  0.2%)
SOSCF solution              ....       0.284 sec  (  0.1%)
Finished LeanSCF after 210.5 sec

Maximum memory used throughout the entire LEANSCF-calculation: 41.4 MB

-------------------------   --------------------
FINAL SINGLE POINT ENERGY     -1309.665215270837
-------------------------   --------------------


------------------------------------------------------------------------------
                              ORCA PROPERTY CALCULATIONS
------------------------------------------------------------------------------

GBWName                                 ... /home/nmrbox/aojoawo/Documents/ERDOS/inputs/CHEMBL5270507.gbw
Number of atoms                         ...     30
Number of basis functions               ...    304
Max core memory                         ...   1024 MB

Electric properties:
Dipole moment                           ... YES
Quadrupole moment                       ...  NO
Static polarizability (Dipole/Dipole)   ...  NO
Static polarizability (Dipole/Quad.)    ...  NO
Static polarizability (Quad./Quad.)     ...  NO
Static polarizability (Velocity)        ...  NO

Atomic electric properties:
Dipole moment                           ...  NO
Quadrupole moment                       ...  NO
Static polarizability                   ...  NO

Choice of electric origin               ... Center of mass
Position of electric origin             ...    -0.919455     0.539100    -0.035398

General magnetic properties:
Magnetizability                         ...  NO

EPR properties:
g-Tensor (aka g-matrix)                 ...  NO
Zero-Field splitting spin-orbit         ...  NO
Zero-field splitting spin-spin          ...  NO
Hyperfine couplings                     ...  NO (   0 nuclei)
Quadrupole couplings                    ...  NO (   0 nuclei)
Contact density                         ...  NO (   0 nuclei)

NMR properties:
Chemical shifts                         ...  NO (   0 nuclei)
Spin-rotation constants                 ...  NO (   0 nuclei)
Spin-spin couplings                     ...  NO (   0 nuclei,    0 pairs)

Choice of magnetic origin               ... GIAO
Position of magnetic origin             ...     0.000000     0.000000     0.000000

Properties with geometric perturbations:
SCF Hessian                             ...  NO
IR spectrum                             ...  NO
VCD spectrum                            ...  NO
X-ray spectroscopy properties:
SCF XES/XAS/RIXS spectra                ...  NO


-------------
DIPOLE MOMENT
-------------

Method             : SCF
Type of density    : Electron Density
Multiplicity       :   1
Irrep              :   0
Energy             : -1309.6652152708365975 Eh
Relativity type    : 
Basis              : AO
                                X                 Y                 Z
Electronic contribution:    -18.706382719       7.473174942       3.220601931
Nuclear contribution   :     19.279237736      -8.876434813      -3.528977560
                        -----------------------------------------
Total Dipole Moment    :      0.572855017      -1.403259872      -0.308375630
                        -----------------------------------------
Magnitude (a.u.)       :      1.546737427
Magnitude (Debye)      :      3.931494097



--------------------
Rotational spectrum 
--------------------
 
Rotational constants in cm-1:             0.033506             0.004021             0.003638 
Rotational constants in MHz :          1004.480907           120.535406           109.063255 

Dipole components along the rotational axes: 
x,y,z [a.u.] :     0.604640     1.420999    -0.086992 
x,y,z [Debye]:     1.536874     3.611893    -0.221116 

 

Dipole moment calculation done in   0.0 sec 

Maximum memory used throughout the entire PROP-calculation: 19.8 MB

--------------------------------
SUGGESTED CITATIONS FOR THIS RUN
--------------------------------

Below you find a list of papers that are relevant to this ORCA run
We neither can nor want to force you to cite these papers, but we appreciate if you do
You receive ORCA, which is the product of decades of hard work by many enthusiastic individuals, for free
The only thing we kindly ask in return is that you cite our papers,
We deeply appreciate it, if you show your appreciation for ORCA by not just citing the generic ORCA reference.

Please note that relegating all ORCA citations to the supporting information does *not* help us.
SI sections are not indexed - citations you put there will not count into any citation statistics
But we need these citations in order to attract the funding resources that allow us to do what we are doing

Therefore, if you are a happy ORCA user, please consider citing a few of the papers listed below in the main body of your paper

In addition to the list printed below, the program has created the file /home/nmrbox/aojoawo/Documents/ERDOS/inputs/CHEMBL5270507.bibtex that contains the list in bibtex format
You can import this file easily into all common literature databanks and citation aid programs


List of essential papers. We consider these as the minimum necessary citations

  1. Neese,F.
     Software update: the ORCA program system, version 5.0
     WIRES Comput. Molec. Sci., 2022 12(1)e1606
     doi.org/10.1002/wcms.1606

List of papers to cite with high priority. The work reported in these papers was absolutely
necessary for this run to complete.
Our perspective: the developers of density functionals and basis sets usually get cited in chemistry papers
Good! But without the algorithms to do something with them, the functionals or basis sets would not do anything.
Hence, in our opinion, the algorithm design and method developments papers are equally worthy of getting cited

  1. Neese,F.
     An improvement of the resolution of the identity approximation for the formation of the Coulomb matrix
     J. Comp. Chem., 2003 24(14)1740-1747
     doi.org/10.1002/jcc.10318
  2. Neese,F.; Wennmohs,F.; Hansen,A.; Becker,U.
     Efficient, approximate and parallel Hartree-Fock and hybrid DFT calculations. A 'chain-of-spheres' algorithm for the Hartree-Fock exchange
     Chem. Phys., 2009 356(1-3)98-109
     doi.org/10.1016/j.chemphys.2008.10.036
  3. Helmich-Paris,B.; de Souza,B.; Neese,F.; Izsák,R.
     An improved chain of spheres for exchange algorithm
     J. Chem. Phys., 2021 155 104109
     doi.org/doi: 10.1063/5.0058766.
  4. Neese,F.
     The SHARK Integral Generation and Digestion System
     J. Comp. Chem., 2022  1-16
     doi.org/10.1002/jcc.26942

List of suggested additional citations. These are papers that are important in the 'surrounding' of 
of this run, or papers that preceded the highly important papers. If you like your results we are grateful for a citation.

  1. Izsak,R.; Neese,F.
     An overlap fitted chain of spheres exchange method
     J. Chem. Phys., 2011 135 144105
     doi.org/10.1063/1.3646921
  2. Izsak,R.; Hansen,A.; Neese,F.
     The resolution of identity and chain of spheres approximations for the LPNO-CCSD singles Fock term
     Molec. Phys., 2012 110 2413-2417
     doi.org/10.1080/00268976.2012.687466
  3. Neese,F.
     The ORCA program system
     WIRES Comput. Molec. Sci., 2012 2(1)73-78
     doi.org/10.1002/wcms.81
  4. Izsak,R.; Neese,F.; Klopper,W.
     Robust fitting techniques in the chain of spheres approximation to the Fock exchange: The role of the complementary space
     J. Chem. Phys., 2013 139 
     doi.org/10.1063/1.4819264
  5. Neese,F.
     Software update: the ORCA program system, version 4.0
     WIRES Comput. Molec. Sci., 2018 8(1)1-6
     doi.org/10.1002/wcms.1327
  6. Neese,F.; Wennmohs,F.; Becker,U.; Riplinger,C.
     The ORCA quantum chemistry program package
     J. Chem. Phys., 2020 152 Art. No. L224108
     doi.org/10.1063/5.0004608

List of optional additional citations

  1. Neese,F.
     Approximate second-order SCF convergence for spin unrestricted wavefunctions
     Chem. Phys. Lett., 2000 325(1-3)93-98
     doi.org/10.1016/s0009-2614(00)00662-x

Timings for individual modules:

Sum of individual times          ...      219.057 sec (=   3.651 min)
Startup calculation              ...        5.942 sec (=   0.099 min)   2.7 %
SCF iterations                   ...      212.980 sec (=   3.550 min)  97.2 %
Property calculations            ...        0.135 sec (=   0.002 min)   0.1 %
                             ****ORCA TERMINATED NORMALLY****
TOTAL RUN TIME: 0 days 0 hours 3 minutes 39 seconds 657 msec
