
                                 *****************
                                 * O   R   C   A *
                                 *****************

                                            #,                                       
                                            ###                                      
                                            ####                                     
                                            #####                                    
                                            ######                                   
                                           ########,                                 
                                     ,,################,,,,,                         
                               ,,#################################,,                 
                          ,,##########################################,,             
                       ,#########################################, ''#####,          
                    ,#############################################,,   '####,        
                  ,##################################################,,,,####,       
                ,###########''''           ''''###############################       
              ,#####''   ,,,,##########,,,,          '''####'''          '####       
            ,##' ,,,,###########################,,,                        '##       
           ' ,,###''''                  '''############,,,                           
         ,,##''                                '''############,,,,        ,,,,,,###''
      ,#''                                            '''#######################'''  
     '                                                          ''''####''''         
             ,#######,   #######,   ,#######,      ##                                
            ,#'     '#,  ##    ##  ,#'     '#,    #''#        ,####,   ,####,        
            ##       ##  ##   ,#'  ##            #'  '#       #'       #'  '#        
            ##       ##  #######   ##           ,######,      #####,   #    #        
            '#,     ,#'  ##    ##  '#,     ,#' ,#      #,     #,   #   #,  ,#        
             '#######'   ##     ##  '#######'  #'      '#     '####' # '####'        



                #########################################################
                #                        -***-                          #
                #          Department of theory and spectroscopy        #
                #                                                       #
                #                      Frank Neese                      #
                #                                                       #
                #     Directorship, Architecture, Infrastructure        #
                #                    SHARK, DRIVERS                     #
                #        Core code/Algorithms in most modules           #
                #                                                       #
                #        Max Planck Institute fuer Kohlenforschung      #
                #                Kaiser Wilhelm Platz 1                 #
                #                 D-45470 Muelheim/Ruhr                 #
                #                      Germany                          #
                #                                                       #
                #                  All rights reserved                  #
                #                        -***-                          #
                #########################################################


                         Program Version 6.0.0  -   RELEASE  -


 With contributions from (in alphabetic order):
   Daniel Aravena         : Magnetic Suceptibility
   Michael Atanasov       : Ab Initio Ligand Field Theory (pilot matlab implementation)
   Alexander A. Auer      : GIAO ZORA, VPT2 properties, NMR spectrum
   Ute Becker             : All parallelization in ORCA, NUMFREQ, NUMCALC
   Giovanni Bistoni       : ED, misc. LED, open-shell LED, HFLD
   Martin Brehm           : Molecular dynamics
   Dmytro Bykov           : pre 5.0 version of the SCF Hessian
   Marcos Casanova-Páez   : Triplet and SCS-CIS(D). UHF-(DLPNO)-IP/EA/STEOM-CCSD. UHF-CVS-IP/STEOM-CCSD
   Vijay G. Chilkuri      : MRCI spin determinant printing, contributions to CSF-ICE
   Pauline Colinet        : FMM embedding
   Dipayan Datta          : RHF DLPNO-CCSD density
   Achintya Kumar Dutta   : EOM-CC, STEOM-CC
   Nicolas Foglia         : Exact transition moments, OPA infrastructure, MCD improvements
   Dmitry Ganyushin       : Spin-Orbit,Spin-Spin,Magnetic field MRCI
   Miquel Garcia          : C-PCM and meta-GGA Hessian, CCSD/C-PCM, Gaussian charge scheme
   Tiago L. C. Gouveia    : GS-ROHF, GS-ROCIS
   Yang Guo               : DLPNO-NEVPT2, F12-NEVPT2, CIM, IAO-localization
   Andreas Hansen         : Spin unrestricted coupled pair/coupled cluster methods
   Ingolf Harden          : AUTO-CI MPn and infrastructure 
   Benjamin Helmich-Paris : MC-RPA, TRAH-(SCF,CASSCF), AVAS, COSX integrals, SCF dyn. polar.
   Lee Huntington         : MR-EOM, pCC
   Robert Izsak           : Overlap fitted RIJCOSX, COSX-SCS-MP3, EOM
   Riya Kayal             : Wick's Theorem for AUTO-CI, AUTO-CI UHF-CCSDT
   Emily Kempfer          : AUTO-CI, RHF CISDT and CCSDT
   Christian Kollmar      : KDIIS, OOCD, Brueckner-CCSD(T), CCSD density, CASPT2, CASPT2-K, improved NEVPT2
   Axel Koslowski         : Symmetry handling
   Simone Kossmann        : Meta GGA functionals, TD-DFT gradient, OOMP2, (MP2 Hessian; deprecated post 5.0)
   Lucas Lang             : DCDCAS
   Marvin Lechner         : AUTO-CI (C++ implementation), FIC-MRCC
   Spencer Leger          : CASSCF response
   Dagmar Lenk            : GEPOL surface, SMD, ORCA-2-JSON
   Dimitrios Liakos       : Extrapolation schemes; Compound Job, initial MDCI parallelization
   Dimitrios Manganas     : Further ROCIS development; embedding schemes. LFT, Crystal Embedding
   Dimitrios Pantazis     : SARC Basis sets
   Anastasios Papadopoulos: AUTO-CI, single reference methods and gradients
   Taras Petrenko         : pre 6.0 DFT Hessian and TD-DFT gradient, (ASA, deprecated), ECA, 1-Electron XAS/XES, NRVS
   Peter Pinski           : DLPNO-MP2, DLPNO-MP2 Gradient
   Christoph Reimann      : Effective Core Potentials
   Marius Retegan         : Local ZFS, SOC
   Christoph Riplinger    : Optimizer, TS searches, QM/MM, DLPNO-CCSD(T), (RO)-DLPNO pert. Triples
   Michael Roemelt        : Original ROCIS implementation
   Masaaki Saitow         : Open-shell DLPNO-CCSD energy and density
   Barbara Sandhoefer     : DKH picture change effects
   Kantharuban Sivalingam : CASSCF convergence/infrastructure, NEVPT2 and variants, FIC-MRCI
   Bernardo de Souza      : ESD, SOC TD-DFT
   Georgi Stoychev        : AutoAux, RI-MP2 NMR, DLPNO-MP2 response, X2C
   Van Anh Tran           : RI-MP2 g-tensors
   Willem Van den Heuvel  : Paramagnetic NMR
   Zikuan Wang            : NOTCH, Electric field optimization 
   Frank Wennmohs         : Technical directorship and infrastructure
   Hang Xu                : AUTO-CI-Response properties 


 We gratefully acknowledge several colleagues who have allowed us to
 interface, adapt or use parts of their codes:
   Stefan Grimme, W. Hujo, H. Kruse, P. Pracht,  : VdW corrections, initial TS optimization,
                  C. Bannwarth, S. Ehlert,         DFT functionals, gCP, sTDA/sTD-DF
                  L. Wittmann, M. Mueller
   Ed Valeev, F. Pavosevic, A. Kumar             : LibInt (2-el integral package), F12 methods
   Garnet Chan, S. Sharma, J. Yang, R. Olivares  : DMRG
   Ulf Ekstrom                                   : XCFun DFT Library
   Mihaly Kallay                                 : mrcc  (arbitrary order and MRCC methods)
   Frank Weinhold                                : gennbo (NPA and NBO analysis)
   Simon Mueller                                 : openCOSMO-RS
   Christopher J. Cramer and Donald G. Truhlar   : smd solvation model
   Lars Goerigk                                  : TD-DFT with DH, B97 family of functionals
   V. Asgeirsson, H. Jonsson                     : NEB implementation
   FAccTs GmbH                                   : IRC, NEB, NEB-TS, DLPNO-Multilevel, CI-OPT
                                                   MM, QMMM, 2- and 3-layer-ONIOM, Crystal-QMMM,
                                                   LR-CPCM, SF, NACMEs, symmetry and pop. for TD-DFT,
                                                   nearIR, NL-DFT gradient (VV10), updates on ESD,
                                                   ML-optimized integration grids, MBIS, APM,
                                                   GOAT, DOCKER, SOLVATOR, interface openCOSMO-RS
   S Lehtola, MJT Oliveira, MAL Marques          : LibXC Library
   Liviu Ungur et al                             : ANISO software


 Your calculation uses the libint2 library for the computation of 2-el integrals
 For citations please refer to: http://libint.valeyev.net

 Your ORCA version has been built with support for libXC version: 6.2.2
 For citations please refer to: https://libxc.gitlab.io

 This ORCA versions uses:
   CBLAS   interface :  Fast vector & matrix operations
   LAPACKE interface :  Fast linear algebra routines
   SCALAPACK package :  Parallel linear algebra routines
   Shared memory     :  Shared parallel matrices
   BLAS/LAPACK       :  OpenBLAS 0.3.27  USE64BITINT DYNAMIC_ARCH NO_AFFINITY SkylakeX SINGLE_THREADED
        Core in use  :  SkylakeX
   Copyright (c) 2011-2014, The OpenBLAS Project


Warning: RI is on but no J-basis has been assigned. Assigning Def2/J (nothing to worry about!)
================================================================================

----- Orbital basis set information -----
Your calculation utilizes the basis: 6-31G*
   H-He, Li-Ne : W. J. Hehre, R. Ditchfield and J.A. Pople, J. Chem. Phys. 56, 2257 (1972).
                 Note: He and Ne are unpublished basis sets taken from the Gaussian program.
                 Note: Li and B from J. D. Dill and J. A. Pople, J. Chem. Phys. 62, 2921 (1975).
   Na - Ar     : M. M. Francl, W. J. Pietro, W. J. Hehre, J. S. Binkley, M. S. Gordon, 
                 D. J. DeFrees and J. A. Pople, J. Chem. Phys. 77, 3654 (1982).
   K - Zn      : V. A. Rassolov, J. A. Pople, M. A. Ratner, and T. L. Windus, J. Chem. Phys. 109, 1223 (1998).

----- AuxJ basis set information -----
Your calculation utilizes the auxiliary basis: def2/J
   F. Weigend, Phys. Chem. Chem. Phys. 8, 1057 (2006).

================================================================================
                                        WARNINGS
                       Please study these warnings very carefully!
================================================================================


================================================================================
                                       INPUT FILE
================================================================================
NAME = /home/nmrbox/aojoawo/Documents/ERDOS/inputs/CHEMBL4777635.inp
|  1> ! B3LYP 6-31G* SP
|  2> 
|  3> * xyz 0 1
|  4> C -2.5873 1.1596 -2.0668
|  5> C -2.0369 1.5255 -0.7083
|  6> C -2.7750 2.3988 0.1184
|  7> F -3.9829 2.8785 -0.2749
|  8> C -2.2751 2.7934 1.3600
|  9> C -1.0357 2.3364 1.7927
| 10> F -0.5452 2.7400 2.9911
| 11> C -0.2934 1.4703 0.9927
| 12> C -0.7852 1.0225 -0.2466
| 13> C 0.0770 0.0786 -1.0847
| 14> C 1.1145 0.9256 -1.8364
| 15> N 0.6241 -1.0577 -0.2779
| 16> C -0.3196 -2.0773 0.1605
| 17> O 0.0448 -3.2824 0.2467
| 18> C -1.7323 -1.7775 0.4484
| 19> C -2.0978 -1.1503 1.6484
| 20> C -3.4440 -0.8785 1.9161
| 21> C -4.4305 -1.2590 1.0024
| 22> C -4.0732 -1.9160 -0.1781
| 23> C -2.7277 -2.1834 -0.4513
| 24> C 2.0698 -1.4271 -0.2081
| 25> C 2.6039 -1.9895 -1.5145
| 26> N 1.7283 -2.4467 -2.5500
| 27> O 3.8431 -2.1819 -1.6477
| 28> C 2.9308 -0.3549 0.4509
| 29> C 3.8570 0.4375 -0.2636
| 30> C 4.6528 1.3754 0.4003
| 31> C 4.5507 1.5255 1.7837
| 32> C 3.6536 0.7383 2.5083
| 33> C 2.8511 -0.1968 1.8479
| 34> H -1.8589 1.4334 -2.8542
| 35> H -3.5322 1.6920 -2.2980
| 36> H -2.7973 0.0736 -2.1159
| 37> H -2.8475 3.4676 1.9842
| 38> H 0.6660 1.1422 1.3488
| 39> H -0.5415 -0.3850 -1.8785
| 40> H 0.5887 1.6197 -2.5274
| 41> H 1.7783 0.3080 -2.4672
| 42> H 1.6972 1.5571 -1.1391
| 43> H -1.3429 -0.8643 2.3698
| 44> H -3.7244 -0.3799 2.8343
| 45> H -5.4708 -1.0474 1.2127
| 46> H -4.8371 -2.2202 -0.8814
| 47> H -2.4622 -2.6906 -1.3705
| 48> H 2.1804 -2.2893 0.4863
| 49> H 2.1259 -2.8609 -3.4203
| 50> H 0.6919 -2.4150 -2.4544
| 51> H 3.9623 0.3475 -1.3335
| 52> H 5.3535 1.9830 -0.1600
| 53> H 5.1685 2.2508 2.2942
| 54> H 3.5797 0.8508 3.5831
| 55> H 2.1625 -0.7999 2.4275
| 56> *
| 57> 
| 58>                          ****END OF INPUT****
================================================================================

                       ****************************
                       * Single Point Calculation *
                       ****************************

---------------------------------
CARTESIAN COORDINATES (ANGSTROEM)
---------------------------------
  C     -2.587300    1.159600   -2.066800
  C     -2.036900    1.525500   -0.708300
  C     -2.775000    2.398800    0.118400
  F     -3.982900    2.878500   -0.274900
  C     -2.275100    2.793400    1.360000
  C     -1.035700    2.336400    1.792700
  F     -0.545200    2.740000    2.991100
  C     -0.293400    1.470300    0.992700
  C     -0.785200    1.022500   -0.246600
  C      0.077000    0.078600   -1.084700
  C      1.114500    0.925600   -1.836400
  N      0.624100   -1.057700   -0.277900
  C     -0.319600   -2.077300    0.160500
  O      0.044800   -3.282400    0.246700
  C     -1.732300   -1.777500    0.448400
  C     -2.097800   -1.150300    1.648400
  C     -3.444000   -0.878500    1.916100
  C     -4.430500   -1.259000    1.002400
  C     -4.073200   -1.916000   -0.178100
  C     -2.727700   -2.183400   -0.451300
  C      2.069800   -1.427100   -0.208100
  C      2.603900   -1.989500   -1.514500
  N      1.728300   -2.446700   -2.550000
  O      3.843100   -2.181900   -1.647700
  C      2.930800   -0.354900    0.450900
  C      3.857000    0.437500   -0.263600
  C      4.652800    1.375400    0.400300
  C      4.550700    1.525500    1.783700
  C      3.653600    0.738300    2.508300
  C      2.851100   -0.196800    1.847900
  H     -1.858900    1.433400   -2.854200
  H     -3.532200    1.692000   -2.298000
  H     -2.797300    0.073600   -2.115900
  H     -2.847500    3.467600    1.984200
  H      0.666000    1.142200    1.348800
  H     -0.541500   -0.385000   -1.878500
  H      0.588700    1.619700   -2.527400
  H      1.778300    0.308000   -2.467200
  H      1.697200    1.557100   -1.139100
  H     -1.342900   -0.864300    2.369800
  H     -3.724400   -0.379900    2.834300
  H     -5.470800   -1.047400    1.212700
  H     -4.837100   -2.220200   -0.881400
  H     -2.462200   -2.690600   -1.370500
  H      2.180400   -2.289300    0.486300
  H      2.125900   -2.860900   -3.420300
  H      0.691900   -2.415000   -2.454400
  H      3.962300    0.347500   -1.333500
  H      5.353500    1.983000   -0.160000
  H      5.168500    2.250800    2.294200
  H      3.579700    0.850800    3.583100
  H      2.162500   -0.799900    2.427500

----------------------------
CARTESIAN COORDINATES (A.U.)
----------------------------
  NO LB      ZA    FRAG     MASS         X           Y           Z
   0 C     6.0000    0    12.011   -4.889288    2.191326   -3.905686
   1 C     6.0000    0    12.011   -3.849183    2.882777   -1.338493
   2 C     6.0000    0    12.011   -5.243990    4.533075    0.223744
   3 F     9.0000    0    18.998   -7.526590    5.439577   -0.519486
   4 C     6.0000    0    12.011   -4.299316    5.278761    2.570028
   5 C     6.0000    0    12.011   -1.957189    4.415156    3.387712
   6 F     9.0000    0    18.998   -1.030279    5.177850    5.652360
   7 C     6.0000    0    12.011   -0.554446    2.778464    1.875931
   8 C     6.0000    0    12.011   -1.483813    1.932245   -0.466006
   9 C     6.0000    0    12.011    0.145509    0.148532   -2.049786
  10 C     6.0000    0    12.011    2.106100    1.749131   -3.470293
  11 N     7.0000    0    14.007    1.179378   -1.998763   -0.525155
  12 C     6.0000    0    12.011   -0.603956   -3.925528    0.303301
  13 O     8.0000    0    15.999    0.084660   -6.202837    0.466195
  14 C     6.0000    0    12.011   -3.273573   -3.358988    0.847353
  15 C     6.0000    0    12.011   -3.964267   -2.173752    3.115025
  16 C     6.0000    0    12.011   -6.508217   -1.660124    3.620904
  17 C     6.0000    0    12.011   -8.372432   -2.379165    1.894261
  18 C     6.0000    0    12.011   -7.697232   -3.620715   -0.336560
  19 C     6.0000    0    12.011   -5.154606   -4.126028   -0.852833
  20 C     6.0000    0    12.011    3.911355   -2.696828   -0.393252
  21 C     6.0000    0    12.011    4.920658   -3.759610   -2.861990
  22 N     7.0000    0    14.007    3.266014   -4.623593   -4.818802
  23 O     8.0000    0    15.999    7.262407   -4.123193   -3.113702
  24 C     6.0000    0    12.011    5.538409   -0.670664    0.852078
  25 C     6.0000    0    12.011    7.288674    0.826755   -0.498132
  26 C     6.0000    0    12.011    8.792518    2.599129    0.756457
  27 C     6.0000    0    12.011    8.599577    2.882777    3.370705
  28 C     6.0000    0    12.011    6.904303    1.395185    4.740000
  29 C     6.0000    0    12.011    5.387798   -0.371898    3.492025
  30 H     1.0000    0     1.008   -3.512812    2.708733   -5.393656
  31 H     1.0000    0     1.008   -6.674891    3.197417   -4.342591
  32 H     1.0000    0     1.008   -5.286131    0.139084   -3.998472
  33 H     1.0000    0     1.008   -5.380995    6.552814    3.749595
  34 H     1.0000    0     1.008    1.258558    2.158445    2.548863
  35 H     1.0000    0     1.008   -1.023287   -0.727545   -3.549851
  36 H     1.0000    0     1.008    1.112482    3.060789   -4.776094
  37 H     1.0000    0     1.008    3.360500    0.582036   -4.662332
  38 H     1.0000    0     1.008    3.207243    2.942493   -2.152587
  39 H     1.0000    0     1.008   -2.537713   -1.633290    4.478273
  40 H     1.0000    0     1.008   -7.038096   -0.717907    5.356051
  41 H     1.0000    0     1.008  -10.338314   -1.979299    2.291671
  42 H     1.0000    0     1.008   -9.140794   -4.195570   -1.665605
  43 H     1.0000    0     1.008   -4.652884   -5.084497   -2.589870
  44 H     1.0000    0     1.008    4.120359   -4.326150    0.918974
  45 H     1.0000    0     1.008    4.017369   -5.406317   -6.463430
  46 H     1.0000    0     1.008    1.307502   -4.563689   -4.638144
  47 H     1.0000    0     1.008    7.487662    0.656680   -2.519950
  48 H     1.0000    0     1.008   10.116649    3.747327   -0.302356
  49 H     1.0000    0     1.008    9.767050    4.253396    4.335410
  50 H     1.0000    0     1.008    6.764653    1.607779    6.771078
  51 H     1.0000    0     1.008    4.086533   -1.511592    4.587310

--------------------------------
INTERNAL COORDINATES (ANGSTROEM)
--------------------------------
 C      0   0   0     0.000000000000     0.00000000     0.00000000
 C      1   0   0     1.510743267402     0.00000000     0.00000000
 C      2   1   0     1.410984546336   119.08992493     0.00000000
 F      3   2   1     1.357873112629   120.94945663     1.93152003
 C      3   2   1     1.395413820341   120.59335120   182.17614837
 C      5   3   2     1.390032607531   120.22704245     0.47739772
 F      6   5   3     1.356335419430   119.97729675   178.95354196
 C      6   5   3     1.393247465456   120.04526140   359.33395738
 C      8   6   5     1.406505090641   121.16875265   358.80624393
 C      9   8   6     1.528642423852   118.84606662   179.68213128
 C     10   9   8     1.535860716341   107.98831169   278.94436348
 N     10   9   8     1.497138049747   112.29093593    47.84173014
 C     12  10   9     1.456828201951   117.17077570    70.74880849
 O     13  12  10     1.261936531685   120.12291423   146.00187717
 C     13  12  10     1.472578602316   122.53289610   329.35667289
 C     15  13  12     1.402487108675   120.55318529   282.73668310
 C     16  15  13     1.399211552983   120.08637831   180.45021720
 C     17  16  15     1.397429851549   120.07984827     1.47538639
 C     18  17  16     1.397459316045   119.99014925     0.22595593
 C     19  18  17     1.398753462909   120.05386486   359.47275903
 C     12  10   9     1.493779398037   124.50929042   233.07490232
 C     21  12  10     1.519288494658   113.05362952   291.33153823
 N     22  21  12     1.431072133053   121.69263025   344.02453647
 O     22  21  12     1.261101359923   119.52071519   171.00891556
 C     21  12  10     1.524865515382   113.12747934    65.27472463
 C     25  21  12     1.412888689883   123.08908928   250.46153706
 C     26  25  21     1.397754363256   120.62070028   182.16753111
 C     27  26  25     1.395259825266   120.09678523     0.82667178
 C     28  27  26     1.396251198746   120.06047578     0.03806443
 C     29  28  27     1.398050936125   120.05059707   359.66598212
 H      1   2   3     1.107037379676   109.87524822   122.58293372
 H      1   2   3     1.108936071196   112.43474089     3.43730789
 H      1   2   3     1.107206760276   110.27563079   243.53060626
 H      5   3   2     1.082503136254   119.98394306   179.70240261
 H      8   6   5     1.074665147848   118.36998912   179.34404192
 H     10   9   8     1.107964642938   109.65232613   165.17279629
 H     11  10   9     1.111630086854   109.21183100   297.38731930
 H     11  10   9     1.104521996159   112.15592511   179.98646126
 H     11  10   9     1.106597862821   111.22391686    54.67498791
 H     16  15  13     1.082630116891   120.43475869     1.03089884
 H     17  16  15     1.081812072404   120.08544690   181.01820042
 H     18  17  16     1.082231370826   119.88719093   179.98760994
 H     19  18  17     1.081994334551   120.04998295   179.36462617
 H     20  19  18     1.082899224305   119.41756912   180.17200429
 H     21  12  10     1.112570249467   108.48257492   178.47234590
 H     23  22  21     1.042626246552   119.84017619   182.31968893
 H     23  22  21     1.041282483287   122.19632109   359.95907059
 H     26  25  21     1.078829968067   121.24593866     2.98113402
 H     27  26  25     1.083556339098   119.92267367   180.51404385
 H     28  27  26     1.080901096308   119.90997531   179.91896807
 H     29  28  27     1.083195504053   120.01440428   179.59055225
 H     30  29  28     1.083436998630   118.97627130   179.87449937

---------------------------
INTERNAL COORDINATES (A.U.)
---------------------------
 C      0   0   0     0.000000000000     0.00000000     0.00000000
 C      1   0   0     2.854891034055     0.00000000     0.00000000
 C      2   1   0     2.666374371771   119.08992493     0.00000000
 F      3   2   1     2.566008307483   120.94945663     1.93152003
 C      3   2   1     2.636949963934   120.59335120   182.17614837
 C      5   3   2     2.626780945454   120.22704245     0.47739772
 F      6   5   3     2.563102488460   119.97729675   178.95354196
 C      6   5   3     2.632856146492   120.04526140   359.33395738
 C      8   6   5     2.657909427278   121.16875265   358.80624393
 C      9   8   6     2.888715537774   118.84606662   179.68213128
 C     10   9   8     2.902356133733   107.98831169   278.94436348
 N     10   9   8     2.829180898695   112.29093593    47.84173014
 C     12  10   9     2.753006325860   117.17077570    70.74880849
 O     13  12  10     2.384714443274   120.12291423   146.00187717
 C     13  12  10     2.782770269050   122.53289610   329.35667289
 C     15  13  12     2.650316541751   120.55318529   282.73668310
 C     16  15  13     2.644126638556   120.08637831   180.45021720
 C     17  16  15     2.640759710794   120.07984827     1.47538639
 C     18  17  16     2.640815390621   119.99014925     0.22595593
 C     19  18  17     2.643260973772   120.05386486   359.47275903
 C     12  10   9     2.822833966784   124.50929042   233.07490232
 C     21  12  10     2.871039173321   113.05362952   291.33153823
 N     22  21  12     2.704334409356   121.69263025   344.02453647
 O     22  21  12     2.383136197370   119.52071519   171.00891556
 C     21  12  10     2.881578215132   113.12747934    65.27472463
 C     25  21  12     2.669972681594   123.08908928   250.46153706
 C     26  25  21     2.641372949047   120.62070028   182.16753111
 C     27  26  25     2.636658955415   120.09678523     0.82667178
 C     28  27  26     2.638532379789   120.06047578     0.03806443
 C     29  28  27     2.641933390548   120.05059707   359.66598212
 H      1   2   3     2.091997467602   109.87524822   122.58293372
 H      1   2   3     2.095585474587   112.43474089     3.43730789
 H      1   2   3     2.092317550547   110.27563079   243.53060626
 H      5   3   2     2.045634466631   119.98394306   179.70240261
 H      8   6   5     2.030822815103   118.36998912   179.34404192
 H     10   9   8     2.093749741220   109.65232613   165.17279629
 H     11  10   9     2.100676426382   109.21183100   297.38731930
 H     11  10   9     2.087244081633   112.15592511   179.98646126
 H     11  10   9     2.091166901114   111.22391686    54.67498791
 H     16  15  13     2.045874425260   120.43475869     1.03089884
 H     17  16  15     2.044328545214   120.08544690   181.01820042
 H     18  17  16     2.045120904399   119.88719093   179.98760994
 H     19  18  17     2.044672970755   120.04998295   179.36462617
 H     20  19  18     2.046382964572   119.41756912   180.17200429
 H     21  12  10     2.102453076242   108.48257492   178.47234590
 H     23  22  21     1.970278066022   119.84017619   182.31968893
 H     23  22  21     1.967738721462   122.19632109   359.95907059
 H     26  25  21     2.038693184714   121.24593866     2.98113402
 H     27  26  25     2.047624731570   119.92267367   180.51404385
 H     28  27  26     2.042607049878   119.90997531   179.91896807
 H     29  28  27     2.046942852154   120.01440428   179.59055225
 H     30  29  28     2.047399210768   118.97627130   179.87449937

---------------------
BASIS SET INFORMATION
---------------------
There are 5 groups of distinct atoms

 Group   1 Type C   : 10s4p1d contracted to 3s2p1d pattern {631/31/1}
 Group   2 Type F   : 10s4p1d contracted to 3s2p1d pattern {631/31/1}
 Group   3 Type N   : 10s4p1d contracted to 3s2p1d pattern {631/31/1}
 Group   4 Type O   : 10s4p1d contracted to 3s2p1d pattern {631/31/1}
 Group   5 Type H   : 4s contracted to 2s pattern {31}

Atom   0C    basis set group =>   1
Atom   1C    basis set group =>   1
Atom   2C    basis set group =>   1
Atom   3F    basis set group =>   2
Atom   4C    basis set group =>   1
Atom   5C    basis set group =>   1
Atom   6F    basis set group =>   2
Atom   7C    basis set group =>   1
Atom   8C    basis set group =>   1
Atom   9C    basis set group =>   1
Atom  10C    basis set group =>   1
Atom  11N    basis set group =>   3
Atom  12C    basis set group =>   1
Atom  13O    basis set group =>   4
Atom  14C    basis set group =>   1
Atom  15C    basis set group =>   1
Atom  16C    basis set group =>   1
Atom  17C    basis set group =>   1
Atom  18C    basis set group =>   1
Atom  19C    basis set group =>   1
Atom  20C    basis set group =>   1
Atom  21C    basis set group =>   1
Atom  22N    basis set group =>   3
Atom  23O    basis set group =>   4
Atom  24C    basis set group =>   1
Atom  25C    basis set group =>   1
Atom  26C    basis set group =>   1
Atom  27C    basis set group =>   1
Atom  28C    basis set group =>   1
Atom  29C    basis set group =>   1
Atom  30H    basis set group =>   5
Atom  31H    basis set group =>   5
Atom  32H    basis set group =>   5
Atom  33H    basis set group =>   5
Atom  34H    basis set group =>   5
Atom  35H    basis set group =>   5
Atom  36H    basis set group =>   5
Atom  37H    basis set group =>   5
Atom  38H    basis set group =>   5
Atom  39H    basis set group =>   5
Atom  40H    basis set group =>   5
Atom  41H    basis set group =>   5
Atom  42H    basis set group =>   5
Atom  43H    basis set group =>   5
Atom  44H    basis set group =>   5
Atom  45H    basis set group =>   5
Atom  46H    basis set group =>   5
Atom  47H    basis set group =>   5
Atom  48H    basis set group =>   5
Atom  49H    basis set group =>   5
Atom  50H    basis set group =>   5
Atom  51H    basis set group =>   5
---------------------------------
AUXILIARY/J BASIS SET INFORMATION
---------------------------------
There are 5 groups of distinct atoms

 Group   1 Type C   : 12s5p4d2f1g contracted to 6s4p3d1f1g pattern {711111/2111/211/2/1}
 Group   2 Type F   : 12s5p4d2f1g contracted to 6s4p3d1f1g pattern {711111/2111/211/2/1}
 Group   3 Type N   : 12s5p4d2f1g contracted to 6s4p3d1f1g pattern {711111/2111/211/2/1}
 Group   4 Type O   : 12s5p4d2f1g contracted to 6s4p3d1f1g pattern {711111/2111/211/2/1}
 Group   5 Type H   : 5s2p1d contracted to 3s1p1d pattern {311/2/1}

Atom   0C    basis set group =>   1
Atom   1C    basis set group =>   1
Atom   2C    basis set group =>   1
Atom   3F    basis set group =>   2
Atom   4C    basis set group =>   1
Atom   5C    basis set group =>   1
Atom   6F    basis set group =>   2
Atom   7C    basis set group =>   1
Atom   8C    basis set group =>   1
Atom   9C    basis set group =>   1
Atom  10C    basis set group =>   1
Atom  11N    basis set group =>   3
Atom  12C    basis set group =>   1
Atom  13O    basis set group =>   4
Atom  14C    basis set group =>   1
Atom  15C    basis set group =>   1
Atom  16C    basis set group =>   1
Atom  17C    basis set group =>   1
Atom  18C    basis set group =>   1
Atom  19C    basis set group =>   1
Atom  20C    basis set group =>   1
Atom  21C    basis set group =>   1
Atom  22N    basis set group =>   3
Atom  23O    basis set group =>   4
Atom  24C    basis set group =>   1
Atom  25C    basis set group =>   1
Atom  26C    basis set group =>   1
Atom  27C    basis set group =>   1
Atom  28C    basis set group =>   1
Atom  29C    basis set group =>   1
Atom  30H    basis set group =>   5
Atom  31H    basis set group =>   5
Atom  32H    basis set group =>   5
Atom  33H    basis set group =>   5
Atom  34H    basis set group =>   5
Atom  35H    basis set group =>   5
Atom  36H    basis set group =>   5
Atom  37H    basis set group =>   5
Atom  38H    basis set group =>   5
Atom  39H    basis set group =>   5
Atom  40H    basis set group =>   5
Atom  41H    basis set group =>   5
Atom  42H    basis set group =>   5
Atom  43H    basis set group =>   5
Atom  44H    basis set group =>   5
Atom  45H    basis set group =>   5
Atom  46H    basis set group =>   5
Atom  47H    basis set group =>   5
Atom  48H    basis set group =>   5
Atom  49H    basis set group =>   5
Atom  50H    basis set group =>   5
Atom  51H    basis set group =>   5
------------------------------------------------------------------------------
                             ORCA STARTUP CALCULATIONS
                           -- RI-GTO INTEGRALS CHOSEN --
------------------------------------------------------------------------------
------------------------------------------------------------------------------
                   ___                                                        
                  /   \      - P O W E R E D   B Y -                         
                 /     \                                                     
                 |  |  |   _    _      __       _____    __    __             
                 |  |  |  | |  | |    /  \     |  _  \  |  |  /  |          
                  \  \/   | |  | |   /    \    | | | |  |  | /  /          
                 / \  \   | |__| |  /  /\  \   | |_| |  |  |/  /          
                |  |  |   |  __  | /  /__\  \  |    /   |      \           
                |  |  |   | |  | | |   __   |  |    \   |  |\   \          
                \     /   | |  | | |  |  |  |  | |\  \  |  | \   \       
                 \___/    |_|  |_| |__|  |__|  |_| \__\ |__|  \__/        
                                                                              
                      - O R C A' S   B I G   F R I E N D -                    
                                      &                                       
                       - I N T E G R A L  F E E D E R -                       
                                                                              
 v1 FN, 2020, v2 2021, v3 2022-2024                                           
------------------------------------------------------------------------------


----------------------
SHARK INTEGRAL PACKAGE
----------------------

Number of atoms                             ...     52
Number of basis functions                   ...    464
Number of shells                            ...    224
Maximum angular momentum                    ...      2
Integral batch strategy                     ... SHARK/LIBINT Hybrid
RI-J (if used) integral strategy            ... SPLIT-RIJ (Revised 2003 algorithm where possible)
Printlevel                                  ...      1
Contraction scheme used                     ... SEGMENTED contraction
Prescreening option                         ... SCHWARTZ
   Thresh                                   ... 1.000e-10
   Tcut                                     ... 1.000e-11
   Tpresel                                  ... 1.000e-11 
Coulomb Range Separation                    ... NOT USED
Exchange Range Separation                   ... NOT USED
Multipole approximations                    ... NOT USED
Finite Nucleus Model                        ... NOT USED
CABS basis                                  ... NOT available
Auxiliary Coulomb fitting basis             ... AVAILABLE
   # of basis functions in Aux-J            ...   1712
   # of shells in Aux-J                     ...    560
   Maximum angular momentum in Aux-J        ...      4
Auxiliary J/K fitting basis                 ... NOT available
Auxiliary Correlation fitting basis         ... NOT available
Auxiliary 'external' fitting basis          ... NOT available

Checking pre-screening integrals            ... done (  0.0 sec) Dimension = 224
Check shell pair data                       ... done (  0.0 sec)
Shell pair information
Shell pair cut-off parameter TPreSel        ...   1.0e-11
Total number of shell pairs                 ...     25200
Shell pairs after pre-screening             ...     17736
Total number of primitive shell pairs       ...    145687
Primitive shell pairs kept                  ...     52498
          la=0 lb=0:   5993 shell pairs
          la=1 lb=0:   6163 shell pairs
          la=1 lb=1:   1571 shell pairs
          la=2 lb=0:   2418 shell pairs
          la=2 lb=1:   1332 shell pairs
          la=2 lb=2:    259 shell pairs

Calculating one electron integrals          ... done (  0.2 sec)
Calculating RI/J V-Matrix + Cholesky decomp.... done (  0.3 sec)
Calculating Nuclear repulsion               ... done (  0.0 sec) ENN=   3021.196374739086 Eh

Diagonalization of the overlap matrix:
Smallest eigenvalue                        ... 4.555e-04
Time for diagonalization                   ...    0.025 sec
Threshold for overlap eigenvalues          ... 1.000e-07
Number of eigenvalues below threshold      ... 0
Time for construction of square roots      ...    0.024 sec
Total time needed                          ...    0.059 sec

-------------------
DFT GRID GENERATION
-------------------

General Integration Accuracy     IntAcc      ... 4.388
Radial Grid Type                 RadialGrid  ... OptM3 with GC (2021)
Angular Grid (max. ang.)         AngularGrid ... 4 (Lebedev-302)
Angular grid pruning method      GridPruning ... 4 (adaptive)
Weight generation scheme         WeightScheme... mBecke (2022)
Basis function cutoff            BFCut       ... 1.0000e-10
Integration weight cutoff        WCut        ... 1.0000e-14
Partially contracted basis set               ... off
Rotationally invariant grid construction     ... off
Angular grids for H and He will be reduced by one unit

Total number of grid points                  ...   247643
Total number of batches                      ...     3896
Average number of points per batch           ...       63
Average number of grid points per atom       ...     4762

--------------------
COSX GRID GENERATION
--------------------

GRIDX 1
-------
General Integration Accuracy     IntAcc      ... 3.816
Radial Grid Type                 RadialGrid  ... OptM3 with GC (2021)
Angular Grid (max. ang.)         AngularGrid ... 1 (Lebedev-50)
Angular grid pruning method      GridPruning ... 4 (adaptive)
Weight generation scheme         WeightScheme... mBecke (2022)
Basis function cutoff            BFCut       ... 1.0000e-10
Integration weight cutoff        WCut        ... 1.0000e-14
Partially contracted basis set               ... on
Rotationally invariant grid construction     ... off
Angular grids for H and He will be reduced by one unit

Total number of grid points                  ...    31309
Total number of batches                      ...      271
Average number of points per batch           ...      115
Average number of grid points per atom       ...      602
UseSFitting                                  ... on

GRIDX 2
-------
General Integration Accuracy     IntAcc      ... 4.020
Radial Grid Type                 RadialGrid  ... OptM3 with GC (2021)
Angular Grid (max. ang.)         AngularGrid ... 2 (Lebedev-110)
Angular grid pruning method      GridPruning ... 4 (adaptive)
Weight generation scheme         WeightScheme... mBecke (2022)
Basis function cutoff            BFCut       ... 1.0000e-10
Integration weight cutoff        WCut        ... 1.0000e-14
Partially contracted basis set               ... on
Rotationally invariant grid construction     ... off
Angular grids for H and He will be reduced by one unit

Total number of grid points                  ...    67739
Total number of batches                      ...      558
Average number of points per batch           ...      121
Average number of grid points per atom       ...     1303
UseSFitting                                  ... on

GRIDX 3
-------
General Integration Accuracy     IntAcc      ... 4.338
Radial Grid Type                 RadialGrid  ... OptM3 with GC (2021)
Angular Grid (max. ang.)         AngularGrid ... 3 (Lebedev-194)
Angular grid pruning method      GridPruning ... 4 (adaptive)
Weight generation scheme         WeightScheme... mBecke (2022)
Basis function cutoff            BFCut       ... 1.0000e-10
Integration weight cutoff        WCut        ... 1.0000e-14
Partially contracted basis set               ... on
Rotationally invariant grid construction     ... off
Angular grids for H and He will be reduced by one unit

Total number of grid points                  ...   147735
Total number of batches                      ...     1178
Average number of points per batch           ...      125
Average number of grid points per atom       ...     2841
UseSFitting                                  ... on
Initializing property integral containers    ... done (  0.0 sec)

SHARK setup successfully completed in   9.4 seconds

Maximum memory used throughout the entire STARTUP-calculation: 111.2 MB
-------------------------------------------------------------------------------
                                 ORCA GUESS
                   Start orbitals & Density for SCF / CASSCF
-------------------------------------------------------------------------------

------------
SCF SETTINGS
------------
Hamiltonian:
 Density Functional     Method          .... DFT(GTOs)
 Exchange Functional    Exchange        .... B88
   X-Alpha parameter    XAlpha          ....  0.666667
   Becke's b parameter  XBeta           ....  0.004200
 Correlation Functional Correlation     .... LYP
 LDA part of GGA corr.  LDAOpt          .... VWN-5
 Gradients option       PostSCFGGA      .... off
 Hybrid DFT is turned on
   Fraction HF Exchange ScalHFX         ....  0.200000
   Scaling of DF-GGA-X  ScalDFX         ....  0.720000
   Scaling of DF-GGA-C  ScalDFC         ....  0.810000
   Scaling of DF-LDA-C  ScalLDAC        ....  1.000000
   Perturbative correction              ....  0.000000
   NL short-range parameter             ....  4.800000
 RI-approximation to the Coulomb term is turned on
   Number of AuxJ basis functions       .... 1712
   RIJ-COSX (HFX calculated with COS-X)).... on


General Settings:
 Integral files         IntName         .... /home/nmrbox/aojoawo/Documents/ERDOS/inputs/CHEMBL4777635
 Hartree-Fock type      HFTyp           .... RHF
 Total Charge           Charge          ....    0
 Multiplicity           Mult            ....    1
 Number of Electrons    NEL             ....  214
 Basis Dimension        Dim             ....  464
 Nuclear Repulsion      ENuc            ....   3021.1963747391 Eh

Convergence Acceleration:
 AO-DIIS                CNVDIIS         .... on
   Start iteration      DIISMaxIt       ....    12
   Startup error        DIISStart       ....  0.200000
   # of expansion vecs  DIISMaxEq       ....     5
   Bias factor          DIISBfac        ....   1.050
   Max. coefficient     DIISMaxC        ....  10.000
 MO-DIIS                CNVKDIIS        .... off
 Trust-Rad. Augm. Hess. CNVTRAH         .... auto
   Auto Start mean grad. ratio tolernc. ....  1.125000
   Auto Start start iteration           ....    50
   Auto Start num. interpolation iter.  ....    10
   Max. Number of Micro iterations      ....    24
   Max. Number of Macro iterations      .... Maxiter - #DIIS iter
   Number of Davidson start vectors     ....     2
   Converg. threshold    (grad. norm)   ....   5.000e-05
   Grad. Scal. Fac. for Micro threshold ....   0.100
   Minimum threshold for Micro iter.    ....   1.000e-02
   NR start threshold (gradient norm)   ....   1.000e-04
   Initial trust radius                 ....   0.400
   Minimum AH scaling param. (alpha)    ....   1.000
   Maximum AH scaling param. (alpha)    .... 1000.000
   Quad. conv. algorithm                .... NR
   White noise on init. David. guess    .... on
   Maximum white noise                  ....   0.010
   Pseudo random numbers                .... off
   Inactive MOs                         .... canonical
   Orbital update algorithm             .... Taylor
   Preconditioner                       .... Diag
   Full preconditioner red. dimension   ....   250
 SOSCF                  CNVSOSCF        .... on
   Start iteration      SOSCFMaxIt      ....   150
   Startup grad/error   SOSCFStart      ....  0.003300
   Hessian update       SOSCFHessUp     .... L-BFGS
 Level Shifting         CNVShift        .... on
   Level shift para.    LevelShift      ....    0.2500
   Turn off err/grad.   ShiftErr        ....    0.0010
 Zerner damping         CNVZerner       .... off
 Static damping         CNVDamp         .... on
   Fraction old density DampFac         ....    0.7000
   Max. Damping (<1)    DampMax         ....    0.9800
   Min. Damping (>=0)   DampMin         ....    0.0000
   Turn off err/grad.   DampErr         ....    0.1000

SCF Procedure:
 Maximum # iterations   MaxIter         ....   125
 SCF integral mode      SCFMode         .... Direct
   Integral package                     .... SHARK and LIBINT hybrid scheme
 Reset frequency        DirectResetFreq ....    20
 Integral Threshold     Thresh          ....  1.000e-10 Eh
 Primitive CutOff       TCut            ....  1.000e-11 Eh

Convergence Tolerance:
 Convergence Check Mode ConvCheckMode   .... Total+1el-Energy
 Convergence forced     ConvForced      .... 0
 Energy Change          TolE            ....  1.000e-06 Eh
 1-El. energy change                    ....  1.000e-03 Eh
 Orbital Gradient       TolG            ....  5.000e-05
 Orbital Rotation angle TolX            ....  5.000e-05
 DIIS Error             TolErr          ....  1.000e-06

------------------------------
INITIAL GUESS: MODEL POTENTIAL
------------------------------
Loading Hartree-Fock densities                     ... done
Calculating cut-offs                               ... done
Initializing the effective Hamiltonian             ... done
Setting up the integral package (SHARK)            ... done
Starting the Coulomb interaction                   ... done (   2.3 sec)
Making the grid                                    ... done (   1.2 sec)
Mapping shells                                     ... done
Starting the XC term evaluation                    ... done (   1.0 sec)
  promolecular density results
     # of electrons  =    214.008531426
     EX              =   -179.477469329
     EC              =     -7.338083077
     EX+EC           =   -186.815552406
Transforming the Hamiltonian                       ... done (   0.0 sec)
Diagonalizing the Hamiltonian                      ... done (   0.0 sec)
Back transforming the eigenvectors                 ... done (   0.0 sec)
Now organizing SCF variables                       ... done
                      ------------------
                      INITIAL GUESS DONE (   4.5 sec)
                      ------------------
             **** ENERGY FILE WAS UPDATED (/home/nmrbox/aojoawo/Documents/ERDOS/inputs/CHEMBL4777635.en.tmp) ****
Finished Guess after   4.8 sec
Maximum memory used throughout the entire GUESS-calculation: 61.9 MB

-------------------------------------------------------------------------------------------
                                      ORCA LEAN-SCF
                              memory conserving SCF solver
-------------------------------------------------------------------------------------------

----------------------------------------D-I-I-S--------------------------------------------
Iteration    Energy (Eh)           Delta-E    RMSDP     MaxDP     DIISErr   Damp  Time(sec)
-------------------------------------------------------------------------------------------
               ***  Starting incremental Fock matrix formation  ***
    1    -1385.8661178826814648     0.00e+00  2.12e-03  1.09e-01  2.82e-01  0.700  45.2
    2    -1386.2047786769853701    -3.39e-01  1.39e-03  5.95e-02  1.00e-01  0.700  20.7
                               ***Turning on AO-DIIS***
    3    -1386.3333397337428323    -1.29e-01  5.77e-04  1.68e-02  3.59e-02  0.700  20.1
    4    -1386.4132817681320375    -7.99e-02  9.66e-04  2.81e-02  1.66e-02  0.000  17.9
    5    -1386.5888529552230466    -1.76e-01  2.20e-04  7.68e-03  6.28e-03  0.000  19.1
                              *** Initializing SOSCF ***
---------------------------------------S-O-S-C-F--------------------------------------
Iteration    Energy (Eh)           Delta-E    RMSDP     MaxDP     MaxGrad    Time(sec)
--------------------------------------------------------------------------------------
    6    -1386.5901366065581897    -1.28e-03  6.94e-05  2.58e-03  2.35e-03    16.5
               *** Restarting incremental Fock matrix formation ***
    7    -1386.5903062090037565    -1.70e-04  6.21e-05  3.97e-03  4.52e-04    46.9
    8    -1386.5902611230139883     4.51e-05  3.73e-05  3.19e-03  1.18e-03    26.2
    9    -1386.5903216086489920    -6.05e-05  1.18e-05  4.52e-04  9.77e-05    23.3
   10    -1386.5903200885750266     1.52e-06  7.27e-06  3.10e-04  1.48e-04    18.9
   11    -1386.5903223828136106    -2.29e-06  2.01e-06  6.39e-05  1.52e-05    17.3
   12    -1386.5903224899238921    -1.07e-07  1.17e-06  3.98e-05  2.18e-05    13.2
                 **** Energy Check signals convergence ****

               *****************************************************
               *                     SUCCESS                       *
               *           SCF CONVERGED AFTER  12 CYCLES          *
               *****************************************************

Recomputing exchange energy using gridx3       ... done (   78.288 sec)
Old exchange energy                            :    -36.398603702 Eh
New exchange energy                            :    -36.398557161 Eh
Exchange energy change after final integration :      0.000046541 Eh
Total energy after final integration           :  -1386.590275949 Eh
             **** ENERGY FILE WAS UPDATED (/home/nmrbox/aojoawo/Documents/ERDOS/inputs/CHEMBL4777635.en.tmp) ****

----------------
TOTAL SCF ENERGY
----------------

Total Energy       :      -1386.59027594858003 Eh          -37731.03962 eV

Components:
Nuclear Repulsion  :       3021.19637473908551 Eh           82210.93288 eV
Electronic Energy  :      -4407.78669722901031 Eh         -119941.97376 eV
One Electron Energy:      -7901.53304342970296 Eh         -215011.64509 eV
Two Electron Energy:       3493.74634620069310 Eh           95069.67133 eV

Virial components:
Potential Energy   :      -2764.43060317903837 Eh          -75223.98103 eV
Kinetic Energy     :       1377.84032723045812 Eh           37492.94141 eV
Virial Ratio       :          2.00635048092670

DFT components:
N(Alpha)           :      107.000132941698 electrons
N(Beta)            :      107.000132941698 electrons
N(Total)           :      214.000265883396 electrons
E(X)               :     -144.616668255915 Eh       
E(C)               :       -8.632331974960 Eh       
E(XC)              :     -153.249000230875 Eh       

---------------
SCF CONVERGENCE
---------------

  Last Energy change         ...    1.0711e-07  Tolerance :   1.0000e-06
  Last MAX-Density change    ...    3.9769e-05  Tolerance :   1.0000e-05
  Last RMS-Density change    ...    1.1737e-06  Tolerance :   1.0000e-06
  Last DIIS Error            ...    2.3504e-03  Tolerance :   1.0000e-06
  Last Orbital Gradient      ...    2.1777e-05  Tolerance :   5.0000e-05
  Last Orbital Rotation      ...    3.3333e-05  Tolerance :   5.0000e-05


----------------
ORBITAL ENERGIES
----------------

  NO   OCC          E(Eh)            E(eV) 
   0   2.0000     -24.707293      -672.3196 
   1   2.0000     -24.702562      -672.1909 
   2   2.0000     -19.126696      -520.4639 
   3   2.0000     -19.107596      -519.9441 
   4   2.0000     -14.368445      -390.9853 
   5   2.0000     -14.354257      -390.5992 
   6   2.0000     -10.298234      -280.2292 
   7   2.0000     -10.293374      -280.0969 
   8   2.0000     -10.276500      -279.6378 
   9   2.0000     -10.273669      -279.5607 
  10   2.0000     -10.247601      -278.8514 
  11   2.0000     -10.242061      -278.7006 
  12   2.0000     -10.209626      -277.8181 
  13   2.0000     -10.205614      -277.7089 
  14   2.0000     -10.204995      -277.6920 
  15   2.0000     -10.200035      -277.5571 
  16   2.0000     -10.197695      -277.4934 
  17   2.0000     -10.195141      -277.4239 
  18   2.0000     -10.193581      -277.3814 
  19   2.0000     -10.193395      -277.3764 
  20   2.0000     -10.192287      -277.3462 
  21   2.0000     -10.191703      -277.3304 
  22   2.0000     -10.187826      -277.2249 
  23   2.0000     -10.186646      -277.1927 
  24   2.0000     -10.185965      -277.1742 
  25   2.0000     -10.185122      -277.1513 
  26   2.0000     -10.184258      -277.1278 
  27   2.0000     -10.182589      -277.0823 
  28   2.0000     -10.182349      -277.0758 
  29   2.0000     -10.181914      -277.0640 
  30   2.0000      -1.219527       -33.1850 
  31   2.0000      -1.215618       -33.0786 
  32   2.0000      -1.025523       -27.9059 
  33   2.0000      -1.008049       -27.4304 
  34   2.0000      -0.930215       -25.3124 
  35   2.0000      -0.876028       -23.8379 
  36   2.0000      -0.868295       -23.6275 
  37   2.0000      -0.862288       -23.4640 
  38   2.0000      -0.851977       -23.1835 
  39   2.0000      -0.800875       -21.7929 
  40   2.0000      -0.778965       -21.1967 
  41   2.0000      -0.772648       -21.0248 
  42   2.0000      -0.759664       -20.6715 
  43   2.0000      -0.753955       -20.5162 
  44   2.0000      -0.744904       -20.2699 
  45   2.0000      -0.738798       -20.1037 
  46   2.0000      -0.705656       -19.2019 
  47   2.0000      -0.689994       -18.7757 
  48   2.0000      -0.649007       -17.6604 
  49   2.0000      -0.638525       -17.3751 
  50   2.0000      -0.616212       -16.7680 
  51   2.0000      -0.611156       -16.6304 
  52   2.0000      -0.609593       -16.5879 
  53   2.0000      -0.601201       -16.3595 
  54   2.0000      -0.597942       -16.2708 
  55   2.0000      -0.573307       -15.6005 
  56   2.0000      -0.561195       -15.2709 
  57   2.0000      -0.547159       -14.8890 
  58   2.0000      -0.538093       -14.6423 
  59   2.0000      -0.522979       -14.2310 
  60   2.0000      -0.518079       -14.0976 
  61   2.0000      -0.510394       -13.8885 
  62   2.0000      -0.498404       -13.5623 
  63   2.0000      -0.491943       -13.3865 
  64   2.0000      -0.483101       -13.1458 
  65   2.0000      -0.479638       -13.0516 
  66   2.0000      -0.468921       -12.7600 
  67   2.0000      -0.464167       -12.6306 
  68   2.0000      -0.460670       -12.5355 
  69   2.0000      -0.457752       -12.4561 
  70   2.0000      -0.455722       -12.4008 
  71   2.0000      -0.453397       -12.3375 
  72   2.0000      -0.447321       -12.1722 
  73   2.0000      -0.430945       -11.7266 
  74   2.0000      -0.430112       -11.7040 
  75   2.0000      -0.429225       -11.6798 
  76   2.0000      -0.425149       -11.5689 
  77   2.0000      -0.423108       -11.5134 
  78   2.0000      -0.418349       -11.3839 
  79   2.0000      -0.416651       -11.3377 
  80   2.0000      -0.402353       -10.9486 
  81   2.0000      -0.397512       -10.8168 
  82   2.0000      -0.397102       -10.8057 
  83   2.0000      -0.395538       -10.7631 
  84   2.0000      -0.383141       -10.4258 
  85   2.0000      -0.376862       -10.2549 
  86   2.0000      -0.370813       -10.0903 
  87   2.0000      -0.369438       -10.0529 
  88   2.0000      -0.366528        -9.9737 
  89   2.0000      -0.362758        -9.8711 
  90   2.0000      -0.361035        -9.8243 
  91   2.0000      -0.353508        -9.6194 
  92   2.0000      -0.349740        -9.5169 
  93   2.0000      -0.345154        -9.3921 
  94   2.0000      -0.344513        -9.3747 
  95   2.0000      -0.336522        -9.1572 
  96   2.0000      -0.335481        -9.1289 
  97   2.0000      -0.279717        -7.6115 
  98   2.0000      -0.270592        -7.3632 
  99   2.0000      -0.258900        -7.0450 
 100   2.0000      -0.258173        -7.0253 
 101   2.0000      -0.251114        -6.8332 
 102   2.0000      -0.249577        -6.7913 
 103   2.0000      -0.246019        -6.6945 
 104   2.0000      -0.238724        -6.4960 
 105   2.0000      -0.237491        -6.4625 
 106   2.0000      -0.225002        -6.1226 
 107   0.0000      -0.031427        -0.8552 
 108   0.0000      -0.017590        -0.4786 
 109   0.0000      -0.010813        -0.2942 
 110   0.0000      -0.007767        -0.2114 
 111   0.0000      -0.004857        -0.1322 
 112   0.0000       0.000407         0.0111 
 113   0.0000       0.005823         0.1584 
 114   0.0000       0.011578         0.3151 
 115   0.0000       0.047937         1.3044 
 116   0.0000       0.083266         2.2658 
 117   0.0000       0.086657         2.3581 
*Only the first 10 virtual orbitals were printed.

                    ********************************
                    * MULLIKEN POPULATION ANALYSIS *
                    ********************************

-----------------------
MULLIKEN ATOMIC CHARGES
-----------------------
   0 C :   -0.544446
   1 C :    0.038224
   2 C :    0.383375
   3 F :   -0.317115
   4 C :   -0.299014
   5 C :    0.431942
   6 F :   -0.319563
   7 C :   -0.277337
   8 C :    0.130945
   9 C :   -0.030056
  10 C :   -0.481263
  11 N :   -0.458092
  12 C :    0.408625
  13 O :   -0.454376
  14 C :    0.099007
  15 C :   -0.137605
  16 C :   -0.127799
  17 C :   -0.118203
  18 C :   -0.130214
  19 C :   -0.155683
  20 C :   -0.139897
  21 C :    0.565951
  22 N :   -0.769880
  23 O :   -0.478564
  24 C :    0.160854
  25 C :   -0.145063
  26 C :   -0.136482
  27 C :   -0.121135
  28 C :   -0.124936
  29 C :   -0.186512
  30 H :    0.156282
  31 H :    0.172076
  32 H :    0.167678
  33 H :    0.153607
  34 H :    0.161936
  35 H :    0.134984
  36 H :    0.159251
  37 H :    0.165882
  38 H :    0.182897
  39 H :    0.143079
  40 H :    0.138415
  41 H :    0.135940
  42 H :    0.135619
  43 H :    0.132582
  44 H :    0.227837
  45 H :    0.349962
  46 H :    0.340469
  47 H :    0.144241
  48 H :    0.132965
  49 H :    0.130223
  50 H :    0.133891
  51 H :    0.134495
Sum of atomic charges:   -0.0000000

--------------------------------
MULLIKEN REDUCED ORBITAL CHARGES
--------------------------------
  0 C s       :     3.321661  s :     3.321661
      pz      :     1.012897  p :     3.188369
      px      :     1.083197
      py      :     1.092276
      dz2     :     0.008700  d :     0.034416
      dxz     :     0.009179
      dyz     :     0.003801
      dx2y2   :     0.007246
      dxy     :     0.005490

  1 C s       :     3.151839  s :     3.151839
      pz      :     0.867810  p :     2.770967
      px      :     0.934396
      py      :     0.968762
      dz2     :     0.008184  d :     0.038970
      dxz     :     0.010883
      dyz     :     0.006875
      dx2y2   :     0.006849
      dxy     :     0.006178

  2 C s       :     3.103112  s :     3.103112
      pz      :     0.879531  p :     2.441269
      px      :     0.642217
      py      :     0.919521
      dz2     :     0.014797  d :     0.072243
      dxz     :     0.017970
      dyz     :     0.009700
      dx2y2   :     0.015143
      dxy     :     0.014633

  3 F s       :     3.974473  s :     3.974473
      pz      :     1.885067  p :     5.325537
      px      :     1.583312
      py      :     1.857158
      dz2     :     0.002243  d :     0.017105
      dxz     :     0.004153
      dyz     :     0.001108
      dx2y2   :     0.004898
      dxy     :     0.004703

  4 C s       :     3.215338  s :     3.215338
      pz      :     1.006757  p :     3.050626
      px      :     1.008549
      py      :     1.035321
      dz2     :     0.006864  d :     0.033050
      dxz     :     0.008176
      dyz     :     0.006725
      dx2y2   :     0.004688
      dxy     :     0.006598

  5 C s       :     3.080992  s :     3.080992
      pz      :     0.646128  p :     2.413564
      px      :     0.849968
      py      :     0.917467
      dz2     :     0.020088  d :     0.073503
      dxz     :     0.018917
      dyz     :     0.014287
      dx2y2   :     0.010297
      dxy     :     0.009914

  6 F s       :     3.972073  s :     3.972073
      pz      :     1.588638  p :     5.330378
      px      :     1.866890
      py      :     1.874849
      dz2     :     0.006013  d :     0.017113
      dxz     :     0.004640
      dyz     :     0.004299
      dx2y2   :     0.000992
      dxy     :     0.001168

  7 C s       :     3.225905  s :     3.225905
      pz      :     1.006665  p :     3.017155
      px      :     1.002406
      py      :     1.008083
      dz2     :     0.007309  d :     0.034277
      dxz     :     0.009213
      dyz     :     0.006382
      dx2y2   :     0.006299
      dxy     :     0.005074

  8 C s       :     3.166070  s :     3.166070
      pz      :     0.878921  p :     2.663516
      px      :     0.883498
      py      :     0.901098
      dz2     :     0.008244  d :     0.039469
      dxz     :     0.009533
      dyz     :     0.007563
      dx2y2   :     0.006699
      dxy     :     0.007430

  9 C s       :     3.194824  s :     3.194824
      pz      :     0.934093  p :     2.777118
      px      :     0.973425
      py      :     0.869601
      dz2     :     0.007933  d :     0.058114
      dxz     :     0.013769
      dyz     :     0.015197
      dx2y2   :     0.008362
      dxy     :     0.012853

 10 C s       :     3.319009  s :     3.319009
      pz      :     1.059907  p :     3.128070
      px      :     1.021866
      py      :     1.046297
      dz2     :     0.001294  d :     0.034183
      dxz     :     0.010466
      dyz     :     0.010625
      dx2y2   :     0.001510
      dxy     :     0.010288

 11 N s       :     3.584279  s :     3.584279
      pz      :     1.511596  p :     3.841844
      px      :     1.077518
      py      :     1.252730
      dz2     :     0.003804  d :     0.031969
      dxz     :     0.005639
      dyz     :     0.005033
      dx2y2   :     0.007346
      dxy     :     0.010148

 12 C s       :     3.064193  s :     3.064193
      pz      :     0.813001  p :     2.428537
      px      :     0.853631
      py      :     0.761905
      dz2     :     0.007133  d :     0.098645
      dxz     :     0.007471
      dyz     :     0.019827
      dx2y2   :     0.028465
      dxy     :     0.035748

 13 O s       :     3.893962  s :     3.893962
      pz      :     1.447421  p :     4.534717
      px      :     1.731584
      py      :     1.355712
      dz2     :     0.002568  d :     0.025696
      dxz     :     0.000850
      dyz     :     0.008240
      dx2y2   :     0.007619
      dxy     :     0.006419

 14 C s       :     3.128588  s :     3.128588
      pz      :     0.907627  p :     2.732463
      px      :     0.871967
      py      :     0.952869
      dz2     :     0.009490  d :     0.039942
      dxz     :     0.010320
      dyz     :     0.005867
      dx2y2   :     0.008206
      dxy     :     0.006060

 15 C s       :     3.194137  s :     3.194137
      pz      :     0.963760  p :     2.907061
      px      :     0.969680
      py      :     0.973620
      dz2     :     0.007075  d :     0.036407
      dxz     :     0.012565
      dyz     :     0.004736
      dx2y2   :     0.006122
      dxy     :     0.005909

 16 C s       :     3.191847  s :     3.191847
      pz      :     0.984119  p :     2.899940
      px      :     0.934347
      py      :     0.981474
      dz2     :     0.007652  d :     0.036011
      dxz     :     0.009963
      dyz     :     0.005420
      dx2y2   :     0.006186
      dxy     :     0.006790

 17 C s       :     3.186679  s :     3.186679
      pz      :     0.944585  p :     2.895341
      px      :     0.978590
      py      :     0.972167
      dz2     :     0.009263  d :     0.036184
      dxz     :     0.009002
      dyz     :     0.005460
      dx2y2   :     0.007880
      dxy     :     0.004579

 18 C s       :     3.190452  s :     3.190452
      pz      :     0.966203  p :     2.903675
      px      :     0.956176
      py      :     0.981296
      dz2     :     0.006705  d :     0.036087
      dxz     :     0.012445
      dyz     :     0.004554
      dx2y2   :     0.006255
      dxy     :     0.006128

 19 C s       :     3.197514  s :     3.197514
      pz      :     0.983562  p :     2.921773
      px      :     0.953452
      py      :     0.984759
      dz2     :     0.007519  d :     0.036396
      dxz     :     0.010026
      dyz     :     0.005277
      dx2y2   :     0.006213
      dxy     :     0.007362

 20 C s       :     3.236087  s :     3.236087
      pz      :     1.013971  p :     2.847802
      px      :     0.801303
      py      :     1.032528
      dz2     :     0.008658  d :     0.056008
      dxz     :     0.011643
      dyz     :     0.011477
      dx2y2   :     0.014087
      dxy     :     0.010143

 21 C s       :     3.028899  s :     3.028899
      pz      :     0.798015  p :     2.306437
      px      :     0.718797
      py      :     0.789625
      dz2     :     0.014097  d :     0.098714
      dxz     :     0.036917
      dyz     :     0.007891
      dx2y2   :     0.015468
      dxy     :     0.024340

 22 N s       :     3.615242  s :     3.615242
      pz      :     1.285647  p :     4.132252
      px      :     1.198120
      py      :     1.648485
      dz2     :     0.005966  d :     0.022386
      dxz     :     0.004794
      dyz     :     0.003588
      dx2y2   :     0.006263
      dxy     :     0.001775

 23 O s       :     3.890137  s :     3.890137
      pz      :     1.721882  p :     4.562823
      px      :     1.341627
      py      :     1.499314
      dz2     :     0.002722  d :     0.025604
      dxz     :     0.006508
      dyz     :     0.000318
      dx2y2   :     0.007460
      dxy     :     0.008596

 24 C s       :     3.124818  s :     3.124818
      pz      :     0.872391  p :     2.675128
      px      :     0.912742
      py      :     0.889996
      dz2     :     0.010308  d :     0.039200
      dxz     :     0.009022
      dyz     :     0.009232
      dx2y2   :     0.004905
      dxy     :     0.005734

 25 C s       :     3.209933  s :     3.209933
      pz      :     0.992381  p :     2.899148
      px      :     0.959063
      py      :     0.947703
      dz2     :     0.012151  d :     0.035982
      dxz     :     0.006000
      dyz     :     0.006134
      dx2y2   :     0.006198
      dxy     :     0.005498

 26 C s       :     3.189194  s :     3.189194
      pz      :     0.942975  p :     2.911057
      px      :     0.988451
      py      :     0.979632
      dz2     :     0.008698  d :     0.036231
      dxz     :     0.009334
      dyz     :     0.009191
      dx2y2   :     0.003235
      dxy     :     0.005773

 27 C s       :     3.186090  s :     3.186090
      pz      :     0.948009  p :     2.898770
      px      :     0.970505
      py      :     0.980256
      dz2     :     0.008865  d :     0.036276
      dxz     :     0.008974
      dyz     :     0.009384
      dx2y2   :     0.003090
      dxy     :     0.005962

 28 C s       :     3.185730  s :     3.185730
      pz      :     0.981301  p :     2.903024
      px      :     0.962597
      py      :     0.959126
      dz2     :     0.012235  d :     0.036182
      dxz     :     0.006015
      dyz     :     0.006220
      dx2y2   :     0.006242
      dxy     :     0.005469

 29 C s       :     3.214382  s :     3.214382
      pz      :     0.961348  p :     2.936154
      px      :     0.985204
      py      :     0.989602
      dz2     :     0.008711  d :     0.035976
      dxz     :     0.009371
      dyz     :     0.008965
      dx2y2   :     0.003243
      dxy     :     0.005686

 30 H s       :     0.843718  s :     0.843718

 31 H s       :     0.827924  s :     0.827924

 32 H s       :     0.832322  s :     0.832322

 33 H s       :     0.846393  s :     0.846393

 34 H s       :     0.838064  s :     0.838064

 35 H s       :     0.865016  s :     0.865016

 36 H s       :     0.840749  s :     0.840749

 37 H s       :     0.834118  s :     0.834118

 38 H s       :     0.817103  s :     0.817103

 39 H s       :     0.856921  s :     0.856921

 40 H s       :     0.861585  s :     0.861585

 41 H s       :     0.864060  s :     0.864060

 42 H s       :     0.864381  s :     0.864381

 43 H s       :     0.867418  s :     0.867418

 44 H s       :     0.772163  s :     0.772163

 45 H s       :     0.650038  s :     0.650038

 46 H s       :     0.659531  s :     0.659531

 47 H s       :     0.855759  s :     0.855759

 48 H s       :     0.867035  s :     0.867035

 49 H s       :     0.869777  s :     0.869777

 50 H s       :     0.866109  s :     0.866109

 51 H s       :     0.865505  s :     0.865505



                     *******************************
                     * LOEWDIN POPULATION ANALYSIS *
                     *******************************

----------------------
LOEWDIN ATOMIC CHARGES
----------------------
   0 C :   -0.363308
   1 C :   -0.054875
   2 C :    0.121111
   3 F :   -0.101332
   4 C :   -0.188564
   5 C :    0.115684
   6 F :   -0.103439
   7 C :   -0.170870
   8 C :   -0.006217
   9 C :   -0.044760
  10 C :   -0.361071
  11 N :   -0.117947
  12 C :    0.143541
  13 O :   -0.263480
  14 C :   -0.038908
  15 C :   -0.106329
  16 C :   -0.122812
  17 C :   -0.122147
  18 C :   -0.128304
  19 C :   -0.121364
  20 C :   -0.069267
  21 C :    0.138961
  22 N :   -0.397429
  23 O :   -0.289391
  24 C :   -0.020433
  25 C :   -0.113515
  26 C :   -0.130488
  27 C :   -0.125303
  28 C :   -0.129904
  29 C :   -0.132136
  30 H :    0.130741
  31 H :    0.140952
  32 H :    0.137937
  33 H :    0.151587
  34 H :    0.152350
  35 H :    0.121851
  36 H :    0.135574
  37 H :    0.134301
  38 H :    0.143658
  39 H :    0.139379
  40 H :    0.136688
  41 H :    0.135266
  42 H :    0.135103
  43 H :    0.133637
  44 H :    0.185722
  45 H :    0.264494
  46 H :    0.251331
  47 H :    0.140386
  48 H :    0.133645
  49 H :    0.132564
  50 H :    0.134265
  51 H :    0.132863

-------------------------------
LOEWDIN REDUCED ORBITAL CHARGES
-------------------------------
  0 C s       :     2.970116  s :     2.970116
      pz      :     1.066746  p :     3.325897
      px      :     1.126929
      py      :     1.132223
      dz2     :     0.017913  d :     0.067294
      dxz     :     0.018463
      dyz     :     0.007821
      dx2y2   :     0.013190
      dxy     :     0.009907

  1 C s       :     2.881033  s :     2.881033
      pz      :     1.025931  p :     3.078399
      px      :     1.032484
      py      :     1.019984
      dz2     :     0.020595  d :     0.095443
      dxz     :     0.026955
      dyz     :     0.016384
      dx2y2   :     0.015479
      dxy     :     0.016030

  2 C s       :     2.864161  s :     2.864161
      pz      :     1.031628  p :     2.836840
      px      :     0.819515
      py      :     0.985697
      dz2     :     0.035982  d :     0.177888
      dxz     :     0.047158
      dyz     :     0.022487
      dx2y2   :     0.035786
      dxy     :     0.036475

  3 F s       :     3.735541  s :     3.735541
      pz      :     1.880061  p :     5.331322
      px      :     1.597368
      py      :     1.853892
      dz2     :     0.004576  d :     0.034469
      dxz     :     0.008233
      dyz     :     0.002177
      dx2y2   :     0.009933
      dxy     :     0.009550

  4 C s       :     2.922257  s :     2.922257
      pz      :     1.059782  p :     3.186885
      px      :     1.060768
      py      :     1.066335
      dz2     :     0.018042  d :     0.079422
      dxz     :     0.021537
      dyz     :     0.014287
      dx2y2   :     0.011216
      dxy     :     0.014341

  5 C s       :     2.859623  s :     2.859623
      pz      :     0.824228  p :     2.842573
      px      :     1.024316
      py      :     0.994029
      dz2     :     0.048619  d :     0.182120
      dxz     :     0.049642
      dyz     :     0.035660
      dx2y2   :     0.024901
      dxy     :     0.023300

  6 F s       :     3.734985  s :     3.734985
      pz      :     1.601895  p :     5.334155
      px      :     1.862740
      py      :     1.869520
      dz2     :     0.012191  d :     0.034299
      dxz     :     0.009228
      dyz     :     0.008699
      dx2y2   :     0.001884
      dxy     :     0.002298

  7 C s       :     2.918474  s :     2.918474
      pz      :     1.053170  p :     3.171066
      px      :     1.077701
      py      :     1.040195
      dz2     :     0.018745  d :     0.081330
      dxz     :     0.021963
      dyz     :     0.016994
      dx2y2   :     0.012344
      dxy     :     0.011284

  8 C s       :     2.886203  s :     2.886203
      pz      :     1.024514  p :     3.022672
      px      :     1.014512
      py      :     0.983645
      dz2     :     0.020846  d :     0.097342
      dxz     :     0.025502
      dyz     :     0.018160
      dx2y2   :     0.015344
      dxy     :     0.017490

  9 C s       :     2.887231  s :     2.887231
      pz      :     1.014077  p :     3.031205
      px      :     1.043611
      py      :     0.973517
      dz2     :     0.015468  d :     0.126324
      dxz     :     0.030234
      dyz     :     0.034322
      dx2y2   :     0.017090
      dxy     :     0.029210

 10 C s       :     2.985662  s :     2.985662
      pz      :     1.109072  p :     3.309006
      px      :     1.093026
      py      :     1.106908
      dz2     :     0.002495  d :     0.066403
      dxz     :     0.020298
      dyz     :     0.019998
      dx2y2   :     0.003246
      dxy     :     0.020366

 11 N s       :     3.141694  s :     3.141694
      pz      :     1.496068  p :     3.896558
      px      :     1.136111
      py      :     1.264379
      dz2     :     0.008939  d :     0.079696
      dxz     :     0.013690
      dyz     :     0.010494
      dx2y2   :     0.019680
      dxy     :     0.026893

 12 C s       :     2.869637  s :     2.869637
      pz      :     0.816132  p :     2.758042
      px      :     0.978687
      py      :     0.963223
      dz2     :     0.016228  d :     0.228779
      dxz     :     0.015366
      dyz     :     0.041892
      dx2y2   :     0.068661
      dxy     :     0.086631

 13 O s       :     3.593566  s :     3.593566
      pz      :     1.441727  p :     4.619131
      px      :     1.730516
      py      :     1.446888
      dz2     :     0.006411  d :     0.050783
      dxz     :     0.001139
      dyz     :     0.012132
      dx2y2   :     0.017440
      dxy     :     0.013662

 14 C s       :     2.872182  s :     2.872182
      pz      :     1.054913  p :     3.066103
      px      :     1.022075
      py      :     0.989115
      dz2     :     0.024581  d :     0.100622
      dxz     :     0.027870
      dyz     :     0.014219
      dx2y2   :     0.019595
      dxy     :     0.014357

 15 C s       :     2.917070  s :     2.917070
      pz      :     1.046133  p :     3.104459
      px      :     1.073365
      py      :     0.984960
      dz2     :     0.017113  d :     0.084800
      dxz     :     0.029807
      dyz     :     0.010075
      dx2y2   :     0.014246
      dxy     :     0.013560

 16 C s       :     2.918324  s :     2.918324
      pz      :     1.055010  p :     3.119802
      px      :     1.068226
      py      :     0.996565
      dz2     :     0.017182  d :     0.084686
      dxz     :     0.025639
      dyz     :     0.009496
      dx2y2   :     0.016707
      dxy     :     0.015661

 17 C s       :     2.918575  s :     2.918575
      pz      :     1.049824  p :     3.118706
      px      :     1.074619
      py      :     0.994264
      dz2     :     0.022650  d :     0.084866
      dxz     :     0.023261
      dyz     :     0.013731
      dx2y2   :     0.015429
      dxy     :     0.009795

 18 C s       :     2.917872  s :     2.917872
      pz      :     1.054426  p :     3.125594
      px      :     1.069124
      py      :     1.002043
      dz2     :     0.016564  d :     0.084839
      dxz     :     0.029264
      dyz     :     0.010169
      dx2y2   :     0.014770
      dxy     :     0.014071

 19 C s       :     2.916424  s :     2.916424
      pz      :     1.053314  p :     3.119829
      px      :     1.059969
      py      :     1.006547
      dz2     :     0.016857  d :     0.085111
      dxz     :     0.025401
      dyz     :     0.009266
      dx2y2   :     0.016850
      dxy     :     0.016737

 20 C s       :     2.895066  s :     2.895066
      pz      :     1.067600  p :     3.050205
      px      :     0.905628
      py      :     1.076977
      dz2     :     0.019657  d :     0.123996
      dxz     :     0.026054
      dyz     :     0.024411
      dx2y2   :     0.030882
      dxy     :     0.022993

 21 C s       :     2.881564  s :     2.881564
      pz      :     0.944472  p :     2.750904
      px      :     0.972859
      py      :     0.833572
      dz2     :     0.032249  d :     0.228572
      dxz     :     0.089919
      dyz     :     0.016118
      dx2y2   :     0.038202
      dxy     :     0.052084

 22 N s       :     3.214862  s :     3.214862
      pz      :     1.294946  p :     4.133882
      px      :     1.207419
      py      :     1.631517
      dz2     :     0.012829  d :     0.048685
      dxz     :     0.013373
      dyz     :     0.006685
      dx2y2   :     0.011396
      dxy     :     0.004403

 23 O s       :     3.589735  s :     3.589735
      pz      :     1.715866  p :     4.649533
      px      :     1.437967
      py      :     1.495700
      dz2     :     0.006661  d :     0.050123
      dxz     :     0.011519
      dyz     :     0.000505
      dx2y2   :     0.018352
      dxy     :     0.013086

 24 C s       :     2.879686  s :     2.879686
      pz      :     1.051242  p :     3.042910
      px      :     1.002448
      py      :     0.989220
      dz2     :     0.028193  d :     0.097836
      dxz     :     0.022959
      dyz     :     0.023015
      dx2y2   :     0.009933
      dxy     :     0.013736

 25 C s       :     2.920717  s :     2.920717
      pz      :     1.081974  p :     3.109261
      px      :     1.014912
      py      :     1.012375
      dz2     :     0.025378  d :     0.083538
      dxz     :     0.014765
      dyz     :     0.015244
      dx2y2   :     0.013233
      dxy     :     0.014918

 26 C s       :     2.917479  s :     2.917479
      pz      :     1.071004  p :     3.127747
      px      :     1.027545
      py      :     1.029199
      dz2     :     0.023720  d :     0.085261
      dxz     :     0.021501
      dyz     :     0.022416
      dx2y2   :     0.006184
      dxy     :     0.011440

 27 C s       :     2.917491  s :     2.917491
      pz      :     1.072154  p :     3.122352
      px      :     1.023709
      py      :     1.026488
      dz2     :     0.024062  d :     0.085460
      dxz     :     0.021990
      dyz     :     0.021942
      dx2y2   :     0.005939
      dxy     :     0.011528

 28 C s       :     2.917187  s :     2.917187
      pz      :     1.072674  p :     3.127620
      px      :     1.026782
      py      :     1.028165
      dz2     :     0.025798  d :     0.085096
      dxz     :     0.014971
      dyz     :     0.015494
      dx2y2   :     0.013728
      dxy     :     0.015105

 29 C s       :     2.919684  s :     2.919684
      pz      :     1.057851  p :     3.128517
      px      :     1.033049
      py      :     1.037616
      dz2     :     0.023044  d :     0.083936
      dxz     :     0.021370
      dyz     :     0.021793
      dx2y2   :     0.006355
      dxy     :     0.011374

 30 H s       :     0.869259  s :     0.869259

 31 H s       :     0.859048  s :     0.859048

 32 H s       :     0.862063  s :     0.862063

 33 H s       :     0.848413  s :     0.848413

 34 H s       :     0.847650  s :     0.847650

 35 H s       :     0.878149  s :     0.878149

 36 H s       :     0.864426  s :     0.864426

 37 H s       :     0.865699  s :     0.865699

 38 H s       :     0.856342  s :     0.856342

 39 H s       :     0.860621  s :     0.860621

 40 H s       :     0.863312  s :     0.863312

 41 H s       :     0.864734  s :     0.864734

 42 H s       :     0.864897  s :     0.864897

 43 H s       :     0.866363  s :     0.866363

 44 H s       :     0.814278  s :     0.814278

 45 H s       :     0.735506  s :     0.735506

 46 H s       :     0.748669  s :     0.748669

 47 H s       :     0.859614  s :     0.859614

 48 H s       :     0.866355  s :     0.866355

 49 H s       :     0.867436  s :     0.867436

 50 H s       :     0.865735  s :     0.865735

 51 H s       :     0.867137  s :     0.867137



                      *****************************
                      * MAYER POPULATION ANALYSIS *
                      *****************************

  NA   - Mulliken gross atomic population
  ZA   - Total nuclear charge
  QA   - Mulliken gross atomic charge
  VA   - Mayer's total valence
  BVA  - Mayer's bonded valence
  FA   - Mayer's free valence

  ATOM       NA         ZA         QA         VA         BVA        FA
  0 C      6.5444     6.0000    -0.5444     3.8210     3.8210     0.0000
  1 C      5.9618     6.0000     0.0382     3.8642     3.8642    -0.0000
  2 C      5.6166     6.0000     0.3834     3.7878     3.7878    -0.0000
  3 F      9.3171     9.0000    -0.3171     1.0479     1.0479    -0.0000
  4 C      6.2990     6.0000    -0.2990     3.8257     3.8257    -0.0000
  5 C      5.5681     6.0000     0.4319     3.7988     3.7988     0.0000
  6 F      9.3196     9.0000    -0.3196     1.0443     1.0443     0.0000
  7 C      6.2773     6.0000    -0.2773     3.8493     3.8493     0.0000
  8 C      5.8691     6.0000     0.1309     3.8754     3.8754    -0.0000
  9 C      6.0301     6.0000    -0.0301     3.8587     3.8587     0.0000
 10 C      6.4813     6.0000    -0.4813     3.8125     3.8125     0.0000
 11 N      7.4581     7.0000    -0.4581     2.9524     2.9524    -0.0000
 12 C      5.5914     6.0000     0.4086     3.9208     3.9208    -0.0000
 13 O      8.4544     8.0000    -0.4544     2.0394     2.0394     0.0000
 14 C      5.9010     6.0000     0.0990     3.8883     3.8883     0.0000
 15 C      6.1376     6.0000    -0.1376     3.9425     3.9425    -0.0000
 16 C      6.1278     6.0000    -0.1278     3.9498     3.9498    -0.0000
 17 C      6.1182     6.0000    -0.1182     3.9459     3.9459    -0.0000
 18 C      6.1302     6.0000    -0.1302     3.9436     3.9436     0.0000
 19 C      6.1557     6.0000    -0.1557     3.9511     3.9511    -0.0000
 20 C      6.1399     6.0000    -0.1399     3.7670     3.7670     0.0000
 21 C      5.4340     6.0000     0.5660     3.8526     3.8526    -0.0000
 22 N      7.7699     7.0000    -0.7699     2.8556     2.8556    -0.0000
 23 O      8.4786     8.0000    -0.4786     2.0365     2.0365    -0.0000
 24 C      5.8391     6.0000     0.1609     3.9227     3.9227     0.0000
 25 C      6.1451     6.0000    -0.1451     3.9291     3.9291     0.0000
 26 C      6.1365     6.0000    -0.1365     3.9390     3.9390     0.0000
 27 C      6.1211     6.0000    -0.1211     3.9504     3.9504     0.0000
 28 C      6.1249     6.0000    -0.1249     3.9449     3.9449    -0.0000
 29 C      6.1865     6.0000    -0.1865     3.9274     3.9274    -0.0000
 30 H      0.8437     1.0000     0.1563     0.9306     0.9306     0.0000
 31 H      0.8279     1.0000     0.1721     0.9423     0.9423     0.0000
 32 H      0.8323     1.0000     0.1677     0.9388     0.9388    -0.0000
 33 H      0.8464     1.0000     0.1536     0.9372     0.9372    -0.0000
 34 H      0.8381     1.0000     0.1619     0.9477     0.9477    -0.0000
 35 H      0.8650     1.0000     0.1350     0.9371     0.9371     0.0000
 36 H      0.8407     1.0000     0.1593     0.9354     0.9354     0.0000
 37 H      0.8341     1.0000     0.1659     0.9429     0.9429    -0.0000
 38 H      0.8171     1.0000     0.1829     0.9396     0.9396    -0.0000
 39 H      0.8569     1.0000     0.1431     0.9413     0.9413    -0.0000
 40 H      0.8616     1.0000     0.1384     0.9363     0.9363    -0.0000
 41 H      0.8641     1.0000     0.1359     0.9353     0.9353     0.0000
 42 H      0.8644     1.0000     0.1356     0.9358     0.9358     0.0000
 43 H      0.8674     1.0000     0.1326     0.9385     0.9385     0.0000
 44 H      0.7722     1.0000     0.2278     0.9259     0.9259    -0.0000
 45 H      0.6500     1.0000     0.3500     0.8583     0.8583    -0.0000
 46 H      0.6595     1.0000     0.3405     0.8609     0.8609    -0.0000
 47 H      0.8558     1.0000     0.1442     0.9505     0.9505     0.0000
 48 H      0.8670     1.0000     0.1330     0.9364     0.9364     0.0000
 49 H      0.8698     1.0000     0.1302     0.9360     0.9360    -0.0000
 50 H      0.8661     1.0000     0.1339     0.9361     0.9361    -0.0000
 51 H      0.8655     1.0000     0.1345     0.9389     0.9389     0.0000

  Mayer bond orders larger than 0.100000
B(  0-C ,  1-C ) :   0.9812 B(  0-C , 30-H ) :   0.9319 B(  0-C , 31-H ) :   0.9372 
B(  0-C , 32-H ) :   0.9190 B(  1-C ,  2-C ) :   1.3626 B(  1-C ,  8-C ) :   1.3857 
B(  2-C ,  3-F ) :   0.8957 B(  2-C ,  4-C ) :   1.3606 B(  4-C ,  5-C ) :   1.3669 
B(  4-C , 33-H ) :   0.9119 B(  5-C ,  6-F ) :   0.9055 B(  5-C ,  7-C ) :   1.3854 
B(  7-C ,  8-C ) :   1.3871 B(  7-C , 34-H ) :   0.8884 B(  8-C ,  9-C ) :   0.9601 
B(  9-C , 10-C ) :   1.0025 B(  9-C , 11-N ) :   0.9036 B(  9-C , 35-H ) :   0.9157 
B( 10-C , 36-H ) :   0.9344 B( 10-C , 37-H ) :   0.9211 B( 10-C , 38-H ) :   0.9264 
B( 11-N , 12-C ) :   1.0475 B( 11-N , 20-C ) :   0.8926 B( 12-C , 13-O ) :   1.8121 
B( 12-C , 14-C ) :   0.9347 B( 14-C , 15-C ) :   1.4173 B( 14-C , 19-C ) :   1.4185 
B( 15-C , 16-C ) :   1.4405 B( 15-C , 39-H ) :   0.9212 B( 16-C , 17-C ) :   1.4468 
B( 16-C , 40-H ) :   0.9275 B( 17-C , 18-C ) :   1.4542 B( 17-C , 41-H ) :   0.9292 
B( 18-C , 19-C ) :   1.4280 B( 18-C , 42-H ) :   0.9283 B( 19-C , 43-H ) :   0.9256 
B( 20-C , 21-C ) :   0.9164 B( 20-C , 24-C ) :   0.9421 B( 20-C , 44-H ) :   0.8817 
B( 21-C , 22-N ) :   1.0708 B( 21-C , 23-O ) :   1.8197 B( 22-N , 45-H ) :   0.8242 
B( 22-N , 46-H ) :   0.8141 B( 24-C , 25-C ) :   1.4315 B( 24-C , 29-C ) :   1.4070 
B( 25-C , 26-C ) :   1.4334 B( 25-C , 47-H ) :   0.9119 B( 26-C , 27-C ) :   1.4486 
B( 26-C , 48-H ) :   0.9292 B( 27-C , 28-C ) :   1.4562 B( 27-C , 49-H ) :   0.9298 
B( 28-C , 29-C ) :   1.4327 B( 28-C , 50-H ) :   0.9288 B( 29-C , 51-H ) :   0.9238 


-------
TIMINGS
-------

Total SCF time: 0 days 0 hours 6 min 4 sec 

Total time                  ....     364.046 sec
Sum of individual times     ....     363.424 sec  ( 99.8%)

SCF preparation             ....       0.309 sec  (  0.1%)
Fock matrix formation       ....     361.181 sec  ( 99.2%)
  Startup                   ....       0.095 sec  (  0.0% of F)
  Split-RI-J                ....      46.828 sec  ( 13.0% of F)
  Chain of spheres X        ....     279.130 sec  ( 77.3% of F)
  XC integration            ....      33.763 sec  (  9.3% of F)
    XC Preparation          ....       0.000 sec  (  0.0% of XC)
    Basis function eval.    ....      13.134 sec  ( 38.9% of XC)
    Density eval.           ....       8.453 sec  ( 25.0% of XC)
    XC-Functional eval.     ....       1.275 sec  (  3.8% of XC)
    XC-Potential eval.      ....       8.980 sec  ( 26.6% of XC)
Diagonalization             ....       0.000 sec  (  0.0%)
Density matrix formation    ....       0.379 sec  (  0.1%)
Total Energy calculation    ....       0.085 sec  (  0.0%)
Population analysis         ....       0.060 sec  (  0.0%)
Orbital Transformation      ....       0.135 sec  (  0.0%)
Orbital Orthonormalization  ....       0.000 sec  (  0.0%)
DIIS solution               ....       0.725 sec  (  0.2%)
SOSCF solution              ....       0.551 sec  (  0.2%)
Finished LeanSCF after 364.1 sec

Maximum memory used throughout the entire LEANSCF-calculation: 88.3 MB

-------------------------   --------------------
FINAL SINGLE POINT ENERGY     -1386.590275948580
-------------------------   --------------------


------------------------------------------------------------------------------
                              ORCA PROPERTY CALCULATIONS
------------------------------------------------------------------------------

GBWName                                 ... /home/nmrbox/aojoawo/Documents/ERDOS/inputs/CHEMBL4777635.gbw
Number of atoms                         ...     52
Number of basis functions               ...    464
Max core memory                         ...   1024 MB

Electric properties:
Dipole moment                           ... YES
Quadrupole moment                       ...  NO
Static polarizability (Dipole/Dipole)   ...  NO
Static polarizability (Dipole/Quad.)    ...  NO
Static polarizability (Quad./Quad.)     ...  NO
Static polarizability (Velocity)        ...  NO

Atomic electric properties:
Dipole moment                           ...  NO
Quadrupole moment                       ...  NO
Static polarizability                   ...  NO

Choice of electric origin               ... Center of mass
Position of electric origin             ...    -0.080422     0.009085     0.359585

General magnetic properties:
Magnetizability                         ...  NO

EPR properties:
g-Tensor (aka g-matrix)                 ...  NO
Zero-Field splitting spin-orbit         ...  NO
Zero-field splitting spin-spin          ...  NO
Hyperfine couplings                     ...  NO (   0 nuclei)
Quadrupole couplings                    ...  NO (   0 nuclei)
Contact density                         ...  NO (   0 nuclei)

NMR properties:
Chemical shifts                         ...  NO (   0 nuclei)
Spin-rotation constants                 ...  NO (   0 nuclei)
Spin-spin couplings                     ...  NO (   0 nuclei,    0 pairs)

Choice of magnetic origin               ... GIAO
Position of magnetic origin             ...     0.000000     0.000000     0.000000

Properties with geometric perturbations:
SCF Hessian                             ...  NO
IR spectrum                             ...  NO
VCD spectrum                            ...  NO
X-ray spectroscopy properties:
SCF XES/XAS/RIXS spectra                ...  NO


-------------
DIPOLE MOMENT
-------------

Method             : SCF
Type of density    : Electron Density
Multiplicity       :   1
Irrep              :   0
Energy             : -1386.5902759485800289 Eh
Relativity type    : 
Basis              : AO
                                X                 Y                 Z
Electronic contribution:     -6.812644014       5.609760467      11.410697688
Nuclear contribution   :      5.573851571      -4.670960820     -12.101833449
                        -----------------------------------------
Total Dipole Moment    :     -1.238792443       0.938799647      -0.691135762
                        -----------------------------------------
Magnitude (a.u.)       :      1.701064412
Magnitude (Debye)      :      4.323762121



--------------------
Rotational spectrum 
--------------------
 
Rotational constants in cm-1:             0.007576             0.004463             0.003612 
Rotational constants in MHz :           227.137608           133.807521           108.290471 

Dipole components along the rotational axes: 
x,y,z [a.u.] :    -1.324709     0.291250    -1.026615 
x,y,z [Debye]:    -3.367144     0.740300    -2.609448 

 

Dipole moment calculation done in   0.0 sec 

Maximum memory used throughout the entire PROP-calculation: 42.6 MB

--------------------------------
SUGGESTED CITATIONS FOR THIS RUN
--------------------------------

Below you find a list of papers that are relevant to this ORCA run
We neither can nor want to force you to cite these papers, but we appreciate if you do
You receive ORCA, which is the product of decades of hard work by many enthusiastic individuals, for free
The only thing we kindly ask in return is that you cite our papers,
We deeply appreciate it, if you show your appreciation for ORCA by not just citing the generic ORCA reference.

Please note that relegating all ORCA citations to the supporting information does *not* help us.
SI sections are not indexed - citations you put there will not count into any citation statistics
But we need these citations in order to attract the funding resources that allow us to do what we are doing

Therefore, if you are a happy ORCA user, please consider citing a few of the papers listed below in the main body of your paper

In addition to the list printed below, the program has created the file /home/nmrbox/aojoawo/Documents/ERDOS/inputs/CHEMBL4777635.bibtex that contains the list in bibtex format
You can import this file easily into all common literature databanks and citation aid programs


List of essential papers. We consider these as the minimum necessary citations

  1. Neese,F.
     Software update: the ORCA program system, version 5.0
     WIRES Comput. Molec. Sci., 2022 12(1)e1606
     doi.org/10.1002/wcms.1606

List of papers to cite with high priority. The work reported in these papers was absolutely
necessary for this run to complete.
Our perspective: the developers of density functionals and basis sets usually get cited in chemistry papers
Good! But without the algorithms to do something with them, the functionals or basis sets would not do anything.
Hence, in our opinion, the algorithm design and method developments papers are equally worthy of getting cited

  1. Neese,F.
     An improvement of the resolution of the identity approximation for the formation of the Coulomb matrix
     J. Comp. Chem., 2003 24(14)1740-1747
     doi.org/10.1002/jcc.10318
  2. Neese,F.; Wennmohs,F.; Hansen,A.; Becker,U.
     Efficient, approximate and parallel Hartree-Fock and hybrid DFT calculations. A 'chain-of-spheres' algorithm for the Hartree-Fock exchange
     Chem. Phys., 2009 356(1-3)98-109
     doi.org/10.1016/j.chemphys.2008.10.036
  3. Helmich-Paris,B.; de Souza,B.; Neese,F.; Izsák,R.
     An improved chain of spheres for exchange algorithm
     J. Chem. Phys., 2021 155 104109
     doi.org/doi: 10.1063/5.0058766.
  4. Neese,F.
     The SHARK Integral Generation and Digestion System
     J. Comp. Chem., 2022  1-16
     doi.org/10.1002/jcc.26942

List of suggested additional citations. These are papers that are important in the 'surrounding' of 
of this run, or papers that preceded the highly important papers. If you like your results we are grateful for a citation.

  1. Izsak,R.; Neese,F.
     An overlap fitted chain of spheres exchange method
     J. Chem. Phys., 2011 135 144105
     doi.org/10.1063/1.3646921
  2. Izsak,R.; Hansen,A.; Neese,F.
     The resolution of identity and chain of spheres approximations for the LPNO-CCSD singles Fock term
     Molec. Phys., 2012 110 2413-2417
     doi.org/10.1080/00268976.2012.687466
  3. Neese,F.
     The ORCA program system
     WIRES Comput. Molec. Sci., 2012 2(1)73-78
     doi.org/10.1002/wcms.81
  4. Izsak,R.; Neese,F.; Klopper,W.
     Robust fitting techniques in the chain of spheres approximation to the Fock exchange: The role of the complementary space
     J. Chem. Phys., 2013 139 
     doi.org/10.1063/1.4819264
  5. Neese,F.
     Software update: the ORCA program system, version 4.0
     WIRES Comput. Molec. Sci., 2018 8(1)1-6
     doi.org/10.1002/wcms.1327
  6. Neese,F.; Wennmohs,F.; Becker,U.; Riplinger,C.
     The ORCA quantum chemistry program package
     J. Chem. Phys., 2020 152 Art. No. L224108
     doi.org/10.1063/5.0004608

List of optional additional citations

  1. Neese,F.
     Approximate second-order SCF convergence for spin unrestricted wavefunctions
     Chem. Phys. Lett., 2000 325(1-3)93-98
     doi.org/10.1016/s0009-2614(00)00662-x

Timings for individual modules:

Sum of individual times          ...      378.725 sec (=   6.312 min)
Startup calculation              ...        9.497 sec (=   0.158 min)   2.5 %
SCF iterations                   ...      369.042 sec (=   6.151 min)  97.4 %
Property calculations            ...        0.186 sec (=   0.003 min)   0.0 %
                             ****ORCA TERMINATED NORMALLY****
TOTAL RUN TIME: 0 days 0 hours 6 minutes 19 seconds 410 msec
