
                                 *****************
                                 * O   R   C   A *
                                 *****************

                                            #,                                       
                                            ###                                      
                                            ####                                     
                                            #####                                    
                                            ######                                   
                                           ########,                                 
                                     ,,################,,,,,                         
                               ,,#################################,,                 
                          ,,##########################################,,             
                       ,#########################################, ''#####,          
                    ,#############################################,,   '####,        
                  ,##################################################,,,,####,       
                ,###########''''           ''''###############################       
              ,#####''   ,,,,##########,,,,          '''####'''          '####       
            ,##' ,,,,###########################,,,                        '##       
           ' ,,###''''                  '''############,,,                           
         ,,##''                                '''############,,,,        ,,,,,,###''
      ,#''                                            '''#######################'''  
     '                                                          ''''####''''         
             ,#######,   #######,   ,#######,      ##                                
            ,#'     '#,  ##    ##  ,#'     '#,    #''#        ,####,   ,####,        
            ##       ##  ##   ,#'  ##            #'  '#       #'       #'  '#        
            ##       ##  #######   ##           ,######,      #####,   #    #        
            '#,     ,#'  ##    ##  '#,     ,#' ,#      #,     #,   #   #,  ,#        
             '#######'   ##     ##  '#######'  #'      '#     '####' # '####'        



                #########################################################
                #                        -***-                          #
                #          Department of theory and spectroscopy        #
                #                                                       #
                #                      Frank Neese                      #
                #                                                       #
                #     Directorship, Architecture, Infrastructure        #
                #                    SHARK, DRIVERS                     #
                #        Core code/Algorithms in most modules           #
                #                                                       #
                #        Max Planck Institute fuer Kohlenforschung      #
                #                Kaiser Wilhelm Platz 1                 #
                #                 D-45470 Muelheim/Ruhr                 #
                #                      Germany                          #
                #                                                       #
                #                  All rights reserved                  #
                #                        -***-                          #
                #########################################################


                         Program Version 6.0.0  -   RELEASE  -


 With contributions from (in alphabetic order):
   Daniel Aravena         : Magnetic Suceptibility
   Michael Atanasov       : Ab Initio Ligand Field Theory (pilot matlab implementation)
   Alexander A. Auer      : GIAO ZORA, VPT2 properties, NMR spectrum
   Ute Becker             : All parallelization in ORCA, NUMFREQ, NUMCALC
   Giovanni Bistoni       : ED, misc. LED, open-shell LED, HFLD
   Martin Brehm           : Molecular dynamics
   Dmytro Bykov           : pre 5.0 version of the SCF Hessian
   Marcos Casanova-Páez   : Triplet and SCS-CIS(D). UHF-(DLPNO)-IP/EA/STEOM-CCSD. UHF-CVS-IP/STEOM-CCSD
   Vijay G. Chilkuri      : MRCI spin determinant printing, contributions to CSF-ICE
   Pauline Colinet        : FMM embedding
   Dipayan Datta          : RHF DLPNO-CCSD density
   Achintya Kumar Dutta   : EOM-CC, STEOM-CC
   Nicolas Foglia         : Exact transition moments, OPA infrastructure, MCD improvements
   Dmitry Ganyushin       : Spin-Orbit,Spin-Spin,Magnetic field MRCI
   Miquel Garcia          : C-PCM and meta-GGA Hessian, CCSD/C-PCM, Gaussian charge scheme
   Tiago L. C. Gouveia    : GS-ROHF, GS-ROCIS
   Yang Guo               : DLPNO-NEVPT2, F12-NEVPT2, CIM, IAO-localization
   Andreas Hansen         : Spin unrestricted coupled pair/coupled cluster methods
   Ingolf Harden          : AUTO-CI MPn and infrastructure 
   Benjamin Helmich-Paris : MC-RPA, TRAH-(SCF,CASSCF), AVAS, COSX integrals, SCF dyn. polar.
   Lee Huntington         : MR-EOM, pCC
   Robert Izsak           : Overlap fitted RIJCOSX, COSX-SCS-MP3, EOM
   Riya Kayal             : Wick's Theorem for AUTO-CI, AUTO-CI UHF-CCSDT
   Emily Kempfer          : AUTO-CI, RHF CISDT and CCSDT
   Christian Kollmar      : KDIIS, OOCD, Brueckner-CCSD(T), CCSD density, CASPT2, CASPT2-K, improved NEVPT2
   Axel Koslowski         : Symmetry handling
   Simone Kossmann        : Meta GGA functionals, TD-DFT gradient, OOMP2, (MP2 Hessian; deprecated post 5.0)
   Lucas Lang             : DCDCAS
   Marvin Lechner         : AUTO-CI (C++ implementation), FIC-MRCC
   Spencer Leger          : CASSCF response
   Dagmar Lenk            : GEPOL surface, SMD, ORCA-2-JSON
   Dimitrios Liakos       : Extrapolation schemes; Compound Job, initial MDCI parallelization
   Dimitrios Manganas     : Further ROCIS development; embedding schemes. LFT, Crystal Embedding
   Dimitrios Pantazis     : SARC Basis sets
   Anastasios Papadopoulos: AUTO-CI, single reference methods and gradients
   Taras Petrenko         : pre 6.0 DFT Hessian and TD-DFT gradient, (ASA, deprecated), ECA, 1-Electron XAS/XES, NRVS
   Peter Pinski           : DLPNO-MP2, DLPNO-MP2 Gradient
   Christoph Reimann      : Effective Core Potentials
   Marius Retegan         : Local ZFS, SOC
   Christoph Riplinger    : Optimizer, TS searches, QM/MM, DLPNO-CCSD(T), (RO)-DLPNO pert. Triples
   Michael Roemelt        : Original ROCIS implementation
   Masaaki Saitow         : Open-shell DLPNO-CCSD energy and density
   Barbara Sandhoefer     : DKH picture change effects
   Kantharuban Sivalingam : CASSCF convergence/infrastructure, NEVPT2 and variants, FIC-MRCI
   Bernardo de Souza      : ESD, SOC TD-DFT
   Georgi Stoychev        : AutoAux, RI-MP2 NMR, DLPNO-MP2 response, X2C
   Van Anh Tran           : RI-MP2 g-tensors
   Willem Van den Heuvel  : Paramagnetic NMR
   Zikuan Wang            : NOTCH, Electric field optimization 
   Frank Wennmohs         : Technical directorship and infrastructure
   Hang Xu                : AUTO-CI-Response properties 


 We gratefully acknowledge several colleagues who have allowed us to
 interface, adapt or use parts of their codes:
   Stefan Grimme, W. Hujo, H. Kruse, P. Pracht,  : VdW corrections, initial TS optimization,
                  C. Bannwarth, S. Ehlert,         DFT functionals, gCP, sTDA/sTD-DF
                  L. Wittmann, M. Mueller
   Ed Valeev, F. Pavosevic, A. Kumar             : LibInt (2-el integral package), F12 methods
   Garnet Chan, S. Sharma, J. Yang, R. Olivares  : DMRG
   Ulf Ekstrom                                   : XCFun DFT Library
   Mihaly Kallay                                 : mrcc  (arbitrary order and MRCC methods)
   Frank Weinhold                                : gennbo (NPA and NBO analysis)
   Simon Mueller                                 : openCOSMO-RS
   Christopher J. Cramer and Donald G. Truhlar   : smd solvation model
   Lars Goerigk                                  : TD-DFT with DH, B97 family of functionals
   V. Asgeirsson, H. Jonsson                     : NEB implementation
   FAccTs GmbH                                   : IRC, NEB, NEB-TS, DLPNO-Multilevel, CI-OPT
                                                   MM, QMMM, 2- and 3-layer-ONIOM, Crystal-QMMM,
                                                   LR-CPCM, SF, NACMEs, symmetry and pop. for TD-DFT,
                                                   nearIR, NL-DFT gradient (VV10), updates on ESD,
                                                   ML-optimized integration grids, MBIS, APM,
                                                   GOAT, DOCKER, SOLVATOR, interface openCOSMO-RS
   S Lehtola, MJT Oliveira, MAL Marques          : LibXC Library
   Liviu Ungur et al                             : ANISO software


 Your calculation uses the libint2 library for the computation of 2-el integrals
 For citations please refer to: http://libint.valeyev.net

 Your ORCA version has been built with support for libXC version: 6.2.2
 For citations please refer to: https://libxc.gitlab.io

 This ORCA versions uses:
   CBLAS   interface :  Fast vector & matrix operations
   LAPACKE interface :  Fast linear algebra routines
   SCALAPACK package :  Parallel linear algebra routines
   Shared memory     :  Shared parallel matrices
   BLAS/LAPACK       :  OpenBLAS 0.3.27  USE64BITINT DYNAMIC_ARCH NO_AFFINITY SkylakeX SINGLE_THREADED
        Core in use  :  SkylakeX
   Copyright (c) 2011-2014, The OpenBLAS Project


Warning: RI is on but no J-basis has been assigned. Assigning Def2/J (nothing to worry about!)
================================================================================

----- Orbital basis set information -----
Your calculation utilizes the basis: 6-31G*
   H-He, Li-Ne : W. J. Hehre, R. Ditchfield and J.A. Pople, J. Chem. Phys. 56, 2257 (1972).
                 Note: He and Ne are unpublished basis sets taken from the Gaussian program.
                 Note: Li and B from J. D. Dill and J. A. Pople, J. Chem. Phys. 62, 2921 (1975).
   Na - Ar     : M. M. Francl, W. J. Pietro, W. J. Hehre, J. S. Binkley, M. S. Gordon, 
                 D. J. DeFrees and J. A. Pople, J. Chem. Phys. 77, 3654 (1982).
   K - Zn      : V. A. Rassolov, J. A. Pople, M. A. Ratner, and T. L. Windus, J. Chem. Phys. 109, 1223 (1998).

----- AuxJ basis set information -----
Your calculation utilizes the auxiliary basis: def2/J
   F. Weigend, Phys. Chem. Chem. Phys. 8, 1057 (2006).

================================================================================
                                        WARNINGS
                       Please study these warnings very carefully!
================================================================================


================================================================================
                                       INPUT FILE
================================================================================
NAME = /home/nmrbox/aojoawo/Documents/ERDOS/inputs/CHEMBL3926675.inp
|  1> ! B3LYP 6-31G* SP
|  2> 
|  3> * xyz 0 1
|  4> C 1.9393 -1.5548 -3.2630
|  5> C 0.9096 -1.2264 -2.1800
|  6> C 1.5016 -0.3347 -1.0609
|  7> C 2.6660 -0.9611 -0.3045
|  8> C 3.7485 -0.1481 0.0819
|  9> C 4.8140 -0.6813 0.8132
| 10> C 4.8082 -2.0288 1.1774
| 11> C 3.7349 -2.8446 0.8154
| 12> C 2.6664 -2.3170 0.0845
| 13> N 0.4572 0.1229 -0.1199
| 14> C 0.3838 1.5390 0.1497
| 15> O 1.3408 2.1007 0.7496
| 16> C -0.7763 2.3488 -0.2878
| 17> C -1.0736 3.5623 0.3578
| 18> C -2.1925 4.3102 -0.0218
| 19> C -3.0142 3.8639 -1.0590
| 20> C -2.7176 2.6702 -1.7197
| 21> C -1.6021 1.9178 -1.3408
| 22> C -0.2753 -0.8369 0.7427
| 23> C 0.3563 -0.9672 2.1123
| 24> N 0.0604 -2.1026 2.9284
| 25> O 1.1248 -0.0724 2.5566
| 26> C -1.7522 -0.4949 0.8297
| 27> C -2.6426 -1.0362 -0.1161
| 28> C -3.9938 -0.6782 -0.1043
| 29> C -4.4709 0.2288 0.8454
| 30> C -3.5968 0.7802 1.7852
| 31> C -2.2452 0.4236 1.7802
| 32> H 1.4612 -2.1622 -4.0597
| 33> H 2.7815 -2.1391 -2.8375
| 34> H 2.3352 -0.6208 -3.7167
| 35> H 0.0699 -0.6842 -2.6627
| 36> H 0.4943 -2.1742 -1.7856
| 37> H 1.8977 0.5589 -1.5989
| 38> H 3.7687 0.9019 -0.1829
| 39> H 5.6433 -0.0479 1.1013
| 40> H 5.6336 -2.4398 1.7451
| 41> H 3.7282 -3.8873 1.1046
| 42> H 1.8473 -2.9735 -0.1688
| 43> H -0.4591 3.9166 1.1782
| 44> H -2.4220 5.2366 0.4892
| 45> H -3.8807 4.4429 -1.3510
| 46> H -3.3538 2.3253 -2.5253
| 47> H -1.3956 0.9950 -1.8624
| 48> H -0.2040 -1.8501 0.2989
| 49> H 0.4992 -2.2038 3.8707
| 50> H -0.5888 -2.8467 2.5894
| 51> H -2.2858 -1.7235 -0.8750
| 52> H -4.6696 -1.0965 -0.8392
| 53> H -5.5155 0.5106 0.8468
| 54> H -3.9636 1.4954 2.5094
| 55> H -1.5804 0.8834 2.5001
| 56> *
| 57> 
| 58>                          ****END OF INPUT****
================================================================================

                       ****************************
                       * Single Point Calculation *
                       ****************************

---------------------------------
CARTESIAN COORDINATES (ANGSTROEM)
---------------------------------
  C      1.939300   -1.554800   -3.263000
  C      0.909600   -1.226400   -2.180000
  C      1.501600   -0.334700   -1.060900
  C      2.666000   -0.961100   -0.304500
  C      3.748500   -0.148100    0.081900
  C      4.814000   -0.681300    0.813200
  C      4.808200   -2.028800    1.177400
  C      3.734900   -2.844600    0.815400
  C      2.666400   -2.317000    0.084500
  N      0.457200    0.122900   -0.119900
  C      0.383800    1.539000    0.149700
  O      1.340800    2.100700    0.749600
  C     -0.776300    2.348800   -0.287800
  C     -1.073600    3.562300    0.357800
  C     -2.192500    4.310200   -0.021800
  C     -3.014200    3.863900   -1.059000
  C     -2.717600    2.670200   -1.719700
  C     -1.602100    1.917800   -1.340800
  C     -0.275300   -0.836900    0.742700
  C      0.356300   -0.967200    2.112300
  N      0.060400   -2.102600    2.928400
  O      1.124800   -0.072400    2.556600
  C     -1.752200   -0.494900    0.829700
  C     -2.642600   -1.036200   -0.116100
  C     -3.993800   -0.678200   -0.104300
  C     -4.470900    0.228800    0.845400
  C     -3.596800    0.780200    1.785200
  C     -2.245200    0.423600    1.780200
  H      1.461200   -2.162200   -4.059700
  H      2.781500   -2.139100   -2.837500
  H      2.335200   -0.620800   -3.716700
  H      0.069900   -0.684200   -2.662700
  H      0.494300   -2.174200   -1.785600
  H      1.897700    0.558900   -1.598900
  H      3.768700    0.901900   -0.182900
  H      5.643300   -0.047900    1.101300
  H      5.633600   -2.439800    1.745100
  H      3.728200   -3.887300    1.104600
  H      1.847300   -2.973500   -0.168800
  H     -0.459100    3.916600    1.178200
  H     -2.422000    5.236600    0.489200
  H     -3.880700    4.442900   -1.351000
  H     -3.353800    2.325300   -2.525300
  H     -1.395600    0.995000   -1.862400
  H     -0.204000   -1.850100    0.298900
  H      0.499200   -2.203800    3.870700
  H     -0.588800   -2.846700    2.589400
  H     -2.285800   -1.723500   -0.875000
  H     -4.669600   -1.096500   -0.839200
  H     -5.515500    0.510600    0.846800
  H     -3.963600    1.495400    2.509400
  H     -1.580400    0.883400    2.500100

----------------------------
CARTESIAN COORDINATES (A.U.)
----------------------------
  NO LB      ZA    FRAG     MASS         X           Y           Z
   0 C     6.0000    0    12.011    3.664746   -2.938146   -6.166176
   1 C     6.0000    0    12.011    1.718895   -2.317560   -4.119603
   2 C     6.0000    0    12.011    2.837613   -0.632491   -2.004810
   3 C     6.0000    0    12.011    5.038010   -1.816216   -0.575422
   4 C     6.0000    0    12.011    7.083638   -0.279868    0.154769
   5 C     6.0000    0    12.011    9.097142   -1.287470    1.536725
   6 C     6.0000    0    12.011    9.086181   -3.833876    2.224964
   7 C     6.0000    0    12.011    7.057938   -5.375515    1.540883
   8 C     6.0000    0    12.011    5.038766   -4.378495    0.159682
   9 N     7.0000    0    14.007    0.863983    0.232247   -0.226578
  10 C     6.0000    0    12.011    0.725277    2.908289    0.282892
  11 O     8.0000    0    15.999    2.533745    3.969748    1.416539
  12 C     6.0000    0    12.011   -1.466994    4.438589   -0.543863
  13 C     6.0000    0    12.011   -2.028810    6.731771    0.676144
  14 C     6.0000    0    12.011   -4.143225    8.145098   -0.041196
  15 C     6.0000    0    12.011   -5.696013    7.301713   -2.001220
  16 C     6.0000    0    12.011   -5.135520    5.045947   -3.249762
  17 C     6.0000    0    12.011   -3.027530    3.624117   -2.533745
  18 C     6.0000    0    12.011   -0.520242   -1.581512    1.403500
  19 C     6.0000    0    12.011    0.673309   -1.827743    3.991669
  20 N     7.0000    0    14.007    0.114139   -3.973338    5.533874
  21 O     8.0000    0    15.999    2.125564   -0.136816    4.831274
  22 C     6.0000    0    12.011   -3.311178   -0.935225    1.567906
  23 C     6.0000    0    12.011   -4.993790   -1.958134   -0.219397
  24 C     6.0000    0    12.011   -7.547188   -1.281612   -0.197098
  25 C     6.0000    0    12.011   -8.448777    0.432369    1.597574
  26 C     6.0000    0    12.011   -6.796967    1.474364    3.373539
  27 C     6.0000    0    12.011   -4.242813    0.800488    3.364090
  28 H     1.0000    0     1.008    2.761268   -4.085966   -7.671721
  29 H     1.0000    0     1.008    5.256273   -4.042313   -5.362098
  30 H     1.0000    0     1.008    4.412888   -1.173142   -7.023545
  31 H     1.0000    0     1.008    0.132092   -1.292951   -5.031774
  32 H     1.0000    0     1.008    0.934092   -4.108643   -3.374295
  33 H     1.0000    0     1.008    3.586133    1.056168   -3.021483
  34 H     1.0000    0     1.008    7.121811    1.704344   -0.345631
  35 H     1.0000    0     1.008   10.664291   -0.090518    2.081155
  36 H     1.0000    0     1.008   10.645961   -4.610554    3.297761
  37 H     1.0000    0     1.008    7.045277   -7.345932    2.087391
  38 H     1.0000    0     1.008    3.490891   -5.619101   -0.318986
  39 H     1.0000    0     1.008   -0.867573    7.401301    2.226475
  40 H     1.0000    0     1.008   -4.576917    9.895740    0.924454
  41 H     1.0000    0     1.008   -7.333460    8.395864   -2.553020
  42 H     1.0000    0     1.008   -6.337764    4.394180   -4.772125
  43 H     1.0000    0     1.008   -2.637302    1.880278   -3.519426
  44 H     1.0000    0     1.008   -0.385504   -3.496182    0.564839
  45 H     1.0000    0     1.008    0.943351   -4.164578    7.314563
  46 H     1.0000    0     1.008   -1.112671   -5.379483    4.893257
  47 H     1.0000    0     1.008   -4.319536   -3.256943   -1.653510
  48 H     1.0000    0     1.008   -8.824265   -2.072085   -1.585858
  49 H     1.0000    0     1.008  -10.422784    0.964894    1.600220
  50 H     1.0000    0     1.008   -7.490119    2.825896    4.742079
  51 H     1.0000    0     1.008   -2.986523    1.669384    4.724504

--------------------------------
INTERNAL COORDINATES (ANGSTROEM)
--------------------------------
 C      0   0   0     0.000000000000     0.00000000     0.00000000
 C      1   0   0     1.530038447229     0.00000000     0.00000000
 C      2   1   0     1.548540506412   112.20023471     0.00000000
 C      3   2   1     1.523267960669   114.47478450   298.93963269
 C      4   3   2     1.407863704341   119.11530262   141.61037582
 C      5   4   3     1.397995772526   120.62021051   178.00785871
 C      6   5   4     1.395862289053   120.09978631   359.48463375
 C      7   6   5     1.395903481620   119.98067260   359.76613221
 C      8   7   6     1.397951651524   120.17944357     0.21354109
 N      3   2   1     1.478394439925   111.60169371   172.40576744
 C     10   3   2     1.443402552998   117.28909993   231.73736450
 O     11  10   3     1.261441992325   119.15073529   294.24792872
 C     11  10   3     1.480882946083   121.40928677   112.94538393
 C     13  11  10     1.406331717626   120.12186215   157.39923283
 C     14  13  11     1.398351808380   120.40057196   182.07247266
 C     15  14  13     1.396480726684   120.09992135   359.17096001
 C     16  15  14     1.396214790066   119.98020652   359.90717090
 C     17  16  15     1.397859513685   120.09502435     0.26831750
 C     10   3   2     1.483863555048   121.23392391    65.31861236
 C     19  10   3     1.513836454179   112.06447211    94.31969081
 N     20  19  10     1.429233773740   119.90738086   198.75645294
 O     20  19  10     1.260421270846   120.81017201    20.06231989
 C     19  10   3     1.518475093638   111.57708280   220.72568667
 C     23  19  10     1.407251040149   119.35760749    89.30349060
 C     24  23  19     1.397871481932   120.49173384   183.61232695
 C     25  24  23     1.397212761178   120.13586025     0.35812020
 C     26  25  24     1.396895418419   119.99100737     0.02978188
 C     27  26  25     1.397859477916   120.12793736   359.82279795
 H      1   2   3     1.110065430504   109.60900235   182.07478749
 H      1   2   3     1.109845746039   110.62942746    62.72134231
 H      1   2   3     1.111276968177   110.38611950   301.75390976
 H      2   1   3     1.109989288237   107.82704074   119.78744041
 H      2   1   3     1.107407011898   108.70975907   235.23599149
 H      3   2   1     1.115733019140   104.38502616    55.94684134
 H      5   4   3     1.083063746970   120.46948502   358.02686678
 H      6   5   4     1.082559772022   119.99435247   179.73233250
 H      7   6   5     1.082815519837   120.00266333   180.09112193
 H      8   7   6     1.082083554999   119.90776764   180.44791677
 H      9   8   7     1.079850892485   118.22683601   180.69737377
 H     14  13  11     1.084525195650   120.62232035     0.05170647
 H     15  14  13     1.082593280046   119.94509701   179.17200997
 H     16  15  14     1.082278730272   120.03358293   179.91473200
 H     17  16  15     1.082911727705   119.96856321   180.12253712
 H     18  17  16     1.079939188103   118.79022544   179.65508928
 H     19  10   3     1.108429686539   109.07146308   338.64685458
 H     21  20  19     1.044373577797   120.34390891   179.43067868
 H     21  20  19     1.044062474184   120.63101517     0.02640583
 H     24  23  19     1.084258613062   120.39956015     2.53021265
 H     25  24  23     1.082477962824   119.91849972   179.70120656
 H     26  25  24     1.081943787819   119.97584506   179.47244904
 H     27  26  25     1.081905226903   119.94268417   178.94633496
 H     28  27  26     1.082419091665   118.88873417   178.34921058

---------------------------
INTERNAL COORDINATES (A.U.)
---------------------------
 C      0   0   0     0.000000000000     0.00000000     0.00000000
 C      1   0   0     2.891353639634     0.00000000     0.00000000
 C      2   1   0     2.926317464403   112.20023471     0.00000000
 C      3   2   1     2.878559274241   114.47478450   298.93963269
 C      4   3   2     2.660476835092   119.11530262   141.61037582
 C      5   4   3     2.641829146453   120.62021051   178.00785871
 C      6   5   4     2.637797446978   120.09978631   359.48463375
 C      7   6   5     2.637875289650   119.98067260   359.76613221
 C      8   7   6     2.641745769844   120.17944357     0.21354109
 N      3   2   1     2.793760609369   111.60169371   172.40576744
 C     10   3   2     2.727635526168   117.28909993   231.73736450
 O     11  10   3     2.383779899322   119.15073529   294.24792872
 C     11  10   3     2.798463204492   121.40928677   112.94538393
 C     13  11  10     2.657581799760   120.12186215   157.39923283
 C     14  13  11     2.642501956712   120.40057196   182.07247266
 C     15  14  13     2.638966124732   120.09992135   359.17096001
 C     16  15  14     2.638463577356   119.98020652   359.90717090
 C     17  16  15     2.641571654561   120.09502435     0.26831750
 C     10   3   2     2.804095739148   121.23392391    65.31861236
 C     19  10   3     2.860736309944   112.06447211    94.31969081
 N     20  19  10     2.700860413720   119.90738086   198.75645294
 O     20  19  10     2.381851015267   120.81017201    20.06231989
 C     19  10   3     2.869502068157   111.57708280   220.72568667
 C     23  19  10     2.659319067557   119.35760749    89.30349060
 C     24  23  19     2.641594271271   120.49173384   183.61232695
 C     25  24  23     2.640349469447   120.13586025     0.35812020
 C     26  25  24     2.639749778541   119.99100737     0.02978188
 C     27  26  25     2.641571586968   120.12793736   359.82279795
 H      1   2   3     2.097719654386   109.60900235   182.07478749
 H      1   2   3     2.097304510910   110.62942746    62.72134231
 H      1   2   3     2.100009128788   110.38611950   301.75390976
 H      2   1   3     2.097575766353   107.82704074   119.78744041
 H      2   1   3     2.092695971271   108.70975907   235.23599149
 H      3   2   1     2.108429844748   104.38502616    55.94684134
 H      5   4   3     2.046693867351   120.46948502   358.02686678
 H      6   5   4     2.045741492722   119.99435247   179.73233250
 H      7   6   5     2.046224786052   120.00266333   180.09112193
 H      8   7   6     2.044841572969   119.90776764   180.44791677
 H      9   8   7     2.040622452267   118.22683601   180.69737377
 H     14  13  11     2.049455605116   120.62232035     0.05170647
 H     15  14  13     2.045804813710   119.94509701   179.17200997
 H     16  15  14     2.045210400783   120.03358293   179.91473200
 H     17  16  15     2.046406592573   119.96856321   180.12253712
 H     18  17  16     2.040789306803   118.79022544   179.65508928
 H     19  10   3     2.094628546266   109.07146308   338.64685458
 H     21  20  19     1.973580043539   120.34390891   179.43067868
 H     21  20  19     1.972992142913   120.63101517     0.02640583
 H     24  23  19     2.048951837033   120.39956015     2.53021265
 H     25  24  23     2.045586895743   119.91849972   179.70120656
 H     26  25  24     2.044577451275   119.97584506   179.47244904
 H     27  26  25     2.044504581705   119.94268417   178.94633496
 H     28  27  26     2.045475645374   118.88873417   178.34921058

---------------------
BASIS SET INFORMATION
---------------------
There are 4 groups of distinct atoms

 Group   1 Type C   : 10s4p1d contracted to 3s2p1d pattern {631/31/1}
 Group   2 Type N   : 10s4p1d contracted to 3s2p1d pattern {631/31/1}
 Group   3 Type O   : 10s4p1d contracted to 3s2p1d pattern {631/31/1}
 Group   4 Type H   : 4s contracted to 2s pattern {31}

Atom   0C    basis set group =>   1
Atom   1C    basis set group =>   1
Atom   2C    basis set group =>   1
Atom   3C    basis set group =>   1
Atom   4C    basis set group =>   1
Atom   5C    basis set group =>   1
Atom   6C    basis set group =>   1
Atom   7C    basis set group =>   1
Atom   8C    basis set group =>   1
Atom   9N    basis set group =>   2
Atom  10C    basis set group =>   1
Atom  11O    basis set group =>   3
Atom  12C    basis set group =>   1
Atom  13C    basis set group =>   1
Atom  14C    basis set group =>   1
Atom  15C    basis set group =>   1
Atom  16C    basis set group =>   1
Atom  17C    basis set group =>   1
Atom  18C    basis set group =>   1
Atom  19C    basis set group =>   1
Atom  20N    basis set group =>   2
Atom  21O    basis set group =>   3
Atom  22C    basis set group =>   1
Atom  23C    basis set group =>   1
Atom  24C    basis set group =>   1
Atom  25C    basis set group =>   1
Atom  26C    basis set group =>   1
Atom  27C    basis set group =>   1
Atom  28H    basis set group =>   4
Atom  29H    basis set group =>   4
Atom  30H    basis set group =>   4
Atom  31H    basis set group =>   4
Atom  32H    basis set group =>   4
Atom  33H    basis set group =>   4
Atom  34H    basis set group =>   4
Atom  35H    basis set group =>   4
Atom  36H    basis set group =>   4
Atom  37H    basis set group =>   4
Atom  38H    basis set group =>   4
Atom  39H    basis set group =>   4
Atom  40H    basis set group =>   4
Atom  41H    basis set group =>   4
Atom  42H    basis set group =>   4
Atom  43H    basis set group =>   4
Atom  44H    basis set group =>   4
Atom  45H    basis set group =>   4
Atom  46H    basis set group =>   4
Atom  47H    basis set group =>   4
Atom  48H    basis set group =>   4
Atom  49H    basis set group =>   4
Atom  50H    basis set group =>   4
Atom  51H    basis set group =>   4
---------------------------------
AUXILIARY/J BASIS SET INFORMATION
---------------------------------
There are 4 groups of distinct atoms

 Group   1 Type C   : 12s5p4d2f1g contracted to 6s4p3d1f1g pattern {711111/2111/211/2/1}
 Group   2 Type N   : 12s5p4d2f1g contracted to 6s4p3d1f1g pattern {711111/2111/211/2/1}
 Group   3 Type O   : 12s5p4d2f1g contracted to 6s4p3d1f1g pattern {711111/2111/211/2/1}
 Group   4 Type H   : 5s2p1d contracted to 3s1p1d pattern {311/2/1}

Atom   0C    basis set group =>   1
Atom   1C    basis set group =>   1
Atom   2C    basis set group =>   1
Atom   3C    basis set group =>   1
Atom   4C    basis set group =>   1
Atom   5C    basis set group =>   1
Atom   6C    basis set group =>   1
Atom   7C    basis set group =>   1
Atom   8C    basis set group =>   1
Atom   9N    basis set group =>   2
Atom  10C    basis set group =>   1
Atom  11O    basis set group =>   3
Atom  12C    basis set group =>   1
Atom  13C    basis set group =>   1
Atom  14C    basis set group =>   1
Atom  15C    basis set group =>   1
Atom  16C    basis set group =>   1
Atom  17C    basis set group =>   1
Atom  18C    basis set group =>   1
Atom  19C    basis set group =>   1
Atom  20N    basis set group =>   2
Atom  21O    basis set group =>   3
Atom  22C    basis set group =>   1
Atom  23C    basis set group =>   1
Atom  24C    basis set group =>   1
Atom  25C    basis set group =>   1
Atom  26C    basis set group =>   1
Atom  27C    basis set group =>   1
Atom  28H    basis set group =>   4
Atom  29H    basis set group =>   4
Atom  30H    basis set group =>   4
Atom  31H    basis set group =>   4
Atom  32H    basis set group =>   4
Atom  33H    basis set group =>   4
Atom  34H    basis set group =>   4
Atom  35H    basis set group =>   4
Atom  36H    basis set group =>   4
Atom  37H    basis set group =>   4
Atom  38H    basis set group =>   4
Atom  39H    basis set group =>   4
Atom  40H    basis set group =>   4
Atom  41H    basis set group =>   4
Atom  42H    basis set group =>   4
Atom  43H    basis set group =>   4
Atom  44H    basis set group =>   4
Atom  45H    basis set group =>   4
Atom  46H    basis set group =>   4
Atom  47H    basis set group =>   4
Atom  48H    basis set group =>   4
Atom  49H    basis set group =>   4
Atom  50H    basis set group =>   4
Atom  51H    basis set group =>   4
------------------------------------------------------------------------------
                             ORCA STARTUP CALCULATIONS
                           -- RI-GTO INTEGRALS CHOSEN --
------------------------------------------------------------------------------
------------------------------------------------------------------------------
                   ___                                                        
                  /   \      - P O W E R E D   B Y -                         
                 /     \                                                     
                 |  |  |   _    _      __       _____    __    __             
                 |  |  |  | |  | |    /  \     |  _  \  |  |  /  |          
                  \  \/   | |  | |   /    \    | | | |  |  | /  /          
                 / \  \   | |__| |  /  /\  \   | |_| |  |  |/  /          
                |  |  |   |  __  | /  /__\  \  |    /   |      \           
                |  |  |   | |  | | |   __   |  |    \   |  |\   \          
                \     /   | |  | | |  |  |  |  | |\  \  |  | \   \       
                 \___/    |_|  |_| |__|  |__|  |_| \__\ |__|  \__/        
                                                                              
                      - O R C A' S   B I G   F R I E N D -                    
                                      &                                       
                       - I N T E G R A L  F E E D E R -                       
                                                                              
 v1 FN, 2020, v2 2021, v3 2022-2024                                           
------------------------------------------------------------------------------


----------------------
SHARK INTEGRAL PACKAGE
----------------------

Number of atoms                             ...     52
Number of basis functions                   ...    440
Number of shells                            ...    216
Maximum angular momentum                    ...      2
Integral batch strategy                     ... SHARK/LIBINT Hybrid
RI-J (if used) integral strategy            ... SPLIT-RIJ (Revised 2003 algorithm where possible)
Printlevel                                  ...      1
Contraction scheme used                     ... SEGMENTED contraction
Prescreening option                         ... SCHWARTZ
   Thresh                                   ... 1.000e-10
   Tcut                                     ... 1.000e-11
   Tpresel                                  ... 1.000e-11 
Coulomb Range Separation                    ... NOT USED
Exchange Range Separation                   ... NOT USED
Multipole approximations                    ... NOT USED
Finite Nucleus Model                        ... NOT USED
CABS basis                                  ... NOT available
Auxiliary Coulomb fitting basis             ... AVAILABLE
   # of basis functions in Aux-J            ...   1636
   # of shells in Aux-J                     ...    540
   Maximum angular momentum in Aux-J        ...      4
Auxiliary J/K fitting basis                 ... NOT available
Auxiliary Correlation fitting basis         ... NOT available
Auxiliary 'external' fitting basis          ... NOT available

Checking pre-screening integrals            ... done (  0.0 sec) Dimension = 216
Check shell pair data                       ... done (  0.0 sec)
Shell pair information
Shell pair cut-off parameter TPreSel        ...   1.0e-11
Total number of shell pairs                 ...     23436
Shell pairs after pre-screening             ...     16716
Total number of primitive shell pairs       ...    134046
Primitive shell pairs kept                  ...     49668
          la=0 lb=0:   5850 shell pairs
          la=1 lb=0:   5742 shell pairs
          la=1 lb=1:   1401 shell pairs
          la=2 lb=0:   2274 shell pairs
          la=2 lb=1:   1213 shell pairs
          la=2 lb=2:    236 shell pairs

Calculating one electron integrals          ... done (  0.2 sec)
Calculating RI/J V-Matrix + Cholesky decomp.... done (  0.4 sec)
Calculating Nuclear repulsion               ... done (  0.0 sec) ENN=   2655.829258315011 Eh

Diagonalization of the overlap matrix:
Smallest eigenvalue                        ... 4.519e-04
Time for diagonalization                   ...    0.031 sec
Threshold for overlap eigenvalues          ... 1.000e-07
Number of eigenvalues below threshold      ... 0
Time for construction of square roots      ...    0.031 sec
Total time needed                          ...    0.070 sec

-------------------
DFT GRID GENERATION
-------------------

General Integration Accuracy     IntAcc      ... 4.388
Radial Grid Type                 RadialGrid  ... OptM3 with GC (2021)
Angular Grid (max. ang.)         AngularGrid ... 4 (Lebedev-302)
Angular grid pruning method      GridPruning ... 4 (adaptive)
Weight generation scheme         WeightScheme... mBecke (2022)
Basis function cutoff            BFCut       ... 1.0000e-10
Integration weight cutoff        WCut        ... 1.0000e-14
Partially contracted basis set               ... off
Rotationally invariant grid construction     ... off
Angular grids for H and He will be reduced by one unit

Total number of grid points                  ...   242378
Total number of batches                      ...     3812
Average number of points per batch           ...       63
Average number of grid points per atom       ...     4661

--------------------
COSX GRID GENERATION
--------------------

GRIDX 1
-------
General Integration Accuracy     IntAcc      ... 3.816
Radial Grid Type                 RadialGrid  ... OptM3 with GC (2021)
Angular Grid (max. ang.)         AngularGrid ... 1 (Lebedev-50)
Angular grid pruning method      GridPruning ... 4 (adaptive)
Weight generation scheme         WeightScheme... mBecke (2022)
Basis function cutoff            BFCut       ... 1.0000e-10
Integration weight cutoff        WCut        ... 1.0000e-14
Partially contracted basis set               ... on
Rotationally invariant grid construction     ... off
Angular grids for H and He will be reduced by one unit

Total number of grid points                  ...    30777
Total number of batches                      ...      267
Average number of points per batch           ...      115
Average number of grid points per atom       ...      592
UseSFitting                                  ... on

GRIDX 2
-------
General Integration Accuracy     IntAcc      ... 4.020
Radial Grid Type                 RadialGrid  ... OptM3 with GC (2021)
Angular Grid (max. ang.)         AngularGrid ... 2 (Lebedev-110)
Angular grid pruning method      GridPruning ... 4 (adaptive)
Weight generation scheme         WeightScheme... mBecke (2022)
Basis function cutoff            BFCut       ... 1.0000e-10
Integration weight cutoff        WCut        ... 1.0000e-14
Partially contracted basis set               ... on
Rotationally invariant grid construction     ... off
Angular grids for H and He will be reduced by one unit

Total number of grid points                  ...    65929
Total number of batches                      ...      543
Average number of points per batch           ...      121
Average number of grid points per atom       ...     1268
UseSFitting                                  ... on

GRIDX 3
-------
General Integration Accuracy     IntAcc      ... 4.338
Radial Grid Type                 RadialGrid  ... OptM3 with GC (2021)
Angular Grid (max. ang.)         AngularGrid ... 3 (Lebedev-194)
Angular grid pruning method      GridPruning ... 4 (adaptive)
Weight generation scheme         WeightScheme... mBecke (2022)
Basis function cutoff            BFCut       ... 1.0000e-10
Integration weight cutoff        WCut        ... 1.0000e-14
Partially contracted basis set               ... on
Rotationally invariant grid construction     ... off
Angular grids for H and He will be reduced by one unit

Total number of grid points                  ...   143402
Total number of batches                      ...     1143
Average number of points per batch           ...      125
Average number of grid points per atom       ...     2758
UseSFitting                                  ... on
Initializing property integral containers    ... done (  0.1 sec)

SHARK setup successfully completed in  12.7 seconds

Maximum memory used throughout the entire STARTUP-calculation: 107.6 MB
-------------------------------------------------------------------------------
                                 ORCA GUESS
                   Start orbitals & Density for SCF / CASSCF
-------------------------------------------------------------------------------

------------
SCF SETTINGS
------------
Hamiltonian:
 Density Functional     Method          .... DFT(GTOs)
 Exchange Functional    Exchange        .... B88
   X-Alpha parameter    XAlpha          ....  0.666667
   Becke's b parameter  XBeta           ....  0.004200
 Correlation Functional Correlation     .... LYP
 LDA part of GGA corr.  LDAOpt          .... VWN-5
 Gradients option       PostSCFGGA      .... off
 Hybrid DFT is turned on
   Fraction HF Exchange ScalHFX         ....  0.200000
   Scaling of DF-GGA-X  ScalDFX         ....  0.720000
   Scaling of DF-GGA-C  ScalDFC         ....  0.810000
   Scaling of DF-LDA-C  ScalLDAC        ....  1.000000
   Perturbative correction              ....  0.000000
   NL short-range parameter             ....  4.800000
 RI-approximation to the Coulomb term is turned on
   Number of AuxJ basis functions       .... 1636
   RIJ-COSX (HFX calculated with COS-X)).... on


General Settings:
 Integral files         IntName         .... /home/nmrbox/aojoawo/Documents/ERDOS/inputs/CHEMBL3926675
 Hartree-Fock type      HFTyp           .... RHF
 Total Charge           Charge          ....    0
 Multiplicity           Mult            ....    1
 Number of Electrons    NEL             ....  198
 Basis Dimension        Dim             ....  440
 Nuclear Repulsion      ENuc            ....   2655.8292583150 Eh

Convergence Acceleration:
 AO-DIIS                CNVDIIS         .... on
   Start iteration      DIISMaxIt       ....    12
   Startup error        DIISStart       ....  0.200000
   # of expansion vecs  DIISMaxEq       ....     5
   Bias factor          DIISBfac        ....   1.050
   Max. coefficient     DIISMaxC        ....  10.000
 MO-DIIS                CNVKDIIS        .... off
 Trust-Rad. Augm. Hess. CNVTRAH         .... auto
   Auto Start mean grad. ratio tolernc. ....  1.125000
   Auto Start start iteration           ....    50
   Auto Start num. interpolation iter.  ....    10
   Max. Number of Micro iterations      ....    24
   Max. Number of Macro iterations      .... Maxiter - #DIIS iter
   Number of Davidson start vectors     ....     2
   Converg. threshold    (grad. norm)   ....   5.000e-05
   Grad. Scal. Fac. for Micro threshold ....   0.100
   Minimum threshold for Micro iter.    ....   1.000e-02
   NR start threshold (gradient norm)   ....   1.000e-04
   Initial trust radius                 ....   0.400
   Minimum AH scaling param. (alpha)    ....   1.000
   Maximum AH scaling param. (alpha)    .... 1000.000
   Quad. conv. algorithm                .... NR
   White noise on init. David. guess    .... on
   Maximum white noise                  ....   0.010
   Pseudo random numbers                .... off
   Inactive MOs                         .... canonical
   Orbital update algorithm             .... Taylor
   Preconditioner                       .... Diag
   Full preconditioner red. dimension   ....   250
 SOSCF                  CNVSOSCF        .... on
   Start iteration      SOSCFMaxIt      ....   150
   Startup grad/error   SOSCFStart      ....  0.003300
   Hessian update       SOSCFHessUp     .... L-BFGS
 Level Shifting         CNVShift        .... on
   Level shift para.    LevelShift      ....    0.2500
   Turn off err/grad.   ShiftErr        ....    0.0010
 Zerner damping         CNVZerner       .... off
 Static damping         CNVDamp         .... on
   Fraction old density DampFac         ....    0.7000
   Max. Damping (<1)    DampMax         ....    0.9800
   Min. Damping (>=0)   DampMin         ....    0.0000
   Turn off err/grad.   DampErr         ....    0.1000

SCF Procedure:
 Maximum # iterations   MaxIter         ....   125
 SCF integral mode      SCFMode         .... Direct
   Integral package                     .... SHARK and LIBINT hybrid scheme
 Reset frequency        DirectResetFreq ....    20
 Integral Threshold     Thresh          ....  1.000e-10 Eh
 Primitive CutOff       TCut            ....  1.000e-11 Eh

Convergence Tolerance:
 Convergence Check Mode ConvCheckMode   .... Total+1el-Energy
 Convergence forced     ConvForced      .... 0
 Energy Change          TolE            ....  1.000e-06 Eh
 1-El. energy change                    ....  1.000e-03 Eh
 Orbital Gradient       TolG            ....  5.000e-05
 Orbital Rotation angle TolX            ....  5.000e-05
 DIIS Error             TolErr          ....  1.000e-06

------------------------------
INITIAL GUESS: MODEL POTENTIAL
------------------------------
Loading Hartree-Fock densities                     ... done
Calculating cut-offs                               ... done
Initializing the effective Hamiltonian             ... done
Setting up the integral package (SHARK)            ... done
Starting the Coulomb interaction                   ... done (   3.6 sec)
Making the grid                                    ... done (   1.7 sec)
Mapping shells                                     ... done
Starting the XC term evaluation                    ... done (   1.4 sec)
  promolecular density results
     # of electrons  =    197.983551336
     EX              =   -159.955923802
     EC              =     -6.681025587
     EX+EC           =   -166.636949390
Transforming the Hamiltonian                       ... done (   0.0 sec)
Diagonalizing the Hamiltonian                      ... done (   0.0 sec)
Back transforming the eigenvectors                 ... done (   0.0 sec)
Now organizing SCF variables                       ... done
                      ------------------
                      INITIAL GUESS DONE (   6.8 sec)
                      ------------------
             **** ENERGY FILE WAS UPDATED (/home/nmrbox/aojoawo/Documents/ERDOS/inputs/CHEMBL3926675.en.tmp) ****
Finished Guess after   7.2 sec
Maximum memory used throughout the entire GUESS-calculation: 59.0 MB

-------------------------------------------------------------------------------------------
                                      ORCA LEAN-SCF
                              memory conserving SCF solver
-------------------------------------------------------------------------------------------

----------------------------------------D-I-I-S--------------------------------------------
Iteration    Energy (Eh)           Delta-E    RMSDP     MaxDP     DIISErr   Damp  Time(sec)
-------------------------------------------------------------------------------------------
               ***  Starting incremental Fock matrix formation  ***
    1    -1187.4270849709632785     0.00e+00  2.33e-03  1.04e-01  2.73e-01  0.700  63.2
    2    -1187.7765533260280790    -3.49e-01  1.54e-03  5.73e-02  1.03e-01  0.700  27.7
                               ***Turning on AO-DIIS***
    3    -1187.9092520168110241    -1.33e-01  6.38e-04  1.72e-02  3.88e-02  0.700  26.9
    4    -1187.9920346888216045    -8.28e-02  9.98e-04  3.17e-02  1.53e-02  0.000  25.5
    5    -1188.1734370113017576    -1.81e-01  2.49e-04  9.19e-03  6.96e-03  0.000  26.8
                              *** Initializing SOSCF ***
---------------------------------------S-O-S-C-F--------------------------------------
Iteration    Energy (Eh)           Delta-E    RMSDP     MaxDP     MaxGrad    Time(sec)
--------------------------------------------------------------------------------------
    6    -1188.1749090649159371    -1.47e-03  7.46e-05  2.26e-03  2.22e-03    23.1
               *** Restarting incremental Fock matrix formation ***
    7    -1188.1748161356003948     9.29e-05  5.09e-05  2.36e-03  2.24e-04    62.9
    8    -1188.1748087523196773     7.38e-06  2.27e-05  1.72e-03  3.96e-04    35.3
    9    -1188.1748263726076402    -1.76e-05  1.40e-05  7.12e-04  1.10e-04    29.0
   10    -1188.1748247572450055     1.62e-06  8.02e-06  4.41e-04  1.63e-04    26.1
   11    -1188.1748271588166972    -2.40e-06  4.56e-06  1.35e-04  4.18e-05    23.9
   12    -1188.1748270991670324     5.96e-08  2.73e-06  8.57e-05  6.60e-05    21.2
                 **** Energy Check signals convergence ****

               *****************************************************
               *                     SUCCESS                       *
               *           SCF CONVERGED AFTER  12 CYCLES          *
               *****************************************************

Recomputing exchange energy using gridx3       ... done (  107.748 sec)
Old exchange energy                            :    -32.520291429 Eh
New exchange energy                            :    -32.520374977 Eh
Exchange energy change after final integration :     -0.000083548 Eh
Total energy after final integration           :  -1188.174910647 Eh
             **** ENERGY FILE WAS UPDATED (/home/nmrbox/aojoawo/Documents/ERDOS/inputs/CHEMBL3926675.en.tmp) ****

----------------
TOTAL SCF ENERGY
----------------

Total Energy       :      -1188.17491064743263 Eh          -32331.88304 eV

Components:
Nuclear Repulsion  :       2655.82925831501097 Eh           72268.78819 eV
Electronic Energy  :      -3844.00408541417801 Eh         -104600.66896 eV
One Electron Energy:      -6896.38579164768817 Eh         -187660.19785 eV
Two Electron Energy:       3052.38170623351016 Eh           83059.52889 eV

Virial components:
Potential Energy   :      -2368.68128036657481 Eh          -64455.09447 eV
Kinetic Energy     :       1180.50636971914219 Eh           32123.21143 eV
Virial Ratio       :          2.00649597590068

DFT components:
N(Alpha)           :       99.000137230726 electrons
N(Beta)            :       99.000137230726 electrons
N(Total)           :      198.000274461452 electrons
E(X)               :     -129.132672404211 Eh       
E(C)               :       -7.873817281615 Eh       
E(XC)              :     -137.006489685826 Eh       

---------------
SCF CONVERGENCE
---------------

  Last Energy change         ...   -5.9650e-08  Tolerance :   1.0000e-06
  Last MAX-Density change    ...    8.5710e-05  Tolerance :   1.0000e-05
  Last RMS-Density change    ...    2.7263e-06  Tolerance :   1.0000e-06
  Last DIIS Error            ...    2.2153e-03  Tolerance :   1.0000e-06
  Last Orbital Gradient      ...    6.6032e-05  Tolerance :   5.0000e-05
  Last Orbital Rotation      ...    8.9516e-05  Tolerance :   5.0000e-05


----------------
ORBITAL ENERGIES
----------------

  NO   OCC          E(Eh)            E(eV) 
   0   2.0000     -19.111967      -520.0631 
   1   2.0000     -19.095157      -519.6056 
   2   2.0000     -14.344892      -390.3443 
   3   2.0000     -14.324438      -389.7878 
   4   2.0000     -10.278865      -279.7021 
   5   2.0000     -10.277392      -279.6620 
   6   2.0000     -10.234963      -278.5075 
   7   2.0000     -10.218153      -278.0501 
   8   2.0000     -10.196825      -277.4697 
   9   2.0000     -10.188594      -277.2457 
  10   2.0000     -10.186510      -277.1890 
  11   2.0000     -10.184849      -277.1438 
  12   2.0000     -10.184597      -277.1370 
  13   2.0000     -10.183524      -277.1078 
  14   2.0000     -10.183384      -277.1040 
  15   2.0000     -10.182737      -277.0864 
  16   2.0000     -10.182297      -277.0744 
  17   2.0000     -10.181444      -277.0512 
  18   2.0000     -10.181230      -277.0454 
  19   2.0000     -10.180514      -277.0259 
  20   2.0000     -10.179093      -276.9872 
  21   2.0000     -10.175721      -276.8954 
  22   2.0000     -10.170797      -276.7614 
  23   2.0000     -10.169628      -276.7297 
  24   2.0000     -10.168054      -276.6868 
  25   2.0000     -10.166813      -276.6530 
  26   2.0000     -10.165848      -276.6268 
  27   2.0000     -10.163712      -276.5687 
  28   2.0000      -1.006634       -27.3919 
  29   2.0000      -0.992585       -27.0096 
  30   2.0000      -0.907765       -24.7016 
  31   2.0000      -0.868919       -23.6445 
  32   2.0000      -0.852430       -23.1958 
  33   2.0000      -0.848595       -23.0915 
  34   2.0000      -0.834372       -22.7044 
  35   2.0000      -0.789301       -21.4780 
  36   2.0000      -0.764604       -20.8059 
  37   2.0000      -0.751422       -20.4472 
  38   2.0000      -0.744333       -20.2543 
  39   2.0000      -0.740353       -20.1460 
  40   2.0000      -0.730728       -19.8841 
  41   2.0000      -0.727506       -19.7964 
  42   2.0000      -0.701872       -19.0989 
  43   2.0000      -0.665269       -18.1029 
  44   2.0000      -0.621854       -16.9215 
  45   2.0000      -0.609535       -16.5863 
  46   2.0000      -0.602016       -16.3817 
  47   2.0000      -0.600877       -16.3507 
  48   2.0000      -0.596487       -16.2312 
  49   2.0000      -0.586575       -15.9615 
  50   2.0000      -0.570922       -15.5356 
  51   2.0000      -0.561273       -15.2730 
  52   2.0000      -0.536970       -14.6117 
  53   2.0000      -0.520178       -14.1548 
  54   2.0000      -0.518168       -14.1001 
  55   2.0000      -0.505070       -13.7437 
  56   2.0000      -0.493728       -13.4350 
  57   2.0000      -0.485642       -13.2150 
  58   2.0000      -0.474059       -12.8998 
  59   2.0000      -0.465843       -12.6762 
  60   2.0000      -0.454537       -12.3686 
  61   2.0000      -0.453034       -12.3277 
  62   2.0000      -0.446215       -12.1421 
  63   2.0000      -0.440041       -11.9741 
  64   2.0000      -0.434752       -11.8302 
  65   2.0000      -0.432584       -11.7712 
  66   2.0000      -0.427234       -11.6256 
  67   2.0000      -0.422078       -11.4853 
  68   2.0000      -0.417003       -11.3472 
  69   2.0000      -0.415283       -11.3004 
  70   2.0000      -0.404656       -11.0112 
  71   2.0000      -0.403789       -10.9876 
  72   2.0000      -0.400686       -10.9032 
  73   2.0000      -0.383416       -10.4333 
  74   2.0000      -0.380363       -10.3502 
  75   2.0000      -0.376654       -10.2493 
  76   2.0000      -0.365416        -9.9435 
  77   2.0000      -0.357819        -9.7367 
  78   2.0000      -0.357430        -9.7262 
  79   2.0000      -0.353411        -9.6168 
  80   2.0000      -0.346682        -9.4337 
  81   2.0000      -0.343567        -9.3489 
  82   2.0000      -0.343185        -9.3385 
  83   2.0000      -0.340400        -9.2627 
  84   2.0000      -0.338692        -9.2163 
  85   2.0000      -0.332790        -9.0557 
  86   2.0000      -0.328262        -8.9325 
  87   2.0000      -0.321990        -8.7618 
  88   2.0000      -0.316350        -8.6083 
  89   2.0000      -0.260914        -7.0998 
  90   2.0000      -0.255505        -6.9527 
  91   2.0000      -0.252966        -6.8836 
  92   2.0000      -0.246170        -6.6986 
  93   2.0000      -0.241944        -6.5836 
  94   2.0000      -0.238468        -6.4891 
  95   2.0000      -0.233538        -6.3549 
  96   2.0000      -0.228911        -6.2290 
  97   2.0000      -0.221913        -6.0385 
  98   2.0000      -0.200815        -5.4645 
  99   0.0000      -0.046936        -1.2772 
 100   0.0000      -0.010537        -0.2867 
 101   0.0000      -0.005265        -0.1433 
 102   0.0000       0.006819         0.1855 
 103   0.0000       0.010905         0.2967 
 104   0.0000       0.013727         0.3735 
 105   0.0000       0.025634         0.6975 
 106   0.0000       0.046361         1.2615 
 107   0.0000       0.068198         1.8558 
 108   0.0000       0.079408         2.1608 
 109   0.0000       0.092671         2.5217 
*Only the first 10 virtual orbitals were printed.

                    ********************************
                    * MULLIKEN POPULATION ANALYSIS *
                    ********************************

-----------------------
MULLIKEN ATOMIC CHARGES
-----------------------
   0 C :   -0.442924
   1 C :   -0.262404
   2 C :   -0.062296
   3 C :    0.183681
   4 C :   -0.148156
   5 C :   -0.123194
   6 C :   -0.124062
   7 C :   -0.125938
   8 C :   -0.185302
   9 N :   -0.423796
  10 C :    0.426799
  11 O :   -0.409427
  12 C :    0.109052
  13 C :   -0.152647
  14 C :   -0.133948
  15 C :   -0.116072
  16 C :   -0.128922
  17 C :   -0.151729
  18 C :   -0.148970
  19 C :    0.585935
  20 N :   -0.771629
  21 O :   -0.460616
  22 C :    0.140176
  23 C :   -0.180467
  24 C :   -0.127027
  25 C :   -0.120164
  26 C :   -0.120845
  27 C :   -0.170443
  28 H :    0.139055
  29 H :    0.159879
  30 H :    0.142454
  31 H :    0.139471
  32 H :    0.125510
  33 H :    0.147636
  34 H :    0.139981
  35 H :    0.126734
  36 H :    0.120676
  37 H :    0.117955
  38 H :    0.109125
  39 H :    0.157785
  40 H :    0.131561
  41 H :    0.129252
  42 H :    0.126869
  43 H :    0.142251
  44 H :    0.140935
  45 H :    0.349076
  46 H :    0.324954
  47 H :    0.124003
  48 H :    0.127070
  49 H :    0.127897
  50 H :    0.133506
  51 H :    0.161697
Sum of atomic charges:   -0.0000000

--------------------------------
MULLIKEN REDUCED ORBITAL CHARGES
--------------------------------
  0 C s       :     3.303870  s :     3.303870
      pz      :     1.015770  p :     3.104746
      px      :     1.025043
      py      :     1.063933
      dz2     :     0.003863  d :     0.034308
      dxz     :     0.008855
      dyz     :     0.008881
      dx2y2   :     0.003902
      dxy     :     0.008806

  1 C s       :     3.255252  s :     3.255252
      pz      :     0.960625  p :     2.967576
      px      :     0.994681
      py      :     1.012270
      dz2     :     0.005845  d :     0.039575
      dxz     :     0.009832
      dyz     :     0.008975
      dx2y2   :     0.005574
      dxy     :     0.009350

  2 C s       :     3.218366  s :     3.218366
      pz      :     0.899277  p :     2.784167
      px      :     0.880637
      py      :     1.004253
      dz2     :     0.010417  d :     0.059762
      dxz     :     0.015790
      dyz     :     0.012720
      dx2y2   :     0.010001
      dxy     :     0.010834

  3 C s       :     3.124912  s :     3.124912
      pz      :     0.936979  p :     2.652204
      px      :     0.879387
      py      :     0.835838
      dz2     :     0.003843  d :     0.039203
      dxz     :     0.006071
      dyz     :     0.007795
      dx2y2   :     0.010798
      dxy     :     0.010697

  4 C s       :     3.196491  s :     3.196491
      pz      :     0.973605  p :     2.915893
      px      :     0.958105
      py      :     0.984183
      dz2     :     0.004841  d :     0.035772
      dxz     :     0.005704
      dyz     :     0.005142
      dx2y2   :     0.011973
      dxy     :     0.008113

  5 C s       :     3.187535  s :     3.187535
      pz      :     0.974473  p :     2.899460
      px      :     0.979677
      py      :     0.945310
      dz2     :     0.004993  d :     0.036199
      dxz     :     0.004446
      dyz     :     0.006398
      dx2y2   :     0.008344
      dxy     :     0.012018

  6 C s       :     3.182074  s :     3.182074
      pz      :     0.986756  p :     2.905798
      px      :     0.970284
      py      :     0.948759
      dz2     :     0.002880  d :     0.036190
      dxz     :     0.006241
      dyz     :     0.006971
      dx2y2   :     0.009680
      dxy     :     0.010418

  7 C s       :     3.183473  s :     3.183473
      pz      :     0.982995  p :     2.906113
      px      :     0.949778
      py      :     0.973340
      dz2     :     0.005075  d :     0.036352
      dxz     :     0.005934
      dyz     :     0.004953
      dx2y2   :     0.012423
      dxy     :     0.007967

  8 C s       :     3.199632  s :     3.199632
      pz      :     1.001534  p :     2.949811
      px      :     0.982639
      py      :     0.965638
      dz2     :     0.005223  d :     0.035859
      dxz     :     0.004206
      dyz     :     0.006276
      dx2y2   :     0.007902
      dxy     :     0.012254

  9 N s       :     3.529636  s :     3.529636
      pz      :     1.409807  p :     3.862400
      px      :     1.394940
      py      :     1.057652
      dz2     :     0.004943  d :     0.031761
      dxz     :     0.005199
      dyz     :     0.007206
      dx2y2   :     0.008235
      dxy     :     0.006177

 10 C s       :     3.083489  s :     3.083489
      pz      :     0.789999  p :     2.389677
      px      :     0.838635
      py      :     0.761043
      dz2     :     0.010654  d :     0.100036
      dxz     :     0.013316
      dyz     :     0.017553
      dx2y2   :     0.032129
      dxy     :     0.026382

 11 O s       :     3.897628  s :     3.897628
      pz      :     1.300978  p :     4.486236
      px      :     1.452995
      py      :     1.732263
      dz2     :     0.005570  d :     0.025563
      dxz     :     0.006281
      dyz     :     0.003167
      dx2y2   :     0.004958
      dxy     :     0.005587

 12 C s       :     3.161519  s :     3.161519
      pz      :     0.922202  p :     2.690820
      px      :     0.901747
      py      :     0.866871
      dz2     :     0.007545  d :     0.038610
      dxz     :     0.006688
      dyz     :     0.007637
      dx2y2   :     0.007326
      dxy     :     0.009414

 13 C s       :     3.214769  s :     3.214769
      pz      :     0.990124  p :     2.902019
      px      :     0.953234
      py      :     0.958662
      dz2     :     0.004932  d :     0.035858
      dxz     :     0.007975
      dyz     :     0.007145
      dx2y2   :     0.008174
      dxy     :     0.007632

 14 C s       :     3.191642  s :     3.191642
      pz      :     0.965180  p :     2.906354
      px      :     0.955093
      py      :     0.986081
      dz2     :     0.005781  d :     0.035952
      dxz     :     0.006685
      dyz     :     0.007909
      dx2y2   :     0.008531
      dxy     :     0.007046

 15 C s       :     3.188981  s :     3.188981
      pz      :     0.955649  p :     2.890591
      px      :     0.975660
      py      :     0.959281
      dz2     :     0.007433  d :     0.036501
      dxz     :     0.006047
      dyz     :     0.007026
      dx2y2   :     0.006360
      dxy     :     0.009635

 16 C s       :     3.189316  s :     3.189316
      pz      :     0.986704  p :     2.903670
      px      :     0.971122
      py      :     0.945844
      dz2     :     0.004913  d :     0.035937
      dxz     :     0.008315
      dyz     :     0.006915
      dx2y2   :     0.007831
      dxy     :     0.007962

 17 C s       :     3.200175  s :     3.200175
      pz      :     0.986633  p :     2.915345
      px      :     0.957687
      py      :     0.971025
      dz2     :     0.005916  d :     0.036209
      dxz     :     0.006691
      dyz     :     0.008214
      dx2y2   :     0.008563
      dxy     :     0.006825

 18 C s       :     3.237678  s :     3.237678
      pz      :     0.923076  p :     2.851547
      px      :     0.961970
      py      :     0.966501
      dz2     :     0.014607  d :     0.059744
      dxz     :     0.011151
      dyz     :     0.011865
      dx2y2   :     0.012682
      dxy     :     0.009439

 19 C s       :     3.014880  s :     3.014880
      pz      :     0.814237  p :     2.300326
      px      :     0.774236
      py      :     0.711852
      dz2     :     0.017101  d :     0.098859
      dxz     :     0.017512
      dyz     :     0.023255
      dx2y2   :     0.023805
      dxy     :     0.017187

 20 N s       :     3.610941  s :     3.610941
      pz      :     1.289997  p :     4.138336
      px      :     1.539028
      py      :     1.309310
      dz2     :     0.005966  d :     0.022353
      dxz     :     0.004106
      dyz     :     0.004403
      dx2y2   :     0.002050
      dxy     :     0.005829

 21 O s       :     3.899865  s :     3.899865
      pz      :     1.686767  p :     4.534564
      px      :     1.385752
      py      :     1.462044
      dz2     :     0.003241  d :     0.026187
      dxz     :     0.003342
      dyz     :     0.005053
      dx2y2   :     0.007846
      dxy     :     0.006705

 22 C s       :     3.129201  s :     3.129201
      pz      :     0.908009  p :     2.691092
      px      :     0.851315
      py      :     0.931768
      dz2     :     0.008263  d :     0.039530
      dxz     :     0.009255
      dyz     :     0.005589
      dx2y2   :     0.008719
      dxy     :     0.007705

 23 C s       :     3.202414  s :     3.202414
      pz      :     0.977319  p :     2.942025
      px      :     0.965607
      py      :     0.999098
      dz2     :     0.005219  d :     0.036028
      dxz     :     0.009340
      dyz     :     0.006731
      dx2y2   :     0.006803
      dxy     :     0.007936

 24 C s       :     3.187532  s :     3.187532
      pz      :     0.977271  p :     2.903371
      px      :     0.954460
      py      :     0.971641
      dz2     :     0.005269  d :     0.036124
      dxz     :     0.010696
      dyz     :     0.005121
      dx2y2   :     0.007181
      dxy     :     0.007857

 25 C s       :     3.185394  s :     3.185394
      pz      :     0.956535  p :     2.898587
      px      :     0.977246
      py      :     0.964806
      dz2     :     0.008553  d :     0.036183
      dxz     :     0.006758
      dyz     :     0.005531
      dx2y2   :     0.008993
      dxy     :     0.006348

 26 C s       :     3.188946  s :     3.188946
      pz      :     0.970973  p :     2.895786
      px      :     0.943147
      py      :     0.981666
      dz2     :     0.005165  d :     0.036113
      dxz     :     0.009103
      dyz     :     0.006730
      dx2y2   :     0.007148
      dxy     :     0.007967

 27 C s       :     3.203052  s :     3.203052
      pz      :     0.995186  p :     2.931634
      px      :     0.967146
      py      :     0.969303
      dz2     :     0.005013  d :     0.035757
      dxz     :     0.010425
      dyz     :     0.005353
      dx2y2   :     0.007021
      dxy     :     0.007946

 28 H s       :     0.860945  s :     0.860945

 29 H s       :     0.840121  s :     0.840121

 30 H s       :     0.857546  s :     0.857546

 31 H s       :     0.860529  s :     0.860529

 32 H s       :     0.874490  s :     0.874490

 33 H s       :     0.852364  s :     0.852364

 34 H s       :     0.860019  s :     0.860019

 35 H s       :     0.873266  s :     0.873266

 36 H s       :     0.879324  s :     0.879324

 37 H s       :     0.882045  s :     0.882045

 38 H s       :     0.890875  s :     0.890875

 39 H s       :     0.842215  s :     0.842215

 40 H s       :     0.868439  s :     0.868439

 41 H s       :     0.870748  s :     0.870748

 42 H s       :     0.873131  s :     0.873131

 43 H s       :     0.857749  s :     0.857749

 44 H s       :     0.859065  s :     0.859065

 45 H s       :     0.650924  s :     0.650924

 46 H s       :     0.675046  s :     0.675046

 47 H s       :     0.875997  s :     0.875997

 48 H s       :     0.872930  s :     0.872930

 49 H s       :     0.872103  s :     0.872103

 50 H s       :     0.866494  s :     0.866494

 51 H s       :     0.838303  s :     0.838303



                     *******************************
                     * LOEWDIN POPULATION ANALYSIS *
                     *******************************

----------------------
LOEWDIN ATOMIC CHARGES
----------------------
   0 C :   -0.361464
   1 C :   -0.235789
   2 C :   -0.041327
   3 C :   -0.017943
   4 C :   -0.110344
   5 C :   -0.123152
   6 C :   -0.131873
   7 C :   -0.131580
   8 C :   -0.146228
   9 N :   -0.127040
  10 C :    0.152615
  11 O :   -0.212660
  12 C :   -0.050968
  13 C :   -0.095555
  14 C :   -0.132980
  15 C :   -0.116066
  16 C :   -0.130886
  17 C :   -0.104826
  18 C :   -0.064685
  19 C :    0.131711
  20 N :   -0.408573
  21 O :   -0.268331
  22 C :   -0.024449
  23 C :   -0.132645
  24 C :   -0.130778
  25 C :   -0.125135
  26 C :   -0.121468
  27 C :   -0.122955
  28 H :    0.123811
  29 H :    0.131054
  30 H :    0.122543
  31 H :    0.119820
  32 H :    0.111895
  33 H :    0.135244
  34 H :    0.138057
  35 H :    0.131058
  36 H :    0.127895
  37 H :    0.126468
  38 H :    0.120545
  39 H :    0.148041
  40 H :    0.132924
  41 H :    0.131624
  42 H :    0.130912
  43 H :    0.136753
  44 H :    0.135150
  45 H :    0.264289
  46 H :    0.246485
  47 H :    0.128464
  48 H :    0.130716
  49 H :    0.131397
  50 H :    0.134150
  51 H :    0.146079

-------------------------------
LOEWDIN REDUCED ORBITAL CHARGES
-------------------------------
  0 C s       :     2.981856  s :     2.981856
      pz      :     1.087605  p :     3.312585
      px      :     1.103318
      py      :     1.121662
      dz2     :     0.007767  d :     0.067023
      dxz     :     0.018305
      dyz     :     0.016851
      dx2y2   :     0.007559
      dxy     :     0.016541

  1 C s       :     2.945303  s :     2.945303
      pz      :     1.044909  p :     3.207100
      px      :     1.077242
      py      :     1.084949
      dz2     :     0.012028  d :     0.083387
      dxz     :     0.022169
      dyz     :     0.019325
      dx2y2   :     0.011384
      dxy     :     0.018481

  2 C s       :     2.891429  s :     2.891429
      pz      :     0.981518  p :     3.018561
      px      :     0.977376
      py      :     1.059667
      dz2     :     0.020856  d :     0.131337
      dxz     :     0.035956
      dyz     :     0.028714
      dx2y2   :     0.021208
      dxy     :     0.024603

  3 C s       :     2.884366  s :     2.884366
      pz      :     0.974226  p :     3.036101
      px      :     1.011850
      py      :     1.050025
      dz2     :     0.008464  d :     0.097476
      dxz     :     0.013512
      dyz     :     0.018171
      dx2y2   :     0.028398
      dxy     :     0.028930

  4 C s       :     2.919506  s :     2.919506
      pz      :     0.998532  p :     3.107273
      px      :     1.039361
      py      :     1.069380
      dz2     :     0.009577  d :     0.083565
      dxz     :     0.014756
      dyz     :     0.010628
      dx2y2   :     0.027615
      dxy     :     0.020988

  5 C s       :     2.917625  s :     2.917625
      pz      :     1.001598  p :     3.120382
      px      :     1.052931
      py      :     1.065854
      dz2     :     0.009952  d :     0.085144
      dxz     :     0.009839
      dyz     :     0.015724
      dx2y2   :     0.021950
      dxy     :     0.027679

  6 C s       :     2.916647  s :     2.916647
      pz      :     1.009147  p :     3.129935
      px      :     1.052122
      py      :     1.068667
      dz2     :     0.006466  d :     0.085291
      dxz     :     0.011611
      dyz     :     0.015791
      dx2y2   :     0.024857
      dxy     :     0.026566

  7 C s       :     2.916198  s :     2.916198
      pz      :     1.010179  p :     3.129704
      px      :     1.054545
      py      :     1.064981
      dz2     :     0.010266  d :     0.085678
      dxz     :     0.015283
      dyz     :     0.010457
      dx2y2   :     0.028622
      dxy     :     0.021049

  8 C s       :     2.916537  s :     2.916537
      pz      :     1.027095  p :     3.145704
      px      :     1.057834
      py      :     1.060775
      dz2     :     0.010281  d :     0.083986
      dxz     :     0.009688
      dyz     :     0.015110
      dx2y2   :     0.020609
      dxy     :     0.028298

  9 N s       :     3.109398  s :     3.109398
      pz      :     1.404749  p :     3.937985
      px      :     1.404659
      py      :     1.128577
      dz2     :     0.011891  d :     0.079657
      dxz     :     0.011628
      dyz     :     0.018346
      dx2y2   :     0.021513
      dxy     :     0.016281

 10 C s       :     2.870330  s :     2.870330
      pz      :     0.834624  p :     2.745814
      px      :     0.972985
      py      :     0.938205
      dz2     :     0.021804  d :     0.231241
      dxz     :     0.031113
      dyz     :     0.040167
      dx2y2   :     0.076826
      dxy     :     0.061330

 11 O s       :     3.595021  s :     3.595021
      pz      :     1.325228  p :     4.567163
      px      :     1.503159
      py      :     1.738776
      dz2     :     0.007970  d :     0.050476
      dxz     :     0.013776
      dyz     :     0.006357
      dx2y2   :     0.010069
      dxy     :     0.012305

 12 C s       :     2.882282  s :     2.882282
      pz      :     1.029419  p :     3.068840
      px      :     1.006787
      py      :     1.032634
      dz2     :     0.017950  d :     0.099846
      dxz     :     0.017593
      dyz     :     0.021035
      dx2y2   :     0.018997
      dxy     :     0.024270

 13 C s       :     2.921251  s :     2.921251
      pz      :     1.031426  p :     3.090889
      px      :     1.032928
      py      :     1.026536
      dz2     :     0.011287  d :     0.083414
      dxz     :     0.015997
      dyz     :     0.016132
      dx2y2   :     0.019783
      dxy     :     0.020216

 14 C s       :     2.917862  s :     2.917862
      pz      :     1.033923  p :     3.130336
      px      :     1.045225
      py      :     1.051188
      dz2     :     0.013383  d :     0.084782
      dxz     :     0.018292
      dyz     :     0.016452
      dx2y2   :     0.019500
      dxy     :     0.017156

 15 C s       :     2.919832  s :     2.919832
      pz      :     1.024922  p :     3.110607
      px      :     1.039526
      py      :     1.046159
      dz2     :     0.016647  d :     0.085627
      dxz     :     0.014184
      dyz     :     0.018774
      dx2y2   :     0.015390
      dxy     :     0.020632

 16 C s       :     2.917267  s :     2.917267
      pz      :     1.035181  p :     3.128669
      px      :     1.043777
      py      :     1.049711
      dz2     :     0.011274  d :     0.084950
      dxz     :     0.016971
      dyz     :     0.016290
      dx2y2   :     0.019279
      dxy     :     0.021136

 17 C s       :     2.920246  s :     2.920246
      pz      :     1.025475  p :     3.100378
      px      :     1.026765
      py      :     1.048138
      dz2     :     0.013536  d :     0.084203
      dxz     :     0.017604
      dyz     :     0.016675
      dx2y2   :     0.019648
      dxy     :     0.016740

 18 C s       :     2.886330  s :     2.886330
      pz      :     1.010477  p :     3.046310
      px      :     1.014246
      py      :     1.021587
      dz2     :     0.034059  d :     0.132045
      dxz     :     0.025367
      dyz     :     0.025437
      dx2y2   :     0.027117
      dxy     :     0.020065

 19 C s       :     2.881576  s :     2.881576
      pz      :     0.970028  p :     2.756771
      px      :     0.873152
      py      :     0.913591
      dz2     :     0.040686  d :     0.229941
      dxz     :     0.041201
      dyz     :     0.054089
      dx2y2   :     0.052378
      dxy     :     0.041586

 20 N s       :     3.216601  s :     3.216601
      pz      :     1.297842  p :     4.142794
      px      :     1.525433
      py      :     1.319519
      dz2     :     0.012592  d :     0.049177
      dxz     :     0.007348
      dyz     :     0.012532
      dx2y2   :     0.005562
      dxy     :     0.011144

 21 O s       :     3.592208  s :     3.592208
      pz      :     1.693118  p :     4.625220
      px      :     1.419195
      py      :     1.512908
      dz2     :     0.006200  d :     0.050902
      dxz     :     0.007199
      dyz     :     0.009969
      dx2y2   :     0.011223
      dxy     :     0.016312

 22 C s       :     2.879420  s :     2.879420
      pz      :     1.030251  p :     3.045825
      px      :     1.002216
      py      :     1.013358
      dz2     :     0.019881  d :     0.099204
      dxz     :     0.024277
      dyz     :     0.014618
      dx2y2   :     0.021522
      dxy     :     0.018906

 23 C s       :     2.919552  s :     2.919552
      pz      :     1.035579  p :     3.128726
      px      :     1.064747
      py      :     1.028401
      dz2     :     0.012252  d :     0.084367
      dxz     :     0.023399
      dyz     :     0.012134
      dx2y2   :     0.018028
      dxy     :     0.018554

 24 C s       :     2.917589  s :     2.917589
      pz      :     1.038831  p :     3.128068
      px      :     1.067786
      py      :     1.021451
      dz2     :     0.012400  d :     0.085122
      dxz     :     0.024218
      dyz     :     0.011211
      dx2y2   :     0.017934
      dxy     :     0.019359

 25 C s       :     2.918016  s :     2.918016
      pz      :     1.035234  p :     3.122085
      px      :     1.069474
      py      :     1.017376
      dz2     :     0.019268  d :     0.085035
      dxz     :     0.017440
      dyz     :     0.015051
      dx2y2   :     0.018793
      dxy     :     0.014483

 26 C s       :     2.917450  s :     2.917450
      pz      :     1.034192  p :     3.118939
      px      :     1.067777
      py      :     1.016970
      dz2     :     0.012057  d :     0.085079
      dxz     :     0.023162
      dyz     :     0.012330
      dx2y2   :     0.018740
      dxy     :     0.018790

 27 C s       :     2.920817  s :     2.920817
      pz      :     1.035614  p :     3.118805
      px      :     1.071369
      py      :     1.011823
      dz2     :     0.011650  d :     0.083332
      dxz     :     0.023459
      dyz     :     0.011157
      dx2y2   :     0.017630
      dxy     :     0.019435

 28 H s       :     0.876189  s :     0.876189

 29 H s       :     0.868946  s :     0.868946

 30 H s       :     0.877457  s :     0.877457

 31 H s       :     0.880180  s :     0.880180

 32 H s       :     0.888105  s :     0.888105

 33 H s       :     0.864756  s :     0.864756

 34 H s       :     0.861943  s :     0.861943

 35 H s       :     0.868942  s :     0.868942

 36 H s       :     0.872105  s :     0.872105

 37 H s       :     0.873532  s :     0.873532

 38 H s       :     0.879455  s :     0.879455

 39 H s       :     0.851959  s :     0.851959

 40 H s       :     0.867076  s :     0.867076

 41 H s       :     0.868376  s :     0.868376

 42 H s       :     0.869088  s :     0.869088

 43 H s       :     0.863247  s :     0.863247

 44 H s       :     0.864850  s :     0.864850

 45 H s       :     0.735711  s :     0.735711

 46 H s       :     0.753515  s :     0.753515

 47 H s       :     0.871536  s :     0.871536

 48 H s       :     0.869284  s :     0.869284

 49 H s       :     0.868603  s :     0.868603

 50 H s       :     0.865850  s :     0.865850

 51 H s       :     0.853921  s :     0.853921



                      *****************************
                      * MAYER POPULATION ANALYSIS *
                      *****************************

  NA   - Mulliken gross atomic population
  ZA   - Total nuclear charge
  QA   - Mulliken gross atomic charge
  VA   - Mayer's total valence
  BVA  - Mayer's bonded valence
  FA   - Mayer's free valence

  ATOM       NA         ZA         QA         VA         BVA        FA
  0 C      6.4429     6.0000    -0.4429     3.8430     3.8430    -0.0000
  1 C      6.2624     6.0000    -0.2624     3.8582     3.8582     0.0000
  2 C      6.0623     6.0000    -0.0623     3.8957     3.8957    -0.0000
  3 C      5.8163     6.0000     0.1837     3.8962     3.8962     0.0000
  4 C      6.1482     6.0000    -0.1482     3.9509     3.9509    -0.0000
  5 C      6.1232     6.0000    -0.1232     3.9460     3.9460     0.0000
  6 C      6.1241     6.0000    -0.1241     3.9537     3.9537    -0.0000
  7 C      6.1259     6.0000    -0.1259     3.9552     3.9552    -0.0000
  8 C      6.1853     6.0000    -0.1853     3.9324     3.9324    -0.0000
  9 N      7.4238     7.0000    -0.4238     2.9196     2.9196     0.0000
 10 C      5.5732     6.0000     0.4268     3.9488     3.9488    -0.0000
 11 O      8.4094     8.0000    -0.4094     2.0526     2.0526     0.0000
 12 C      5.8909     6.0000     0.1091     3.8991     3.8991     0.0000
 13 C      6.1526     6.0000    -0.1526     3.9166     3.9166    -0.0000
 14 C      6.1339     6.0000    -0.1339     3.9229     3.9229     0.0000
 15 C      6.1161     6.0000    -0.1161     3.9426     3.9426    -0.0000
 16 C      6.1289     6.0000    -0.1289     3.9415     3.9415    -0.0000
 17 C      6.1517     6.0000    -0.1517     3.9101     3.9101     0.0000
 18 C      6.1490     6.0000    -0.1490     3.8511     3.8511     0.0000
 19 C      5.4141     6.0000     0.5859     3.8191     3.8191     0.0000
 20 N      7.7716     7.0000    -0.7716     2.8247     2.8247     0.0000
 21 O      8.4606     8.0000    -0.4606     2.0650     2.0650    -0.0000
 22 C      5.8598     6.0000     0.1402     3.9523     3.9523     0.0000
 23 C      6.1805     6.0000    -0.1805     3.9393     3.9393    -0.0000
 24 C      6.1270     6.0000    -0.1270     3.9467     3.9467    -0.0000
 25 C      6.1202     6.0000    -0.1202     3.9511     3.9511    -0.0000
 26 C      6.1208     6.0000    -0.1208     3.9434     3.9434    -0.0000
 27 C      6.1704     6.0000    -0.1704     3.9112     3.9112     0.0000
 28 H      0.8609     1.0000     0.1391     0.9368     0.9368     0.0000
 29 H      0.8401     1.0000     0.1599     0.9418     0.9418    -0.0000
 30 H      0.8575     1.0000     0.1425     0.9382     0.9382     0.0000
 31 H      0.8605     1.0000     0.1395     0.9361     0.9361     0.0000
 32 H      0.8745     1.0000     0.1255     0.9383     0.9383     0.0000
 33 H      0.8524     1.0000     0.1476     0.9394     0.9394     0.0000
 34 H      0.8600     1.0000     0.1400     0.9445     0.9445    -0.0000
 35 H      0.8733     1.0000     0.1267     0.9371     0.9371     0.0000
 36 H      0.8793     1.0000     0.1207     0.9375     0.9375    -0.0000
 37 H      0.8820     1.0000     0.1180     0.9381     0.9381     0.0000
 38 H      0.8909     1.0000     0.1091     0.9425     0.9425     0.0000
 39 H      0.8422     1.0000     0.1578     0.9425     0.9425    -0.0000
 40 H      0.8684     1.0000     0.1316     0.9368     0.9368     0.0000
 41 H      0.8707     1.0000     0.1293     0.9360     0.9360    -0.0000
 42 H      0.8731     1.0000     0.1269     0.9382     0.9382    -0.0000
 43 H      0.8577     1.0000     0.1423     0.9482     0.9482     0.0000
 44 H      0.8591     1.0000     0.1409     0.9399     0.9399     0.0000
 45 H      0.6509     1.0000     0.3491     0.8599     0.8599    -0.0000
 46 H      0.6750     1.0000     0.3250     0.8651     0.8651     0.0000
 47 H      0.8760     1.0000     0.1240     0.9412     0.9412    -0.0000
 48 H      0.8729     1.0000     0.1271     0.9369     0.9369    -0.0000
 49 H      0.8721     1.0000     0.1279     0.9365     0.9365     0.0000
 50 H      0.8665     1.0000     0.1335     0.9367     0.9367    -0.0000
 51 H      0.8383     1.0000     0.1617     0.9430     0.9430     0.0000

  Mayer bond orders larger than 0.100000
B(  0-C ,  1-C ) :   1.0085 B(  0-C , 28-H ) :   0.9505 B(  0-C , 29-H ) :   0.9411 
B(  0-C , 30-H ) :   0.9501 B(  1-C ,  2-C ) :   0.9868 B(  1-C , 31-H ) :   0.9315 
B(  1-C , 32-H ) :   0.9291 B(  2-C ,  3-C ) :   0.9459 B(  2-C ,  9-N ) :   0.9466 
B(  2-C , 33-H ) :   0.9188 B(  3-C ,  4-C ) :   1.4288 B(  3-C ,  8-C ) :   1.4118 
B(  4-C ,  5-C ) :   1.4450 B(  4-C , 34-H ) :   0.9176 B(  5-C ,  6-C ) :   1.4493 
B(  5-C , 35-H ) :   0.9299 B(  6-C ,  7-C ) :   1.4592 B(  6-C , 36-H ) :   0.9311 
B(  7-C ,  8-C ) :   1.4382 B(  7-C , 37-H ) :   0.9310 B(  8-C , 38-H ) :   0.9225 
B(  9-N , 10-C ) :   0.9426 B(  9-N , 18-C ) :   0.9913 B( 10-C , 11-O ) :   1.8729 
B( 10-C , 12-C ) :   0.9961 B( 12-C , 13-C ) :   1.3858 B( 12-C , 17-C ) :   1.3952 
B( 13-C , 14-C ) :   1.4375 B( 13-C , 39-H ) :   0.9152 B( 14-C , 15-C ) :   1.4367 
B( 14-C , 40-H ) :   0.9304 B( 15-C , 16-C ) :   1.4488 B( 15-C , 41-H ) :   0.9306 
B( 16-C , 17-C ) :   1.4337 B( 16-C , 42-H ) :   0.9305 B( 17-C , 43-H ) :   0.9078 
B( 18-C , 19-C ) :   0.8898 B( 18-C , 22-C ) :   0.9644 B( 18-C , 44-H ) :   0.8977 
B( 19-C , 20-N ) :   1.0533 B( 19-C , 21-O ) :   1.8468 B( 20-N , 45-H ) :   0.8238 
B( 20-N , 46-H ) :   0.8342 B( 22-C , 23-C ) :   1.4234 B( 22-C , 27-C ) :   1.4259 
B( 23-C , 24-C ) :   1.4416 B( 23-C , 47-H ) :   0.9239 B( 24-C , 25-C ) :   1.4493 
B( 24-C , 48-H ) :   0.9296 B( 25-C , 26-C ) :   1.4539 B( 25-C , 49-H ) :   0.9304 
B( 26-C , 27-C ) :   1.4333 B( 26-C , 50-H ) :   0.9292 B( 27-C , 51-H ) :   0.9093 


-------
TIMINGS
-------

Total SCF time: 0 days 0 hours 8 min 20 sec 

Total time                  ....     500.103 sec
Sum of individual times     ....     499.463 sec  ( 99.9%)

SCF preparation             ....       0.323 sec  (  0.1%)
Fock matrix formation       ....     496.301 sec  ( 99.2%)
  Startup                   ....       0.080 sec  (  0.0% of F)
  Split-RI-J                ....      61.246 sec  ( 12.3% of F)
  Chain of spheres X        ....     387.360 sec  ( 78.0% of F)
  XC integration            ....      46.318 sec  (  9.3% of F)
    XC Preparation          ....       0.000 sec  (  0.0% of XC)
    Basis function eval.    ....      17.831 sec  ( 38.5% of XC)
    Density eval.           ....      12.199 sec  ( 26.3% of XC)
    XC-Functional eval.     ....       1.973 sec  (  4.3% of XC)
    XC-Potential eval.      ....      12.131 sec  ( 26.2% of XC)
Diagonalization             ....       0.000 sec  (  0.0%)
Density matrix formation    ....       0.604 sec  (  0.1%)
Total Energy calculation    ....       0.210 sec  (  0.0%)
Population analysis         ....       0.069 sec  (  0.0%)
Orbital Transformation      ....       0.327 sec  (  0.1%)
Orbital Orthonormalization  ....       0.000 sec  (  0.0%)
DIIS solution               ....       0.868 sec  (  0.2%)
SOSCF solution              ....       0.761 sec  (  0.2%)
Finished LeanSCF after 500.2 sec

Maximum memory used throughout the entire LEANSCF-calculation: 83.3 MB

-------------------------   --------------------
FINAL SINGLE POINT ENERGY     -1188.174910647433
-------------------------   --------------------


------------------------------------------------------------------------------
                              ORCA PROPERTY CALCULATIONS
------------------------------------------------------------------------------

GBWName                                 ... /home/nmrbox/aojoawo/Documents/ERDOS/inputs/CHEMBL3926675.gbw
Number of atoms                         ...     52
Number of basis functions               ...    440
Max core memory                         ...   1024 MB

Electric properties:
Dipole moment                           ... YES
Quadrupole moment                       ...  NO
Static polarizability (Dipole/Dipole)   ...  NO
Static polarizability (Dipole/Quad.)    ...  NO
Static polarizability (Quad./Quad.)     ...  NO
Static polarizability (Velocity)        ...  NO

Atomic electric properties:
Dipole moment                           ...  NO
Quadrupole moment                       ...  NO
Static polarizability                   ...  NO

Choice of electric origin               ... Center of mass
Position of electric origin             ...     0.063987     0.332669     0.443243

General magnetic properties:
Magnetizability                         ...  NO

EPR properties:
g-Tensor (aka g-matrix)                 ...  NO
Zero-Field splitting spin-orbit         ...  NO
Zero-field splitting spin-spin          ...  NO
Hyperfine couplings                     ...  NO (   0 nuclei)
Quadrupole couplings                    ...  NO (   0 nuclei)
Contact density                         ...  NO (   0 nuclei)

NMR properties:
Chemical shifts                         ...  NO (   0 nuclei)
Spin-rotation constants                 ...  NO (   0 nuclei)
Spin-spin couplings                     ...  NO (   0 nuclei,    0 pairs)

Choice of magnetic origin               ... GIAO
Position of magnetic origin             ...     0.000000     0.000000     0.000000

Properties with geometric perturbations:
SCF Hessian                             ...  NO
IR spectrum                             ...  NO
VCD spectrum                            ...  NO
X-ray spectroscopy properties:
SCF XES/XAS/RIXS spectra                ...  NO


-------------
DIPOLE MOMENT
-------------

Method             : SCF
Type of density    : Electron Density
Multiplicity       :   1
Irrep              :   0
Energy             : -1188.1749106474326254 Eh
Relativity type    : 
Basis              : AO
                                X                 Y                 Z
Electronic contribution:     -0.783462642       8.000421790      10.515011409
Nuclear contribution   :     -0.873457017      -9.189662920     -11.073155259
                        -----------------------------------------
Total Dipole Moment    :     -1.656919659      -1.189241131      -0.558143851
                        -----------------------------------------
Magnitude (a.u.)       :      2.114521643
Magnitude (Debye)      :      5.374686884



--------------------
Rotational spectrum 
--------------------
 
Rotational constants in cm-1:             0.010321             0.004570             0.004234 
Rotational constants in MHz :           309.422783           136.992007           126.942604 

Dipole components along the rotational axes: 
x,y,z [a.u.] :    -0.891067    -1.177960    -1.513147 
x,y,z [Debye]:    -2.264911    -2.994136    -3.846113 

 

Dipole moment calculation done in   0.0 sec 

Maximum memory used throughout the entire PROP-calculation: 39.8 MB

--------------------------------
SUGGESTED CITATIONS FOR THIS RUN
--------------------------------

Below you find a list of papers that are relevant to this ORCA run
We neither can nor want to force you to cite these papers, but we appreciate if you do
You receive ORCA, which is the product of decades of hard work by many enthusiastic individuals, for free
The only thing we kindly ask in return is that you cite our papers,
We deeply appreciate it, if you show your appreciation for ORCA by not just citing the generic ORCA reference.

Please note that relegating all ORCA citations to the supporting information does *not* help us.
SI sections are not indexed - citations you put there will not count into any citation statistics
But we need these citations in order to attract the funding resources that allow us to do what we are doing

Therefore, if you are a happy ORCA user, please consider citing a few of the papers listed below in the main body of your paper

In addition to the list printed below, the program has created the file /home/nmrbox/aojoawo/Documents/ERDOS/inputs/CHEMBL3926675.bibtex that contains the list in bibtex format
You can import this file easily into all common literature databanks and citation aid programs


List of essential papers. We consider these as the minimum necessary citations

  1. Neese,F.
     Software update: the ORCA program system, version 5.0
     WIRES Comput. Molec. Sci., 2022 12(1)e1606
     doi.org/10.1002/wcms.1606

List of papers to cite with high priority. The work reported in these papers was absolutely
necessary for this run to complete.
Our perspective: the developers of density functionals and basis sets usually get cited in chemistry papers
Good! But without the algorithms to do something with them, the functionals or basis sets would not do anything.
Hence, in our opinion, the algorithm design and method developments papers are equally worthy of getting cited

  1. Neese,F.
     An improvement of the resolution of the identity approximation for the formation of the Coulomb matrix
     J. Comp. Chem., 2003 24(14)1740-1747
     doi.org/10.1002/jcc.10318
  2. Neese,F.; Wennmohs,F.; Hansen,A.; Becker,U.
     Efficient, approximate and parallel Hartree-Fock and hybrid DFT calculations. A 'chain-of-spheres' algorithm for the Hartree-Fock exchange
     Chem. Phys., 2009 356(1-3)98-109
     doi.org/10.1016/j.chemphys.2008.10.036
  3. Helmich-Paris,B.; de Souza,B.; Neese,F.; Izsák,R.
     An improved chain of spheres for exchange algorithm
     J. Chem. Phys., 2021 155 104109
     doi.org/doi: 10.1063/5.0058766.
  4. Neese,F.
     The SHARK Integral Generation and Digestion System
     J. Comp. Chem., 2022  1-16
     doi.org/10.1002/jcc.26942

List of suggested additional citations. These are papers that are important in the 'surrounding' of 
of this run, or papers that preceded the highly important papers. If you like your results we are grateful for a citation.

  1. Izsak,R.; Neese,F.
     An overlap fitted chain of spheres exchange method
     J. Chem. Phys., 2011 135 144105
     doi.org/10.1063/1.3646921
  2. Izsak,R.; Hansen,A.; Neese,F.
     The resolution of identity and chain of spheres approximations for the LPNO-CCSD singles Fock term
     Molec. Phys., 2012 110 2413-2417
     doi.org/10.1080/00268976.2012.687466
  3. Neese,F.
     The ORCA program system
     WIRES Comput. Molec. Sci., 2012 2(1)73-78
     doi.org/10.1002/wcms.81
  4. Izsak,R.; Neese,F.; Klopper,W.
     Robust fitting techniques in the chain of spheres approximation to the Fock exchange: The role of the complementary space
     J. Chem. Phys., 2013 139 
     doi.org/10.1063/1.4819264
  5. Neese,F.
     Software update: the ORCA program system, version 4.0
     WIRES Comput. Molec. Sci., 2018 8(1)1-6
     doi.org/10.1002/wcms.1327
  6. Neese,F.; Wennmohs,F.; Becker,U.; Riplinger,C.
     The ORCA quantum chemistry program package
     J. Chem. Phys., 2020 152 Art. No. L224108
     doi.org/10.1063/5.0004608

List of optional additional citations

  1. Neese,F.
     Approximate second-order SCF convergence for spin unrestricted wavefunctions
     Chem. Phys. Lett., 2000 325(1-3)93-98
     doi.org/10.1016/s0009-2614(00)00662-x

Timings for individual modules:

Sum of individual times          ...      520.652 sec (=   8.678 min)
Startup calculation              ...       12.802 sec (=   0.213 min)   2.5 %
SCF iterations                   ...      507.562 sec (=   8.459 min)  97.5 %
Property calculations            ...        0.289 sec (=   0.005 min)   0.1 %
                             ****ORCA TERMINATED NORMALLY****
TOTAL RUN TIME: 0 days 0 hours 8 minutes 41 seconds 404 msec
