
                                 *****************
                                 * O   R   C   A *
                                 *****************

                                            #,                                       
                                            ###                                      
                                            ####                                     
                                            #####                                    
                                            ######                                   
                                           ########,                                 
                                     ,,################,,,,,                         
                               ,,#################################,,                 
                          ,,##########################################,,             
                       ,#########################################, ''#####,          
                    ,#############################################,,   '####,        
                  ,##################################################,,,,####,       
                ,###########''''           ''''###############################       
              ,#####''   ,,,,##########,,,,          '''####'''          '####       
            ,##' ,,,,###########################,,,                        '##       
           ' ,,###''''                  '''############,,,                           
         ,,##''                                '''############,,,,        ,,,,,,###''
      ,#''                                            '''#######################'''  
     '                                                          ''''####''''         
             ,#######,   #######,   ,#######,      ##                                
            ,#'     '#,  ##    ##  ,#'     '#,    #''#        ,####,   ,####,        
            ##       ##  ##   ,#'  ##            #'  '#       #'       #'  '#        
            ##       ##  #######   ##           ,######,      #####,   #    #        
            '#,     ,#'  ##    ##  '#,     ,#' ,#      #,     #,   #   #,  ,#        
             '#######'   ##     ##  '#######'  #'      '#     '####' # '####'        



                #########################################################
                #                        -***-                          #
                #          Department of theory and spectroscopy        #
                #                                                       #
                #                      Frank Neese                      #
                #                                                       #
                #     Directorship, Architecture, Infrastructure        #
                #                    SHARK, DRIVERS                     #
                #        Core code/Algorithms in most modules           #
                #                                                       #
                #        Max Planck Institute fuer Kohlenforschung      #
                #                Kaiser Wilhelm Platz 1                 #
                #                 D-45470 Muelheim/Ruhr                 #
                #                      Germany                          #
                #                                                       #
                #                  All rights reserved                  #
                #                        -***-                          #
                #########################################################


                         Program Version 6.0.0  -   RELEASE  -


 With contributions from (in alphabetic order):
   Daniel Aravena         : Magnetic Suceptibility
   Michael Atanasov       : Ab Initio Ligand Field Theory (pilot matlab implementation)
   Alexander A. Auer      : GIAO ZORA, VPT2 properties, NMR spectrum
   Ute Becker             : All parallelization in ORCA, NUMFREQ, NUMCALC
   Giovanni Bistoni       : ED, misc. LED, open-shell LED, HFLD
   Martin Brehm           : Molecular dynamics
   Dmytro Bykov           : pre 5.0 version of the SCF Hessian
   Marcos Casanova-Páez   : Triplet and SCS-CIS(D). UHF-(DLPNO)-IP/EA/STEOM-CCSD. UHF-CVS-IP/STEOM-CCSD
   Vijay G. Chilkuri      : MRCI spin determinant printing, contributions to CSF-ICE
   Pauline Colinet        : FMM embedding
   Dipayan Datta          : RHF DLPNO-CCSD density
   Achintya Kumar Dutta   : EOM-CC, STEOM-CC
   Nicolas Foglia         : Exact transition moments, OPA infrastructure, MCD improvements
   Dmitry Ganyushin       : Spin-Orbit,Spin-Spin,Magnetic field MRCI
   Miquel Garcia          : C-PCM and meta-GGA Hessian, CCSD/C-PCM, Gaussian charge scheme
   Tiago L. C. Gouveia    : GS-ROHF, GS-ROCIS
   Yang Guo               : DLPNO-NEVPT2, F12-NEVPT2, CIM, IAO-localization
   Andreas Hansen         : Spin unrestricted coupled pair/coupled cluster methods
   Ingolf Harden          : AUTO-CI MPn and infrastructure 
   Benjamin Helmich-Paris : MC-RPA, TRAH-(SCF,CASSCF), AVAS, COSX integrals, SCF dyn. polar.
   Lee Huntington         : MR-EOM, pCC
   Robert Izsak           : Overlap fitted RIJCOSX, COSX-SCS-MP3, EOM
   Riya Kayal             : Wick's Theorem for AUTO-CI, AUTO-CI UHF-CCSDT
   Emily Kempfer          : AUTO-CI, RHF CISDT and CCSDT
   Christian Kollmar      : KDIIS, OOCD, Brueckner-CCSD(T), CCSD density, CASPT2, CASPT2-K, improved NEVPT2
   Axel Koslowski         : Symmetry handling
   Simone Kossmann        : Meta GGA functionals, TD-DFT gradient, OOMP2, (MP2 Hessian; deprecated post 5.0)
   Lucas Lang             : DCDCAS
   Marvin Lechner         : AUTO-CI (C++ implementation), FIC-MRCC
   Spencer Leger          : CASSCF response
   Dagmar Lenk            : GEPOL surface, SMD, ORCA-2-JSON
   Dimitrios Liakos       : Extrapolation schemes; Compound Job, initial MDCI parallelization
   Dimitrios Manganas     : Further ROCIS development; embedding schemes. LFT, Crystal Embedding
   Dimitrios Pantazis     : SARC Basis sets
   Anastasios Papadopoulos: AUTO-CI, single reference methods and gradients
   Taras Petrenko         : pre 6.0 DFT Hessian and TD-DFT gradient, (ASA, deprecated), ECA, 1-Electron XAS/XES, NRVS
   Peter Pinski           : DLPNO-MP2, DLPNO-MP2 Gradient
   Christoph Reimann      : Effective Core Potentials
   Marius Retegan         : Local ZFS, SOC
   Christoph Riplinger    : Optimizer, TS searches, QM/MM, DLPNO-CCSD(T), (RO)-DLPNO pert. Triples
   Michael Roemelt        : Original ROCIS implementation
   Masaaki Saitow         : Open-shell DLPNO-CCSD energy and density
   Barbara Sandhoefer     : DKH picture change effects
   Kantharuban Sivalingam : CASSCF convergence/infrastructure, NEVPT2 and variants, FIC-MRCI
   Bernardo de Souza      : ESD, SOC TD-DFT
   Georgi Stoychev        : AutoAux, RI-MP2 NMR, DLPNO-MP2 response, X2C
   Van Anh Tran           : RI-MP2 g-tensors
   Willem Van den Heuvel  : Paramagnetic NMR
   Zikuan Wang            : NOTCH, Electric field optimization 
   Frank Wennmohs         : Technical directorship and infrastructure
   Hang Xu                : AUTO-CI-Response properties 


 We gratefully acknowledge several colleagues who have allowed us to
 interface, adapt or use parts of their codes:
   Stefan Grimme, W. Hujo, H. Kruse, P. Pracht,  : VdW corrections, initial TS optimization,
                  C. Bannwarth, S. Ehlert,         DFT functionals, gCP, sTDA/sTD-DF
                  L. Wittmann, M. Mueller
   Ed Valeev, F. Pavosevic, A. Kumar             : LibInt (2-el integral package), F12 methods
   Garnet Chan, S. Sharma, J. Yang, R. Olivares  : DMRG
   Ulf Ekstrom                                   : XCFun DFT Library
   Mihaly Kallay                                 : mrcc  (arbitrary order and MRCC methods)
   Frank Weinhold                                : gennbo (NPA and NBO analysis)
   Simon Mueller                                 : openCOSMO-RS
   Christopher J. Cramer and Donald G. Truhlar   : smd solvation model
   Lars Goerigk                                  : TD-DFT with DH, B97 family of functionals
   V. Asgeirsson, H. Jonsson                     : NEB implementation
   FAccTs GmbH                                   : IRC, NEB, NEB-TS, DLPNO-Multilevel, CI-OPT
                                                   MM, QMMM, 2- and 3-layer-ONIOM, Crystal-QMMM,
                                                   LR-CPCM, SF, NACMEs, symmetry and pop. for TD-DFT,
                                                   nearIR, NL-DFT gradient (VV10), updates on ESD,
                                                   ML-optimized integration grids, MBIS, APM,
                                                   GOAT, DOCKER, SOLVATOR, interface openCOSMO-RS
   S Lehtola, MJT Oliveira, MAL Marques          : LibXC Library
   Liviu Ungur et al                             : ANISO software


 Your calculation uses the libint2 library for the computation of 2-el integrals
 For citations please refer to: http://libint.valeyev.net

 Your ORCA version has been built with support for libXC version: 6.2.2
 For citations please refer to: https://libxc.gitlab.io

 This ORCA versions uses:
   CBLAS   interface :  Fast vector & matrix operations
   LAPACKE interface :  Fast linear algebra routines
   SCALAPACK package :  Parallel linear algebra routines
   Shared memory     :  Shared parallel matrices
   BLAS/LAPACK       :  OpenBLAS 0.3.27  USE64BITINT DYNAMIC_ARCH NO_AFFINITY SkylakeX SINGLE_THREADED
        Core in use  :  SkylakeX
   Copyright (c) 2011-2014, The OpenBLAS Project


Warning: RI is on but no J-basis has been assigned. Assigning Def2/J (nothing to worry about!)
================================================================================

----- Orbital basis set information -----
Your calculation utilizes the basis: 6-31G*
   H-He, Li-Ne : W. J. Hehre, R. Ditchfield and J.A. Pople, J. Chem. Phys. 56, 2257 (1972).
                 Note: He and Ne are unpublished basis sets taken from the Gaussian program.
                 Note: Li and B from J. D. Dill and J. A. Pople, J. Chem. Phys. 62, 2921 (1975).
   Na - Ar     : M. M. Francl, W. J. Pietro, W. J. Hehre, J. S. Binkley, M. S. Gordon, 
                 D. J. DeFrees and J. A. Pople, J. Chem. Phys. 77, 3654 (1982).
   K - Zn      : V. A. Rassolov, J. A. Pople, M. A. Ratner, and T. L. Windus, J. Chem. Phys. 109, 1223 (1998).

----- AuxJ basis set information -----
Your calculation utilizes the auxiliary basis: def2/J
   F. Weigend, Phys. Chem. Chem. Phys. 8, 1057 (2006).

================================================================================
                                        WARNINGS
                       Please study these warnings very carefully!
================================================================================


================================================================================
                                       INPUT FILE
================================================================================
NAME = /home/nmrbox/aojoawo/Documents/ERDOS/inputs/CHEMBL3687325.inp
|  1> ! B3LYP 6-31G* SP
|  2> 
|  3> * xyz 0 1
|  4> O -1.3917 7.7945 -1.5782
|  5> C -2.2153 6.8692 -1.3442
|  6> O -3.5322 7.0037 -1.7764
|  7> C -1.7890 5.6519 -0.6196
|  8> C -0.4628 5.5096 -0.1723
|  9> C -0.0645 4.3548 0.5073
| 10> C -0.9835 3.3265 0.7505
| 11> S -0.4764 1.8544 1.5733
| 12> O -1.6060 1.3534 2.4301
| 13> O 0.7013 2.1356 2.4639
| 14> N -0.0406 0.6482 0.4000
| 15> C 1.0828 0.9229 -0.5019
| 16> C 2.2621 0.0652 -0.1577
| 17> C 2.7301 -0.9093 -1.0489
| 18> C 3.8285 -1.6942 -0.6926
| 19> C 4.4591 -1.5002 0.5501
| 20> O 5.5638 -2.2561 0.9734
| 21> C 6.1882 -3.2930 0.2198
| 22> F 5.2841 -4.3091 -0.0323
| 23> F 6.6754 -2.7884 -0.9725
| 24> F 7.2426 -3.8057 0.9508
| 25> C 3.9633 -0.5089 1.4029
| 26> N 2.8913 0.2422 1.0360
| 27> C -1.0470 -0.2882 -0.0111
| 28> N -2.1382 0.1890 -0.6651
| 29> C -3.1131 -0.6179 -1.1463
| 30> C -2.9992 -2.0036 -1.0231
| 31> C -3.9799 -2.8451 -1.5709
| 32> C -3.8453 -4.2305 -1.4810
| 33> C -2.7299 -4.7850 -0.8543
| 34> C -1.7492 -3.9586 -0.2993
| 35> C -1.8764 -2.5525 -0.3545
| 36> C -0.9139 -1.6796 0.2219
| 37> C 0.2577 -2.2226 1.0193
| 38> C -0.1340 -2.9999 2.2743
| 39> C 0.4777 -1.6245 2.4063
| 40> C -2.3048 3.4621 0.3072
| 41> C -2.7062 4.6160 -0.3716
| 42> H -3.8336 7.8314 -2.2760
| 43> H 0.2679 6.2886 -0.3503
| 44> H 0.9625 4.2615 0.8367
| 45> H 1.3974 1.9844 -0.4153
| 46> H 0.7690 0.7745 -1.5593
| 47> H 2.2447 -1.0676 -2.0044
| 48> H 4.1749 -2.4454 -1.3885
| 49> H 4.4301 -0.3373 2.3642
| 50> H -3.9607 -0.1742 -1.6538
| 51> H -4.8447 -2.4310 -2.0758
| 52> H -4.6016 -4.8760 -1.9089
| 53> H -2.6220 -5.8608 -0.8015
| 54> H -0.8905 -4.4326 0.1546
| 55> H 1.1463 -2.6305 0.4952
| 56> H 0.5578 -3.8272 2.5397
| 57> H -1.2184 -3.0299 2.5175
| 58> H -0.2562 -0.8752 2.7636
| 59> H 1.5269 -1.6465 2.7678
| 60> H -3.0249 2.6733 0.4833
| 61> H -3.7334 4.6943 -0.7047
| 62> *
| 63> 
| 64>                          ****END OF INPUT****
================================================================================

                       ****************************
                       * Single Point Calculation *
                       ****************************

---------------------------------
CARTESIAN COORDINATES (ANGSTROEM)
---------------------------------
  O     -1.391700    7.794500   -1.578200
  C     -2.215300    6.869200   -1.344200
  O     -3.532200    7.003700   -1.776400
  C     -1.789000    5.651900   -0.619600
  C     -0.462800    5.509600   -0.172300
  C     -0.064500    4.354800    0.507300
  C     -0.983500    3.326500    0.750500
  S     -0.476400    1.854400    1.573300
  O     -1.606000    1.353400    2.430100
  O      0.701300    2.135600    2.463900
  N     -0.040600    0.648200    0.400000
  C      1.082800    0.922900   -0.501900
  C      2.262100    0.065200   -0.157700
  C      2.730100   -0.909300   -1.048900
  C      3.828500   -1.694200   -0.692600
  C      4.459100   -1.500200    0.550100
  O      5.563800   -2.256100    0.973400
  C      6.188200   -3.293000    0.219800
  F      5.284100   -4.309100   -0.032300
  F      6.675400   -2.788400   -0.972500
  F      7.242600   -3.805700    0.950800
  C      3.963300   -0.508900    1.402900
  N      2.891300    0.242200    1.036000
  C     -1.047000   -0.288200   -0.011100
  N     -2.138200    0.189000   -0.665100
  C     -3.113100   -0.617900   -1.146300
  C     -2.999200   -2.003600   -1.023100
  C     -3.979900   -2.845100   -1.570900
  C     -3.845300   -4.230500   -1.481000
  C     -2.729900   -4.785000   -0.854300
  C     -1.749200   -3.958600   -0.299300
  C     -1.876400   -2.552500   -0.354500
  C     -0.913900   -1.679600    0.221900
  C      0.257700   -2.222600    1.019300
  C     -0.134000   -2.999900    2.274300
  C      0.477700   -1.624500    2.406300
  C     -2.304800    3.462100    0.307200
  C     -2.706200    4.616000   -0.371600
  H     -3.833600    7.831400   -2.276000
  H      0.267900    6.288600   -0.350300
  H      0.962500    4.261500    0.836700
  H      1.397400    1.984400   -0.415300
  H      0.769000    0.774500   -1.559300
  H      2.244700   -1.067600   -2.004400
  H      4.174900   -2.445400   -1.388500
  H      4.430100   -0.337300    2.364200
  H     -3.960700   -0.174200   -1.653800
  H     -4.844700   -2.431000   -2.075800
  H     -4.601600   -4.876000   -1.908900
  H     -2.622000   -5.860800   -0.801500
  H     -0.890500   -4.432600    0.154600
  H      1.146300   -2.630500    0.495200
  H      0.557800   -3.827200    2.539700
  H     -1.218400   -3.029900    2.517500
  H     -0.256200   -0.875200    2.763600
  H      1.526900   -1.646500    2.767800
  H     -3.024900    2.673300    0.483300
  H     -3.733400    4.694300   -0.704700

----------------------------
CARTESIAN COORDINATES (A.U.)
----------------------------
  NO LB      ZA    FRAG     MASS         X           Y           Z
   0 O     8.0000    0    15.999   -2.629932   14.729470   -2.982366
   1 C     6.0000    0    12.011   -4.186310   12.980907   -2.540170
   2 O     8.0000    0    15.999   -6.674891   13.235075   -3.356910
   3 C     6.0000    0    12.011   -3.380720   10.680543   -1.170874
   4 C     6.0000    0    12.011   -0.874565   10.411635   -0.325600
   5 C     6.0000    0    12.011   -0.121887    8.229379    0.958658
   6 C     6.0000    0    12.011   -1.858546    6.286174    1.418239
   7 S    16.0000    0    32.060   -0.900266    3.504308    2.973106
   8 O     8.0000    0    15.999   -3.034900    2.557555    4.592223
   9 O     8.0000    0    15.999    1.325265    4.035699    4.656096
  10 N     7.0000    0    14.007   -0.076723    1.224920    0.755890
  11 C     6.0000    0    12.011    2.046195    1.744028   -0.948454
  12 C     6.0000    0    12.011    4.274749    0.123210   -0.298010
  13 C     6.0000    0    12.011    5.159141   -1.718328   -1.982134
  14 C     6.0000    0    12.011    7.234817   -3.201574   -1.308824
  15 C     6.0000    0    12.011    8.426478   -2.834967    1.039538
  16 O     8.0000    0    15.999   10.514058   -4.263411    1.839459
  17 C     6.0000    0    12.011   11.694003   -6.222868    0.415362
  18 F     9.0000    0    18.998    9.985502   -8.143019   -0.061038
  19 F     9.0000    0    18.998   12.614678   -5.269312   -1.837759
  20 F     9.0000    0    18.998   13.686530   -7.191731    1.796752
  21 C     6.0000    0    12.011    7.489552   -0.961682    2.651097
  22 N     7.0000    0    14.007    5.463765    0.457692    1.957756
  23 C     6.0000    0    12.011   -1.978543   -0.544619   -0.020976
  24 N     7.0000    0    14.007   -4.040612    0.357158   -1.256857
  25 C     6.0000    0    12.011   -5.882906   -1.167662   -2.166193
  26 C     6.0000    0    12.011   -5.667667   -3.786255   -1.933379
  27 C     6.0000    0    12.011   -7.520921   -5.376460   -2.968571
  28 C     6.0000    0    12.011   -7.266564   -7.994486   -2.798684
  29 C     6.0000    0    12.011   -5.158763   -9.042340   -1.614393
  30 C     6.0000    0    12.011   -3.305509   -7.480670   -0.565595
  31 C     6.0000    0    12.011   -3.545882   -4.823526   -0.669908
  32 C     6.0000    0    12.011   -1.727021   -3.173984    0.419330
  33 C     6.0000    0    12.011    0.486982   -4.200105    1.926198
  34 C     6.0000    0    12.011   -0.253223   -5.668989    4.297804
  35 C     6.0000    0    12.011    0.902722   -3.069860    4.547248
  36 C     6.0000    0    12.011   -4.355441    6.542421    0.580524
  37 C     6.0000    0    12.011   -5.113977    8.722976   -0.702222
  38 H     1.0000    0     1.008   -7.244454   14.799201   -4.301017
  39 H     1.0000    0     1.008    0.506258   11.883732   -0.661971
  40 H     1.0000    0     1.008    1.818861    8.053068    1.581134
  41 H     1.0000    0     1.008    2.640703    3.749973   -0.784803
  42 H     1.0000    0     1.008    1.453199    1.463593   -2.946650
  43 H     1.0000    0     1.008    4.241868   -2.017472   -3.787767
  44 H     1.0000    0     1.008    7.889418   -4.621136   -2.623885
  45 H     1.0000    0     1.008    8.371676   -0.637405    4.467691
  46 H     1.0000    0     1.008   -7.484638   -0.329190   -3.125229
  47 H     1.0000    0     1.008   -9.155156   -4.593924   -3.922694
  48 H     1.0000    0     1.008   -8.695764   -9.214305   -3.607298
  49 H     1.0000    0     1.008   -4.954862  -11.075307   -1.514615
  50 H     1.0000    0     1.008   -1.682801   -8.376400    0.292152
  51 H     1.0000    0     1.008    2.166193   -4.970925    0.935792
  52 H     1.0000    0     1.008    1.054089   -7.232360    4.799337
  53 H     1.0000    0     1.008   -2.302442   -5.725681    4.757386
  54 H     1.0000    0     1.008   -0.484148   -1.653888    5.222447
  55 H     1.0000    0     1.008    2.885423   -3.111434    5.230384
  56 H     1.0000    0     1.008   -5.716233    5.051805    0.913305
  57 H     1.0000    0     1.008   -7.055104    8.870941   -1.331690

--------------------------------
INTERNAL COORDINATES (ANGSTROEM)
--------------------------------
 O      0   0   0     0.000000000000     0.00000000     0.00000000
 C      1   0   0     1.260655801557     0.00000000     0.00000000
 O      2   1   0     1.392520269152   119.29647448     0.00000000
 C      2   1   3     1.479390462319   120.43809595   179.93306596
 C      4   2   1     1.406816626288   120.70437462     0.42293435
 C      5   4   2     1.397877709244   120.44710078   180.25017425
 C      6   5   4     1.400395704792   120.26840046   359.97447232
 S      7   6   5     1.761030567594   120.39705223   178.57734964
 O      8   7   6     1.503696578436   109.17296230   145.37536617
 O      8   7   6     1.503069888595   110.24740643    26.57089515
 N      8   7   6     1.738238467530   109.68748880   265.95220814
 C     11   8   7     1.466598534024   118.50035759    62.34307840
 C     12  11   8     1.498289498061   110.75742144   109.21049635
 C     13  12  11     1.401039503369   120.99494528   114.64542037
 C     14  13  12     1.396245057288   119.43693647   180.25618970
 C     15  14  13     1.406981041095   120.03062743   359.76187137
 O     16  15  14     1.403898069662   123.00731663   179.77709130
 C     17  16  15     1.425815531547   125.22536939     0.35191544
 F     18  17  16     1.383260796090   110.13914595   299.04381210
 F     18  17  16     1.383316409937   110.15218229    60.47979507
 F     18  17  16     1.381659020888   108.93043789   179.76449959
 C     16  15  14     1.398485312758   118.51847431   359.76193382
 N     22  16  15     1.359393548609   120.44033242     0.33608606
 C     11   8   7     1.434813273566   118.06131072   266.46508566
 N     24  11   8     1.358732232635   118.16474062    63.90402283
 C     25  24  11     1.353909546462   122.68655148   176.96705384
 C     26  25  24     1.395820883925   120.10118294   357.65932151
 C     27  26  25     1.403559610419   120.24740284   182.71522403
 C     28  27  26     1.394823404593   120.19300963   178.13825884
 C     29  28  27     1.394396034131   120.07518261   359.53901985
 C     30  29  28     1.397402751536   120.31239166     0.75560572
 C     31  30  29     1.412920411771   120.65257517     0.50097611
 C     24  11   8     1.417038662140   121.85869864   242.53913976
 C     33  24  11     1.517676619046   120.67792547     4.90133928
 C     34  33  24     1.527301273489   114.57220163   120.63681322
 C     35  34  33     1.511067850892    60.31159975   252.41458964
 C      7   6   5     1.400262811047   119.54776464     0.05318825
 C     37   7   6     1.397632501769   120.31232633   359.89551179
 H      3   2   1     1.012684259777   120.89901050     0.14571214
 H      5   4   2     1.082796144249   120.73830295     0.03317291
 H      6   5   4     1.082560968260   119.30350215   179.54057859
 H     12  11   8     1.110520134892   110.36983824   349.86134156
 H     12  11   8     1.112918577435   110.07972914   232.77368177
 H     14  13  12     1.083352343423   120.86370659   359.61749366
 H     15  14  13     1.081004722469   118.58448414   179.68942287
 H     22  16  15     1.082333816343   120.07215986   180.08641232
 H     26  25  24     1.082982779180   119.07398644   179.65243657
 H     28  27  26     1.083642865524   120.68748941   358.70006601
 H     29  28  27     1.082477875063   119.95955414   180.28759509
 H     30  29  28     1.082485976814   119.79269467   181.00676696
 H     31  30  29     1.080771437446   117.71240984   181.48330371
 H     34  33  24     1.109357102109   120.11140415   262.07107728
 H     35  34  33     1.110607802062   114.56471729   147.81961944
 H     35  34  33     1.111741696618   116.33671703   355.82594662
 H     36  35  34     1.108026619716   112.05977049   110.09988354
 H     36  35  34     1.109949048380   113.14545721   253.26886475
 H     37   7   6     1.082478942058   120.37451913   179.67247595
 H     38  37   7     1.082694019564   118.79062624   179.90897223

---------------------------
INTERNAL COORDINATES (A.U.)
---------------------------
 O      0   0   0     0.000000000000     0.00000000     0.00000000
 C      1   0   0     2.382294214082     0.00000000     0.00000000
 O      2   1   0     2.631481944632   119.29647448     0.00000000
 C      2   1   3     2.795642818918   120.43809595   179.93306596
 C      4   2   1     2.658498144331   120.70437462     0.42293435
 C      5   4   2     2.641606039184   120.44710078   180.25017425
 C      6   5   4     2.646364361177   120.26840046   359.97447232
 S      7   6   5     3.327865486216   120.39705223   178.57734964
 O      8   7   6     2.841574721758   109.17296230   145.37536617
 O      8   7   6     2.840390449587   110.24740643    26.57089515
 N      8   7   6     3.284794659078   109.68748880   265.95220814
 C     11   8   7     2.771469577715   118.50035759    62.34307840
 C     12  11   8     2.831356820666   110.75742144   109.21049635
 C     13  12  11     2.647580964172   120.99494528   114.64542037
 C     14  13  12     2.638520774115   119.43693647   180.25618970
 C     15  14  13     2.658808843288   120.03062743   359.76187137
 O     16  15  14     2.652982871601   123.00731663   179.77709130
 C     17  16  15     2.694400872115   125.22536939     0.35191544
 F     18  17  16     2.613984076400   110.13914595   299.04381210
 F     18  17  16     2.614089171339   110.15218229    60.47979507
 F     18  17  16     2.610957159939   108.93043789   179.76449959
 C     16  15  14     2.642754243424   118.51847431   359.76193382
 N     22  16  15     2.568881515091   120.44033242     0.33608606
 C     11   8   7     2.711404140354   118.06131072   266.46508566
 N     24  11   8     2.567631809011   118.16474062    63.90402283
 C     25  24  11     2.558518252914   122.68655148   176.96705384
 C     26  25  24     2.637719202625   120.10118294   357.65932151
 C     27  26  25     2.652343276325   120.24740284   182.71522403
 C     28  27  26     2.635834239864   120.19300963   178.13825884
 C     29  28  27     2.635026626733   120.07518261   359.53901985
 C     30  29  28     2.640708499191   120.31239166     0.75560572
 C     31  30  29     2.670032627275   120.65257517     0.50097611
 C     24  11   8     2.677814992623   121.85869864   242.53913976
 C     33  24  11     2.867993169853   120.67792547     4.90133928
 C     34  33  24     2.886181130883   114.57220163   120.63681322
 C     35  34  33     2.855504407959    60.31159975   252.41458964
 C      7   6   5     2.646113228393   119.54776464     0.05318825
 C     37   7   6     2.641142664210   120.31232633   359.89551179
 H      3   2   1     1.913695911111   120.89901050     0.14571214
 H      5   4   2     2.046188171496   120.73830295     0.03317291
 H      6   5   4     2.045743753284   119.30350215   179.54057859
 H     12  11   8     2.098578921151   110.36983824   349.86134156
 H     12  11   8     2.103111320705   110.07972914   232.77368177
 H     14  13  12     2.047239235611   120.86370659   359.61749366
 H     15  14  13     2.042802874942   118.58448414   179.68942287
 H     22  16  15     2.045314498370   120.07215986   180.08641232
 H     26  25  24     2.046540860403   119.07398644   179.65243657
 H     28  27  26     2.047788242817   120.68748941   358.70006601
 H     29  28  27     2.045586729897   119.95955414   180.28759509
 H     30  29  28     2.045602039990   119.79269467   181.00676696
 H     31  30  29     2.042362030138   117.71240984   181.48330371
 H     34  33  24     2.096381107707   120.11140415   262.07107728
 H     35  34  33     2.098744588093   114.56471729   147.81961944
 H     35  34  33     2.100887338270   116.33671703   355.82594662
 H     36  35  34     2.093866860358   112.05977049   110.09988354
 H     36  35  34     2.097499724045   113.14545721   253.26886475
 H     37   7   6     2.045588746227   120.37451913   179.67247595
 H     38  37   7     2.045995183811   118.79062624   179.90897223

---------------------
BASIS SET INFORMATION
---------------------
There are 6 groups of distinct atoms

 Group   1 Type O   : 10s4p1d contracted to 3s2p1d pattern {631/31/1}
 Group   2 Type C   : 10s4p1d contracted to 3s2p1d pattern {631/31/1}
 Group   3 Type S   : 16s10p1d contracted to 4s3p1d pattern {6631/631/1}
 Group   4 Type N   : 10s4p1d contracted to 3s2p1d pattern {631/31/1}
 Group   5 Type F   : 10s4p1d contracted to 3s2p1d pattern {631/31/1}
 Group   6 Type H   : 4s contracted to 2s pattern {31}

Atom   0O    basis set group =>   1
Atom   1C    basis set group =>   2
Atom   2O    basis set group =>   1
Atom   3C    basis set group =>   2
Atom   4C    basis set group =>   2
Atom   5C    basis set group =>   2
Atom   6C    basis set group =>   2
Atom   7S    basis set group =>   3
Atom   8O    basis set group =>   1
Atom   9O    basis set group =>   1
Atom  10N    basis set group =>   4
Atom  11C    basis set group =>   2
Atom  12C    basis set group =>   2
Atom  13C    basis set group =>   2
Atom  14C    basis set group =>   2
Atom  15C    basis set group =>   2
Atom  16O    basis set group =>   1
Atom  17C    basis set group =>   2
Atom  18F    basis set group =>   5
Atom  19F    basis set group =>   5
Atom  20F    basis set group =>   5
Atom  21C    basis set group =>   2
Atom  22N    basis set group =>   4
Atom  23C    basis set group =>   2
Atom  24N    basis set group =>   4
Atom  25C    basis set group =>   2
Atom  26C    basis set group =>   2
Atom  27C    basis set group =>   2
Atom  28C    basis set group =>   2
Atom  29C    basis set group =>   2
Atom  30C    basis set group =>   2
Atom  31C    basis set group =>   2
Atom  32C    basis set group =>   2
Atom  33C    basis set group =>   2
Atom  34C    basis set group =>   2
Atom  35C    basis set group =>   2
Atom  36C    basis set group =>   2
Atom  37C    basis set group =>   2
Atom  38H    basis set group =>   6
Atom  39H    basis set group =>   6
Atom  40H    basis set group =>   6
Atom  41H    basis set group =>   6
Atom  42H    basis set group =>   6
Atom  43H    basis set group =>   6
Atom  44H    basis set group =>   6
Atom  45H    basis set group =>   6
Atom  46H    basis set group =>   6
Atom  47H    basis set group =>   6
Atom  48H    basis set group =>   6
Atom  49H    basis set group =>   6
Atom  50H    basis set group =>   6
Atom  51H    basis set group =>   6
Atom  52H    basis set group =>   6
Atom  53H    basis set group =>   6
Atom  54H    basis set group =>   6
Atom  55H    basis set group =>   6
Atom  56H    basis set group =>   6
Atom  57H    basis set group =>   6
---------------------------------
AUXILIARY/J BASIS SET INFORMATION
---------------------------------
There are 6 groups of distinct atoms

 Group   1 Type O   : 12s5p4d2f1g contracted to 6s4p3d1f1g pattern {711111/2111/211/2/1}
 Group   2 Type C   : 12s5p4d2f1g contracted to 6s4p3d1f1g pattern {711111/2111/211/2/1}
 Group   3 Type S   : 14s5p5d2f1g contracted to 8s4p3d1f1g pattern {71111111/2111/311/2/1}
 Group   4 Type N   : 12s5p4d2f1g contracted to 6s4p3d1f1g pattern {711111/2111/211/2/1}
 Group   5 Type F   : 12s5p4d2f1g contracted to 6s4p3d1f1g pattern {711111/2111/211/2/1}
 Group   6 Type H   : 5s2p1d contracted to 3s1p1d pattern {311/2/1}

Atom   0O    basis set group =>   1
Atom   1C    basis set group =>   2
Atom   2O    basis set group =>   1
Atom   3C    basis set group =>   2
Atom   4C    basis set group =>   2
Atom   5C    basis set group =>   2
Atom   6C    basis set group =>   2
Atom   7S    basis set group =>   3
Atom   8O    basis set group =>   1
Atom   9O    basis set group =>   1
Atom  10N    basis set group =>   4
Atom  11C    basis set group =>   2
Atom  12C    basis set group =>   2
Atom  13C    basis set group =>   2
Atom  14C    basis set group =>   2
Atom  15C    basis set group =>   2
Atom  16O    basis set group =>   1
Atom  17C    basis set group =>   2
Atom  18F    basis set group =>   5
Atom  19F    basis set group =>   5
Atom  20F    basis set group =>   5
Atom  21C    basis set group =>   2
Atom  22N    basis set group =>   4
Atom  23C    basis set group =>   2
Atom  24N    basis set group =>   4
Atom  25C    basis set group =>   2
Atom  26C    basis set group =>   2
Atom  27C    basis set group =>   2
Atom  28C    basis set group =>   2
Atom  29C    basis set group =>   2
Atom  30C    basis set group =>   2
Atom  31C    basis set group =>   2
Atom  32C    basis set group =>   2
Atom  33C    basis set group =>   2
Atom  34C    basis set group =>   2
Atom  35C    basis set group =>   2
Atom  36C    basis set group =>   2
Atom  37C    basis set group =>   2
Atom  38H    basis set group =>   6
Atom  39H    basis set group =>   6
Atom  40H    basis set group =>   6
Atom  41H    basis set group =>   6
Atom  42H    basis set group =>   6
Atom  43H    basis set group =>   6
Atom  44H    basis set group =>   6
Atom  45H    basis set group =>   6
Atom  46H    basis set group =>   6
Atom  47H    basis set group =>   6
Atom  48H    basis set group =>   6
Atom  49H    basis set group =>   6
Atom  50H    basis set group =>   6
Atom  51H    basis set group =>   6
Atom  52H    basis set group =>   6
Atom  53H    basis set group =>   6
Atom  54H    basis set group =>   6
Atom  55H    basis set group =>   6
Atom  56H    basis set group =>   6
Atom  57H    basis set group =>   6
------------------------------------------------------------------------------
                             ORCA STARTUP CALCULATIONS
                           -- RI-GTO INTEGRALS CHOSEN --
------------------------------------------------------------------------------
------------------------------------------------------------------------------
                   ___                                                        
                  /   \      - P O W E R E D   B Y -                         
                 /     \                                                     
                 |  |  |   _    _      __       _____    __    __             
                 |  |  |  | |  | |    /  \     |  _  \  |  |  /  |          
                  \  \/   | |  | |   /    \    | | | |  |  | /  /          
                 / \  \   | |__| |  /  /\  \   | |_| |  |  |/  /          
                |  |  |   |  __  | /  /__\  \  |    /   |      \           
                |  |  |   | |  | | |   __   |  |    \   |  |\   \          
                \     /   | |  | | |  |  |  |  | |\  \  |  | \   \       
                 \___/    |_|  |_| |__|  |__|  |_| \__\ |__|  \__/        
                                                                              
                      - O R C A' S   B I G   F R I E N D -                    
                                      &                                       
                       - I N T E G R A L  F E E D E R -                       
                                                                              
 v1 FN, 2020, v2 2021, v3 2022-2024                                           
------------------------------------------------------------------------------


----------------------
SHARK INTEGRAL PACKAGE
----------------------

Number of atoms                             ...     58
Number of basis functions                   ...    576
Number of shells                            ...    270
Maximum angular momentum                    ...      2
Integral batch strategy                     ... SHARK/LIBINT Hybrid
RI-J (if used) integral strategy            ... SPLIT-RIJ (Revised 2003 algorithm where possible)
Printlevel                                  ...      1
Contraction scheme used                     ... SEGMENTED contraction
Prescreening option                         ... SCHWARTZ
   Thresh                                   ... 1.000e-10
   Tcut                                     ... 1.000e-11
   Tpresel                                  ... 1.000e-11 
Coulomb Range Separation                    ... NOT USED
Exchange Range Separation                   ... NOT USED
Multipole approximations                    ... NOT USED
Finite Nucleus Model                        ... NOT USED
CABS basis                                  ... NOT available
Auxiliary Coulomb fitting basis             ... AVAILABLE
   # of basis functions in Aux-J            ...   2084
   # of shells in Aux-J                     ...    672
   Maximum angular momentum in Aux-J        ...      4
Auxiliary J/K fitting basis                 ... NOT available
Auxiliary Correlation fitting basis         ... NOT available
Auxiliary 'external' fitting basis          ... NOT available

Checking pre-screening integrals            ... done (  0.0 sec) Dimension = 270
Check shell pair data                       ... done (  0.0 sec)
Shell pair information
Shell pair cut-off parameter TPreSel        ...   1.0e-11
Total number of shell pairs                 ...     36585
Shell pairs after pre-screening             ...     19243
Total number of primitive shell pairs       ...    220341
Primitive shell pairs kept                  ...     58529
          la=0 lb=0:   5993 shell pairs
          la=1 lb=0:   6855 shell pairs
          la=1 lb=1:   1967 shell pairs
          la=2 lb=0:   2575 shell pairs
          la=2 lb=1:   1566 shell pairs
          la=2 lb=2:    287 shell pairs

Calculating one electron integrals          ... done (  0.2 sec)
Calculating RI/J V-Matrix + Cholesky decomp.... done (  0.5 sec)
Calculating Nuclear repulsion               ... done (  0.0 sec) ENN=   4401.101330008627 Eh

Diagonalization of the overlap matrix:
Smallest eigenvalue                        ... 3.459e-04
Time for diagonalization                   ...    0.044 sec
Threshold for overlap eigenvalues          ... 1.000e-07
Number of eigenvalues below threshold      ... 0
Time for construction of square roots      ...    0.038 sec
Total time needed                          ...    0.091 sec

-------------------
DFT GRID GENERATION
-------------------

General Integration Accuracy     IntAcc      ... 4.388
Radial Grid Type                 RadialGrid  ... OptM3 with GC (2021)
Angular Grid (max. ang.)         AngularGrid ... 4 (Lebedev-302)
Angular grid pruning method      GridPruning ... 4 (adaptive)
Weight generation scheme         WeightScheme... mBecke (2022)
Basis function cutoff            BFCut       ... 1.0000e-10
Integration weight cutoff        WCut        ... 1.0000e-14
Partially contracted basis set               ... off
Rotationally invariant grid construction     ... off
Angular grids for H and He will be reduced by one unit

Total number of grid points                  ...   291647
Total number of batches                      ...     4589
Average number of points per batch           ...       63
Average number of grid points per atom       ...     5028

--------------------
COSX GRID GENERATION
--------------------

GRIDX 1
-------
General Integration Accuracy     IntAcc      ... 3.816
Radial Grid Type                 RadialGrid  ... OptM3 with GC (2021)
Angular Grid (max. ang.)         AngularGrid ... 1 (Lebedev-50)
Angular grid pruning method      GridPruning ... 4 (adaptive)
Weight generation scheme         WeightScheme... mBecke (2022)
Basis function cutoff            BFCut       ... 1.0000e-10
Integration weight cutoff        WCut        ... 1.0000e-14
Partially contracted basis set               ... on
Rotationally invariant grid construction     ... off
Angular grids for H and He will be reduced by one unit

Total number of grid points                  ...    37918
Total number of batches                      ...      329
Average number of points per batch           ...      115
Average number of grid points per atom       ...      654
UseSFitting                                  ... on

GRIDX 2
-------
General Integration Accuracy     IntAcc      ... 4.020
Radial Grid Type                 RadialGrid  ... OptM3 with GC (2021)
Angular Grid (max. ang.)         AngularGrid ... 2 (Lebedev-110)
Angular grid pruning method      GridPruning ... 4 (adaptive)
Weight generation scheme         WeightScheme... mBecke (2022)
Basis function cutoff            BFCut       ... 1.0000e-10
Integration weight cutoff        WCut        ... 1.0000e-14
Partially contracted basis set               ... on
Rotationally invariant grid construction     ... off
Angular grids for H and He will be reduced by one unit

Total number of grid points                  ...    81227
Total number of batches                      ...      664
Average number of points per batch           ...      122
Average number of grid points per atom       ...     1400
UseSFitting                                  ... on

GRIDX 3
-------
General Integration Accuracy     IntAcc      ... 4.338
Radial Grid Type                 RadialGrid  ... OptM3 with GC (2021)
Angular Grid (max. ang.)         AngularGrid ... 3 (Lebedev-194)
Angular grid pruning method      GridPruning ... 4 (adaptive)
Weight generation scheme         WeightScheme... mBecke (2022)
Basis function cutoff            BFCut       ... 1.0000e-10
Integration weight cutoff        WCut        ... 1.0000e-14
Partially contracted basis set               ... on
Rotationally invariant grid construction     ... off
Angular grids for H and He will be reduced by one unit

Total number of grid points                  ...   178080
Total number of batches                      ...     1424
Average number of points per batch           ...      125
Average number of grid points per atom       ...     3070
UseSFitting                                  ... on
Initializing property integral containers    ... done (  0.0 sec)

SHARK setup successfully completed in  11.9 seconds

Maximum memory used throughout the entire STARTUP-calculation: 127.8 MB
-------------------------------------------------------------------------------
                                 ORCA GUESS
                   Start orbitals & Density for SCF / CASSCF
-------------------------------------------------------------------------------

------------
SCF SETTINGS
------------
Hamiltonian:
 Density Functional     Method          .... DFT(GTOs)
 Exchange Functional    Exchange        .... B88
   X-Alpha parameter    XAlpha          ....  0.666667
   Becke's b parameter  XBeta           ....  0.004200
 Correlation Functional Correlation     .... LYP
 LDA part of GGA corr.  LDAOpt          .... VWN-5
 Gradients option       PostSCFGGA      .... off
 Hybrid DFT is turned on
   Fraction HF Exchange ScalHFX         ....  0.200000
   Scaling of DF-GGA-X  ScalDFX         ....  0.720000
   Scaling of DF-GGA-C  ScalDFC         ....  0.810000
   Scaling of DF-LDA-C  ScalLDAC        ....  1.000000
   Perturbative correction              ....  0.000000
   NL short-range parameter             ....  4.800000
 RI-approximation to the Coulomb term is turned on
   Number of AuxJ basis functions       .... 2084
   RIJ-COSX (HFX calculated with COS-X)).... on


General Settings:
 Integral files         IntName         .... /home/nmrbox/aojoawo/Documents/ERDOS/inputs/CHEMBL3687325
 Hartree-Fock type      HFTyp           .... RHF
 Total Charge           Charge          ....    0
 Multiplicity           Mult            ....    1
 Number of Electrons    NEL             ....  280
 Basis Dimension        Dim             ....  576
 Nuclear Repulsion      ENuc            ....   4401.1013300086 Eh

Convergence Acceleration:
 AO-DIIS                CNVDIIS         .... on
   Start iteration      DIISMaxIt       ....    12
   Startup error        DIISStart       ....  0.200000
   # of expansion vecs  DIISMaxEq       ....     5
   Bias factor          DIISBfac        ....   1.050
   Max. coefficient     DIISMaxC        ....  10.000
 MO-DIIS                CNVKDIIS        .... off
 Trust-Rad. Augm. Hess. CNVTRAH         .... auto
   Auto Start mean grad. ratio tolernc. ....  1.125000
   Auto Start start iteration           ....    50
   Auto Start num. interpolation iter.  ....    10
   Max. Number of Micro iterations      ....    24
   Max. Number of Macro iterations      .... Maxiter - #DIIS iter
   Number of Davidson start vectors     ....     2
   Converg. threshold    (grad. norm)   ....   5.000e-05
   Grad. Scal. Fac. for Micro threshold ....   0.100
   Minimum threshold for Micro iter.    ....   1.000e-02
   NR start threshold (gradient norm)   ....   1.000e-04
   Initial trust radius                 ....   0.400
   Minimum AH scaling param. (alpha)    ....   1.000
   Maximum AH scaling param. (alpha)    .... 1000.000
   Quad. conv. algorithm                .... NR
   White noise on init. David. guess    .... on
   Maximum white noise                  ....   0.010
   Pseudo random numbers                .... off
   Inactive MOs                         .... canonical
   Orbital update algorithm             .... Taylor
   Preconditioner                       .... Diag
   Full preconditioner red. dimension   ....   250
 SOSCF                  CNVSOSCF        .... on
   Start iteration      SOSCFMaxIt      ....   150
   Startup grad/error   SOSCFStart      ....  0.003300
   Hessian update       SOSCFHessUp     .... L-BFGS
 Level Shifting         CNVShift        .... on
   Level shift para.    LevelShift      ....    0.2500
   Turn off err/grad.   ShiftErr        ....    0.0010
 Zerner damping         CNVZerner       .... off
 Static damping         CNVDamp         .... on
   Fraction old density DampFac         ....    0.7000
   Max. Damping (<1)    DampMax         ....    0.9800
   Min. Damping (>=0)   DampMin         ....    0.0000
   Turn off err/grad.   DampErr         ....    0.1000

SCF Procedure:
 Maximum # iterations   MaxIter         ....   125
 SCF integral mode      SCFMode         .... Direct
   Integral package                     .... SHARK and LIBINT hybrid scheme
 Reset frequency        DirectResetFreq ....    20
 Integral Threshold     Thresh          ....  1.000e-10 Eh
 Primitive CutOff       TCut            ....  1.000e-11 Eh

Convergence Tolerance:
 Convergence Check Mode ConvCheckMode   .... Total+1el-Energy
 Convergence forced     ConvForced      .... 0
 Energy Change          TolE            ....  1.000e-06 Eh
 1-El. energy change                    ....  1.000e-03 Eh
 Orbital Gradient       TolG            ....  5.000e-05
 Orbital Rotation angle TolX            ....  5.000e-05
 DIIS Error             TolErr          ....  1.000e-06

------------------------------
INITIAL GUESS: MODEL POTENTIAL
------------------------------
Loading Hartree-Fock densities                     ... done
Calculating cut-offs                               ... done
Initializing the effective Hamiltonian             ... done
Setting up the integral package (SHARK)            ... done
Starting the Coulomb interaction                   ... done (   2.9 sec)
Making the grid                                    ... done (   1.6 sec)
Mapping shells                                     ... done
Starting the XC term evaluation                    ... done (   1.2 sec)
  promolecular density results
     # of electrons  =    279.992365410
     EX              =   -255.490483919
     EC              =     -9.885244535
     EX+EC           =   -265.375728455
Transforming the Hamiltonian                       ... done (   0.0 sec)
Diagonalizing the Hamiltonian                      ... done (   0.1 sec)
Back transforming the eigenvectors                 ... done (   0.0 sec)
Now organizing SCF variables                       ... done
                      ------------------
                      INITIAL GUESS DONE (   5.8 sec)
                      ------------------
             **** ENERGY FILE WAS UPDATED (/home/nmrbox/aojoawo/Documents/ERDOS/inputs/CHEMBL3687325.en.tmp) ****
Finished Guess after   6.0 sec
Maximum memory used throughout the entire GUESS-calculation: 71.3 MB

-------------------------------------------------------------------------------------------
                                      ORCA LEAN-SCF
                              memory conserving SCF solver
-------------------------------------------------------------------------------------------

----------------------------------------D-I-I-S--------------------------------------------
Iteration    Energy (Eh)           Delta-E    RMSDP     MaxDP     DIISErr   Damp  Time(sec)
-------------------------------------------------------------------------------------------
               ***  Starting incremental Fock matrix formation  ***
    1    -2238.6077806840667108     0.00e+00  2.33e-03  1.87e-01  2.99e-01  0.700  57.4
    2    -2239.1190922003797823    -5.11e-01  1.40e-03  7.75e-02  9.87e-02  0.700  26.1
                               ***Turning on AO-DIIS***
    3    -2239.2915271818555993    -1.72e-01  5.50e-04  1.63e-02  3.55e-02  0.700  25.1
    4    -2239.4063351836239235    -1.15e-01  9.36e-04  3.22e-02  1.55e-02  0.000  22.7
    5    -2239.6658593918491533    -2.60e-01  2.14e-04  8.10e-03  6.80e-03  0.000  23.1
                              *** Initializing SOSCF ***
---------------------------------------S-O-S-C-F--------------------------------------
Iteration    Energy (Eh)           Delta-E    RMSDP     MaxDP     MaxGrad    Time(sec)
--------------------------------------------------------------------------------------
    6    -2239.6675249155796337    -1.67e-03  7.42e-05  2.84e-03  3.14e-03    20.6
               *** Restarting incremental Fock matrix formation ***
    7    -2239.6675605099871973    -3.56e-05  6.69e-05  3.69e-03  5.74e-04    58.7
    8    -2239.6674757101882278     8.48e-05  4.46e-05  2.43e-03  1.57e-03    33.7
    9    -2239.6675924920436955    -1.17e-04  1.16e-05  7.11e-04  1.41e-04    30.7
   10    -2239.6675897907598483     2.70e-06  7.63e-06  4.58e-04  2.80e-04    23.5
   11    -2239.6675936548035679    -3.86e-06  2.19e-06  1.17e-04  3.05e-05    21.8
   12    -2239.6675935951598149     5.96e-08  1.41e-06  7.71e-05  5.42e-05    17.1
                 **** Energy Check signals convergence ****

               *****************************************************
               *                     SUCCESS                       *
               *           SCF CONVERGED AFTER  12 CYCLES          *
               *****************************************************

Recomputing exchange energy using gridx3       ... done (  100.239 sec)
Old exchange energy                            :    -51.589903595 Eh
New exchange energy                            :    -51.589943368 Eh
Exchange energy change after final integration :     -0.000039773 Eh
Total energy after final integration           :  -2239.667633368 Eh
             **** ENERGY FILE WAS UPDATED (/home/nmrbox/aojoawo/Documents/ERDOS/inputs/CHEMBL3687325.en.tmp) ****

----------------
TOTAL SCF ENERGY
----------------

Total Energy       :      -2239.66763336774511 Eh          -60944.45466 eV

Components:
Nuclear Repulsion  :       4401.10133000862697 Eh          119760.05567 eV
Electronic Energy  :      -6640.76892360378679 Eh         -180704.50925 eV
One Electron Energy:     -11829.19993209399036 Eh         -321888.89467 eV
Two Electron Energy:       5188.43100849020357 Eh          141184.38542 eV

Virial components:
Potential Energy   :      -4466.36577074819070 Eh         -121535.99139 eV
Kinetic Energy     :       2226.69813738044513 Eh           60591.53673 eV
Virial Ratio       :          2.00582454162492

DFT components:
N(Alpha)           :      139.999919946351 electrons
N(Beta)            :      139.999919946351 electrons
N(Total)           :      279.999839892702 electrons
E(X)               :     -205.133727574798 Eh       
E(C)               :      -11.603987916187 Eh       
E(XC)              :     -216.737715490985 Eh       

---------------
SCF CONVERGENCE
---------------

  Last Energy change         ...   -5.9644e-08  Tolerance :   1.0000e-06
  Last MAX-Density change    ...    7.7137e-05  Tolerance :   1.0000e-05
  Last RMS-Density change    ...    1.4056e-06  Tolerance :   1.0000e-06
  Last DIIS Error            ...    3.1397e-03  Tolerance :   1.0000e-06
  Last Orbital Gradient      ...    5.4216e-05  Tolerance :   5.0000e-05
  Last Orbital Rotation      ...    7.0584e-05  Tolerance :   5.0000e-05


----------------
ORBITAL ENERGIES
----------------

  NO   OCC          E(Eh)            E(eV) 
   0   2.0000     -89.089727     -2424.2547 
   1   2.0000     -24.748312      -673.4358 
   2   2.0000     -24.748108      -673.4303 
   3   2.0000     -24.747519      -673.4142 
   4   2.0000     -19.223571      -523.1000 
   5   2.0000     -19.192465      -522.2535 
   6   2.0000     -19.133468      -520.6481 
   7   2.0000     -19.120281      -520.2893 
   8   2.0000     -19.117671      -520.2183 
   9   2.0000     -14.370481      -391.0407 
  10   2.0000     -14.339162      -390.1884 
  11   2.0000     -14.335253      -390.0821 
  12   2.0000     -10.512568      -286.0615 
  13   2.0000     -10.330838      -281.1164 
  14   2.0000     -10.280137      -279.7368 
  15   2.0000     -10.261416      -279.2273 
  16   2.0000     -10.240255      -278.6515 
  17   2.0000     -10.235124      -278.5119 
  18   2.0000     -10.234399      -278.4921 
  19   2.0000     -10.233756      -278.4747 
  20   2.0000     -10.229014      -278.3456 
  21   2.0000     -10.225421      -278.2479 
  22   2.0000     -10.217136      -278.0224 
  23   2.0000     -10.213575      -277.9255 
  24   2.0000     -10.210786      -277.8496 
  25   2.0000     -10.210387      -277.8387 
  26   2.0000     -10.210255      -277.8352 
  27   2.0000     -10.209614      -277.8177 
  28   2.0000     -10.208844      -277.7968 
  29   2.0000     -10.207959      -277.7727 
  30   2.0000     -10.202153      -277.6147 
  31   2.0000     -10.199237      -277.5354 
  32   2.0000     -10.198476      -277.5147 
  33   2.0000     -10.197207      -277.4801 
  34   2.0000     -10.194955      -277.4188 
  35   2.0000     -10.191219      -277.3172 
  36   2.0000     -10.173657      -276.8393 
  37   2.0000     -10.168786      -276.7067 
  38   2.0000      -8.125691      -221.1113 
  39   2.0000      -6.090673      -165.7356 
  40   2.0000      -6.088755      -165.6834 
  41   2.0000      -6.088290      -165.6708 
  42   2.0000      -1.312386       -35.7118 
  43   2.0000      -1.233636       -33.5689 
  44   2.0000      -1.231921       -33.5223 
  45   2.0000      -1.093628       -29.7591 
  46   2.0000      -1.076985       -29.3063 
  47   2.0000      -1.076793       -29.3010 
  48   2.0000      -0.990976       -26.9658 
  49   2.0000      -0.966060       -26.2878 
  50   2.0000      -0.955056       -25.9884 
  51   2.0000      -0.942930       -25.6584 
  52   2.0000      -0.912935       -24.8422 
  53   2.0000      -0.882819       -24.0227 
  54   2.0000      -0.867203       -23.5978 
  55   2.0000      -0.849456       -23.1149 
  56   2.0000      -0.815773       -22.1983 
  57   2.0000      -0.802042       -21.8247 
  58   2.0000      -0.797874       -21.7112 
  59   2.0000      -0.786311       -21.3966 
  60   2.0000      -0.776791       -21.1375 
  61   2.0000      -0.768985       -20.9251 
  62   2.0000      -0.745496       -20.2860 
  63   2.0000      -0.732707       -19.9380 
  64   2.0000      -0.705618       -19.2008 
  65   2.0000      -0.689753       -18.7691 
  66   2.0000      -0.661582       -18.0026 
  67   2.0000      -0.653950       -17.7949 
  68   2.0000      -0.651383       -17.7250 
  69   2.0000      -0.641301       -17.4507 
  70   2.0000      -0.630927       -17.1684 
  71   2.0000      -0.624959       -17.0060 
  72   2.0000      -0.614203       -16.7133 
  73   2.0000      -0.604821       -16.4580 
  74   2.0000      -0.603078       -16.4106 
  75   2.0000      -0.592262       -16.1163 
  76   2.0000      -0.583262       -15.8714 
  77   2.0000      -0.575378       -15.6568 
  78   2.0000      -0.568465       -15.4687 
  79   2.0000      -0.556753       -15.1500 
  80   2.0000      -0.538333       -14.6488 
  81   2.0000      -0.530988       -14.4489 
  82   2.0000      -0.526281       -14.3208 
  83   2.0000      -0.516628       -14.0582 
  84   2.0000      -0.508950       -13.8492 
  85   2.0000      -0.501470       -13.6457 
  86   2.0000      -0.486757       -13.2453 
  87   2.0000      -0.484279       -13.1779 
  88   2.0000      -0.482625       -13.1329 
  89   2.0000      -0.478519       -13.0212 
  90   2.0000      -0.475123       -12.9288 
  91   2.0000      -0.472752       -12.8642 
  92   2.0000      -0.471078       -12.8187 
  93   2.0000      -0.465329       -12.6623 
  94   2.0000      -0.456253       -12.4153 
  95   2.0000      -0.455099       -12.3839 
  96   2.0000      -0.454389       -12.3646 
  97   2.0000      -0.452473       -12.3124 
  98   2.0000      -0.445749       -12.1294 
  99   2.0000      -0.441855       -12.0235 
 100   2.0000      -0.440733       -11.9930 
 101   2.0000      -0.437747       -11.9117 
 102   2.0000      -0.432755       -11.7759 
 103   2.0000      -0.429823       -11.6961 
 104   2.0000      -0.426508       -11.6059 
 105   2.0000      -0.424594       -11.5538 
 106   2.0000      -0.422468       -11.4959 
 107   2.0000      -0.417800       -11.3689 
 108   2.0000      -0.413960       -11.2644 
 109   2.0000      -0.409987       -11.1563 
 110   2.0000      -0.406956       -11.0738 
 111   2.0000      -0.401573       -10.9274 
 112   2.0000      -0.385868       -10.5000 
 113   2.0000      -0.384749       -10.4695 
 114   2.0000      -0.379689       -10.3319 
 115   2.0000      -0.378822       -10.3083 
 116   2.0000      -0.371953       -10.1213 
 117   2.0000      -0.368793       -10.0354 
 118   2.0000      -0.362136        -9.8542 
 119   2.0000      -0.357986        -9.7413 
 120   2.0000      -0.351634        -9.5684 
 121   2.0000      -0.351132        -9.5548 
 122   2.0000      -0.320988        -8.7345 
 123   2.0000      -0.316441        -8.6108 
 124   2.0000      -0.309101        -8.4111 
 125   2.0000      -0.301359        -8.2004 
 126   2.0000      -0.293898        -7.9974 
 127   2.0000      -0.288502        -7.8505 
 128   2.0000      -0.286221        -7.7885 
 129   2.0000      -0.280021        -7.6198 
 130   2.0000      -0.273973        -7.4552 
 131   2.0000      -0.272952        -7.4274 
 132   2.0000      -0.270193        -7.3523 
 133   2.0000      -0.267407        -7.2765 
 134   2.0000      -0.264794        -7.2054 
 135   2.0000      -0.261260        -7.1092 
 136   2.0000      -0.254839        -6.9345 
 137   2.0000      -0.252155        -6.8615 
 138   2.0000      -0.244577        -6.6553 
 139   2.0000      -0.224488        -6.1086 
 140   0.0000      -0.076398        -2.0789 
 141   0.0000      -0.064238        -1.7480 
 142   0.0000      -0.041941        -1.1413 
 143   0.0000      -0.033100        -0.9007 
 144   0.0000      -0.024660        -0.6710 
 145   0.0000      -0.021283        -0.5791 
 146   0.0000       0.014551         0.3960 
 147   0.0000       0.019709         0.5363 
 148   0.0000       0.042125         1.1463 
 149   0.0000       0.048255         1.3131 
 150   0.0000       0.059008         1.6057 
*Only the first 10 virtual orbitals were printed.

                    ********************************
                    * MULLIKEN POPULATION ANALYSIS *
                    ********************************

-----------------------
MULLIKEN ATOMIC CHARGES
-----------------------
   0 O :   -0.446419
   1 C :    0.526387
   2 O :   -0.624037
   3 C :    0.083190
   4 C :   -0.142248
   5 C :   -0.157105
   6 C :   -0.131062
   7 S :    1.241380
   8 O :   -0.562278
   9 O :   -0.530425
  10 N :   -0.576776
  11 C :   -0.238923
  12 C :    0.305449
  13 C :   -0.175243
  14 C :   -0.159847
  15 C :    0.334667
  16 O :   -0.542723
  17 C :    1.087256
  18 F :   -0.291750
  19 F :   -0.290472
  20 F :   -0.276258
  21 C :   -0.025950
  22 N :   -0.360944
  23 C :    0.316227
  24 N :   -0.397655
  25 C :   -0.047706
  26 C :    0.136481
  27 C :   -0.204851
  28 C :   -0.125320
  29 C :   -0.123286
  30 C :   -0.186190
  31 C :    0.114683
  32 C :    0.054167
  33 C :   -0.195747
  34 C :   -0.316085
  35 C :   -0.299888
  36 C :   -0.120824
  37 C :   -0.152105
  38 H :    0.432534
  39 H :    0.177514
  40 H :    0.184827
  41 H :    0.182993
  42 H :    0.170068
  43 H :    0.144183
  44 H :    0.162692
  45 H :    0.173498
  46 H :    0.150585
  47 H :    0.137729
  48 H :    0.135938
  49 H :    0.138299
  50 H :    0.151657
  51 H :    0.156561
  52 H :    0.139046
  53 H :    0.158364
  54 H :    0.200122
  55 H :    0.149404
  56 H :    0.187299
  57 H :    0.168916
Sum of atomic charges:   -0.0000000

--------------------------------
MULLIKEN REDUCED ORBITAL CHARGES
--------------------------------
  0 O s       :     3.877357  s :     3.877357
      pz      :     1.487265  p :     4.543481
      px      :     1.578815
      py      :     1.477401
      dz2     :     0.002860  d :     0.025581
      dxz     :     0.004185
      dyz     :     0.004650
      dx2y2   :     0.006503
      dxy     :     0.007383

  1 C s       :     2.998029  s :     2.998029
      pz      :     0.818191  p :     2.365333
      px      :     0.673790
      py      :     0.873352
      dz2     :     0.010265  d :     0.110251
      dxz     :     0.020796
      dyz     :     0.013257
      dx2y2   :     0.040276
      dxy     :     0.025657

  2 O s       :     3.872252  s :     3.872252
      pz      :     1.684360  p :     4.730865
      px      :     1.468829
      py      :     1.577676
      dz2     :     0.001797  d :     0.020920
      dxz     :     0.003440
      dyz     :     0.004949
      dx2y2   :     0.007942
      dxy     :     0.002792

  3 C s       :     3.165083  s :     3.165083
      pz      :     0.967485  p :     2.713308
      px      :     0.869359
      py      :     0.876463
      dz2     :     0.003782  d :     0.038418
      dxz     :     0.006913
      dyz     :     0.006171
      dx2y2   :     0.010634
      dxy     :     0.010919

  4 C s       :     3.213955  s :     3.213955
      pz      :     0.945612  p :     2.892694
      px      :     0.988160
      py      :     0.958922
      dz2     :     0.005079  d :     0.035599
      dxz     :     0.005654
      dyz     :     0.004386
      dx2y2   :     0.008629
      dxy     :     0.011851

  5 C s       :     3.209128  s :     3.209128
      pz      :     0.962936  p :     2.911930
      px      :     1.020680
      py      :     0.928313
      dz2     :     0.004533  d :     0.036047
      dxz     :     0.005231
      dyz     :     0.005774
      dx2y2   :     0.011517
      dxy     :     0.008992

  6 C s       :     3.225542  s :     3.225542
      pz      :     1.010396  p :     2.866977
      px      :     0.977096
      py      :     0.879485
      dz2     :     0.003303  d :     0.038543
      dxz     :     0.007309
      dyz     :     0.006071
      dx2y2   :     0.011240
      dxy     :     0.010620

  7 S s       :     5.219302  s :     5.219302
      pz      :     3.016559  p :     9.004064
      px      :     2.953993
      py      :     3.033512
      dz2     :     0.084103  d :     0.535254
      dxz     :     0.119209
      dyz     :     0.123340
      dx2y2   :     0.107746
      dxy     :     0.100857

  8 O s       :     3.933263  s :     3.933263
      pz      :     1.475388  p :     4.602163
      px      :     1.473445
      py      :     1.653330
      dz2     :     0.005732  d :     0.026852
      dxz     :     0.007411
      dyz     :     0.003702
      dx2y2   :     0.004937
      dxy     :     0.005070

  9 O s       :     3.930549  s :     3.930549
      pz      :     1.442792  p :     4.572689
      px      :     1.436990
      py      :     1.692907
      dz2     :     0.006111  d :     0.027186
      dxz     :     0.007911
      dyz     :     0.003351
      dx2y2   :     0.004785
      dxy     :     0.005028

 10 N s       :     3.619032  s :     3.619032
      pz      :     1.376235  p :     3.923643
      px      :     1.263440
      py      :     1.283969
      dz2     :     0.005262  d :     0.034101
      dxz     :     0.007467
      dyz     :     0.007615
      dx2y2   :     0.005827
      dxy     :     0.007930

 11 C s       :     3.253753  s :     3.253753
      pz      :     0.984712  p :     2.930910
      px      :     0.866084
      py      :     1.080114
      dz2     :     0.014676  d :     0.054260
      dxz     :     0.012323
      dyz     :     0.003683
      dx2y2   :     0.013328
      dxy     :     0.010250

 12 C s       :     3.060719  s :     3.060719
      pz      :     0.792573  p :     2.576588
      px      :     0.869139
      py      :     0.914876
      dz2     :     0.014214  d :     0.057244
      dxz     :     0.013895
      dyz     :     0.012443
      dx2y2   :     0.008420
      dxy     :     0.008272

 13 C s       :     3.201791  s :     3.201791
      pz      :     0.996917  p :     2.937915
      px      :     0.973742
      py      :     0.967257
      dz2     :     0.008112  d :     0.035537
      dxz     :     0.008710
      dyz     :     0.006067
      dx2y2   :     0.006647
      dxy     :     0.006001

 14 C s       :     3.177723  s :     3.177723
      pz      :     0.950185  p :     2.947352
      px      :     0.992745
      py      :     1.004422
      dz2     :     0.007004  d :     0.034772
      dxz     :     0.007995
      dyz     :     0.008554
      dx2y2   :     0.005417
      dxy     :     0.005802

 15 C s       :     3.087932  s :     3.087932
      pz      :     0.891932  p :     2.512928
      px      :     0.765927
      py      :     0.855069
      dz2     :     0.012493  d :     0.064474
      dxz     :     0.012910
      dyz     :     0.011883
      dx2y2   :     0.014063
      dxy     :     0.013124

 16 O s       :     3.885373  s :     3.885373
      pz      :     1.650304  p :     4.631326
      px      :     1.504854
      py      :     1.476168
      dz2     :     0.003471  d :     0.026025
      dxz     :     0.006095
      dyz     :     0.006830
      dx2y2   :     0.005292
      dxy     :     0.004336

 17 C s       :     2.715808  s :     2.715808
      pz      :     0.664965  p :     2.032044
      px      :     0.663680
      py      :     0.703399
      dz2     :     0.030299  d :     0.164892
      dxz     :     0.035888
      dyz     :     0.033426
      dx2y2   :     0.026351
      dxy     :     0.038928

 18 F s       :     3.982120  s :     3.982120
      pz      :     1.894541  p :     5.293371
      px      :     1.720489
      py      :     1.678341
      dz2     :     0.002204  d :     0.016260
      dxz     :     0.001919
      dyz     :     0.002385
      dx2y2   :     0.003472
      dxy     :     0.006280

 19 F s       :     3.982323  s :     3.982323
      pz      :     1.586084  p :     5.291848
      px      :     1.855565
      py      :     1.850198
      dz2     :     0.005175  d :     0.016301
      dxz     :     0.004279
      dyz     :     0.004334
      dx2y2   :     0.001095
      dxy     :     0.001418

 20 F s       :     3.979597  s :     3.979597
      pz      :     1.787075  p :     5.280386
      px      :     1.647652
      py      :     1.845659
      dz2     :     0.002240  d :     0.016276
      dxz     :     0.005128
      dyz     :     0.002149
      dx2y2   :     0.003260
      dxy     :     0.003498

 21 C s       :     3.153208  s :     3.153208
      pz      :     0.964562  p :     2.820424
      px      :     0.920299
      py      :     0.935563
      dz2     :     0.010584  d :     0.052317
      dxz     :     0.014286
      dyz     :     0.007776
      dx2y2   :     0.009906
      dxy     :     0.009766

 22 N s       :     3.711673  s :     3.711673
      pz      :     1.214511  p :     3.612898
      px      :     1.078986
      py      :     1.319401
      dz2     :     0.009937  d :     0.036373
      dxz     :     0.006164
      dyz     :     0.006353
      dx2y2   :     0.006058
      dxy     :     0.007861

 23 C s       :     3.040925  s :     3.040925
      pz      :     0.922118  p :     2.569568
      px      :     0.777866
      py      :     0.869584
      dz2     :     0.007643  d :     0.073280
      dxz     :     0.011944
      dyz     :     0.011052
      dx2y2   :     0.020130
      dxy     :     0.022512

 24 N s       :     3.680115  s :     3.680115
      pz      :     1.103149  p :     3.682828
      px      :     1.009495
      py      :     1.570183
      dz2     :     0.005751  d :     0.034713
      dxz     :     0.005603
      dyz     :     0.006772
      dx2y2   :     0.005738
      dxy     :     0.010849

 25 C s       :     3.159341  s :     3.159341
      pz      :     0.936042  p :     2.834433
      px      :     0.929629
      py      :     0.968762
      dz2     :     0.004463  d :     0.053932
      dxz     :     0.008088
      dyz     :     0.009195
      dx2y2   :     0.016663
      dxy     :     0.015522

 26 C s       :     3.138871  s :     3.138871
      pz      :     0.945490  p :     2.682866
      px      :     0.885499
      py      :     0.851876
      dz2     :     0.005383  d :     0.041782
      dxz     :     0.005872
      dyz     :     0.007628
      dx2y2   :     0.011822
      dxy     :     0.011077

 27 C s       :     3.210974  s :     3.210974
      pz      :     0.990329  p :     2.957626
      px      :     0.992885
      py      :     0.974412
      dz2     :     0.002961  d :     0.036251
      dxz     :     0.005321
      dyz     :     0.007495
      dx2y2   :     0.009367
      dxy     :     0.011108

 28 C s       :     3.193552  s :     3.193552
      pz      :     0.973902  p :     2.895333
      px      :     0.961255
      py      :     0.960176
      dz2     :     0.003702  d :     0.036435
      dxz     :     0.004946
      dyz     :     0.006938
      dx2y2   :     0.008774
      dxy     :     0.012076

 29 C s       :     3.197646  s :     3.197646
      pz      :     0.962576  p :     2.889063
      px      :     0.939956
      py      :     0.986530
      dz2     :     0.005651  d :     0.036578
      dxz     :     0.005696
      dyz     :     0.003980
      dx2y2   :     0.012946
      dxy     :     0.008305

 30 C s       :     3.208946  s :     3.208946
      pz      :     0.983714  p :     2.941707
      px      :     0.966900
      py      :     0.991093
      dz2     :     0.003493  d :     0.035538
      dxz     :     0.004800
      dyz     :     0.006537
      dx2y2   :     0.010018
      dxy     :     0.010689

 31 C s       :     3.139589  s :     3.139589
      pz      :     0.938992  p :     2.704216
      px      :     0.913871
      py      :     0.851354
      dz2     :     0.004895  d :     0.041513
      dxz     :     0.005524
      dyz     :     0.008484
      dx2y2   :     0.011067
      dxy     :     0.011543

 32 C s       :     3.204247  s :     3.204247
      pz      :     0.940362  p :     2.701426
      px      :     0.890030
      py      :     0.871034
      dz2     :     0.004726  d :     0.040160
      dxz     :     0.005668
      dyz     :     0.008569
      dx2y2   :     0.010953
      dxy     :     0.010244

 33 C s       :     3.197406  s :     3.197406
      pz      :     0.869016  p :     2.952921
      px      :     1.024516
      py      :     1.059389
      dz2     :     0.011344  d :     0.045420
      dxz     :     0.011450
      dyz     :     0.010301
      dx2y2   :     0.005676
      dxy     :     0.006648

 34 C s       :     3.266753  s :     3.266753
      pz      :     1.016655  p :     3.008687
      px      :     1.038083
      py      :     0.953949
      dz2     :     0.008755  d :     0.040645
      dxz     :     0.004310
      dyz     :     0.008075
      dx2y2   :     0.009655
      dxy     :     0.009852

 35 C s       :     3.292672  s :     3.292672
      pz      :     0.952189  p :     2.966364
      px      :     1.055840
      py      :     0.958334
      dz2     :     0.009209  d :     0.040852
      dxz     :     0.005732
      dyz     :     0.008180
      dx2y2   :     0.008748
      dxy     :     0.008984

 36 C s       :     3.204775  s :     3.204775
      pz      :     0.932172  p :     2.880143
      px      :     0.956431
      py      :     0.991540
      dz2     :     0.005132  d :     0.035906
      dxz     :     0.005900
      dyz     :     0.004401
      dx2y2   :     0.008669
      dxy     :     0.011804

 37 C s       :     3.211105  s :     3.211105
      pz      :     0.956667  p :     2.905275
      px      :     0.997740
      py      :     0.950868
      dz2     :     0.004323  d :     0.035725
      dxz     :     0.005247
      dyz     :     0.005639
      dx2y2   :     0.011647
      dxy     :     0.008868

 38 H s       :     0.567466  s :     0.567466

 39 H s       :     0.822486  s :     0.822486

 40 H s       :     0.815173  s :     0.815173

 41 H s       :     0.817007  s :     0.817007

 42 H s       :     0.829932  s :     0.829932

 43 H s       :     0.855817  s :     0.855817

 44 H s       :     0.837308  s :     0.837308

 45 H s       :     0.826502  s :     0.826502

 46 H s       :     0.849415  s :     0.849415

 47 H s       :     0.862271  s :     0.862271

 48 H s       :     0.864062  s :     0.864062

 49 H s       :     0.861701  s :     0.861701

 50 H s       :     0.848343  s :     0.848343

 51 H s       :     0.843439  s :     0.843439

 52 H s       :     0.860954  s :     0.860954

 53 H s       :     0.841636  s :     0.841636

 54 H s       :     0.799878  s :     0.799878

 55 H s       :     0.850596  s :     0.850596

 56 H s       :     0.812701  s :     0.812701

 57 H s       :     0.831084  s :     0.831084



                     *******************************
                     * LOEWDIN POPULATION ANALYSIS *
                     *******************************

----------------------
LOEWDIN ATOMIC CHARGES
----------------------
   0 O :   -0.262702
   1 C :    0.179596
   2 O :   -0.335377
   3 C :   -0.041068
   4 C :   -0.089699
   5 C :   -0.112214
   6 C :   -0.173231
   7 S :    1.266755
   8 O :   -0.574681
   9 O :   -0.557051
  10 N :   -0.265696
  11 C :   -0.147158
  12 C :    0.015780
  13 C :   -0.139117
  14 C :   -0.140070
  15 C :    0.068023
  16 O :   -0.158353
  17 C :    0.359797
  18 F :   -0.104989
  19 F :   -0.103933
  20 F :   -0.085156
  21 C :   -0.075400
  22 N :   -0.093689
  23 C :    0.033995
  24 N :   -0.138997
  25 C :   -0.058117
  26 C :   -0.030336
  27 C :   -0.114100
  28 C :   -0.125890
  29 C :   -0.118293
  30 C :   -0.116287
  31 C :   -0.003025
  32 C :   -0.004855
  33 C :   -0.150096
  34 C :   -0.259596
  35 C :   -0.237830
  36 C :   -0.091068
  37 C :   -0.101508
  38 H :    0.348626
  39 H :    0.158818
  40 H :    0.158836
  41 H :    0.150806
  42 H :    0.136959
  43 H :    0.139548
  44 H :    0.146671
  45 H :    0.149370
  46 H :    0.136097
  47 H :    0.136421
  48 H :    0.135389
  49 H :    0.136793
  50 H :    0.146000
  51 H :    0.137516
  52 H :    0.126587
  53 H :    0.135826
  54 H :    0.155517
  55 H :    0.134391
  56 H :    0.162469
  57 H :    0.152993

-------------------------------
LOEWDIN REDUCED ORBITAL CHARGES
-------------------------------
  0 O s       :     3.592673  s :     3.592673
      pz      :     1.481240  p :     4.620156
      px      :     1.615397
      py      :     1.523520
      dz2     :     0.006462  d :     0.049872
      dxz     :     0.006421
      dyz     :     0.007313
      dx2y2   :     0.010887
      dxy     :     0.018790

  1 C s       :     2.863722  s :     2.863722
      pz      :     0.842468  p :     2.704108
      px      :     0.881733
      py      :     0.979907
      dz2     :     0.023272  d :     0.252574
      dxz     :     0.044838
      dyz     :     0.028417
      dx2y2   :     0.094301
      dxy     :     0.061745

  2 O s       :     3.540408  s :     3.540408
      pz      :     1.676539  p :     4.753137
      px      :     1.493071
      py      :     1.583527
      dz2     :     0.003746  d :     0.041832
      dxz     :     0.007521
      dyz     :     0.007447
      dx2y2   :     0.016473
      dxy     :     0.006646

  3 C s       :     2.879771  s :     2.879771
      pz      :     0.988397  p :     3.061659
      px      :     1.062012
      py      :     1.011250
      dz2     :     0.008536  d :     0.099638
      dxz     :     0.016300
      dyz     :     0.014834
      dx2y2   :     0.029673
      dxy     :     0.030295

  4 C s       :     2.920079  s :     2.920079
      pz      :     0.971273  p :     3.086743
      px      :     1.059890
      py      :     1.055580
      dz2     :     0.009720  d :     0.082878
      dxz     :     0.013536
      dyz     :     0.010203
      dx2y2   :     0.022160
      dxy     :     0.027259

  5 C s       :     2.918539  s :     2.918539
      pz      :     0.984979  p :     3.108333
      px      :     1.082152
      py      :     1.041201
      dz2     :     0.008865  d :     0.085343
      dxz     :     0.010508
      dyz     :     0.014641
      dx2y2   :     0.027783
      dxy     :     0.023545

  6 C s       :     2.931436  s :     2.931436
      pz      :     1.029474  p :     3.143870
      px      :     1.090679
      py      :     1.023717
      dz2     :     0.007367  d :     0.097925
      dxz     :     0.016784
      dyz     :     0.014279
      dx2y2   :     0.030344
      dxy     :     0.029151

  7 S s       :     5.105251  s :     5.105251
      pz      :     2.981870  p :     8.951856
      px      :     2.964056
      py      :     3.005930
      dz2     :     0.096191  d :     0.676138
      dxz     :     0.159261
      dyz     :     0.159509
      dx2y2   :     0.136393
      dxy     :     0.124784

  8 O s       :     3.709871  s :     3.709871
      pz      :     1.550991  p :     4.809311
      px      :     1.566106
      py      :     1.692214
      dz2     :     0.008083  d :     0.055499
      dxz     :     0.020066
      dyz     :     0.006943
      dx2y2   :     0.009829
      dxy     :     0.010579

  9 O s       :     3.711712  s :     3.711712
      pz      :     1.526284  p :     4.789098
      px      :     1.540890
      py      :     1.721924
      dz2     :     0.008591  d :     0.056241
      dxz     :     0.022687
      dyz     :     0.005267
      dx2y2   :     0.011343
      dxy     :     0.008353

 10 N s       :     3.188285  s :     3.188285
      pz      :     1.399838  p :     3.992330
      px      :     1.275879
      py      :     1.316613
      dz2     :     0.012242  d :     0.085080
      dxz     :     0.018166
      dyz     :     0.020771
      dx2y2   :     0.014918
      dxy     :     0.018983

 11 C s       :     2.923877  s :     2.923877
      pz      :     1.036532  p :     3.106738
      px      :     0.965916
      py      :     1.104291
      dz2     :     0.031015  d :     0.116543
      dxz     :     0.027743
      dyz     :     0.006545
      dx2y2   :     0.028105
      dxy     :     0.023135

 12 C s       :     2.873141  s :     2.873141
      pz      :     0.997231  p :     2.972053
      px      :     0.978678
      py      :     0.996144
      dz2     :     0.035192  d :     0.139025
      dxz     :     0.033448
      dyz     :     0.032652
      dx2y2   :     0.018679
      dxy     :     0.019054

 13 C s       :     2.924779  s :     2.924779
      pz      :     1.062926  p :     3.129340
      px      :     1.037629
      py      :     1.028785
      dz2     :     0.018432  d :     0.084998
      dxz     :     0.019345
      dyz     :     0.015517
      dx2y2   :     0.015387
      dxy     :     0.016317

 14 C s       :     2.922054  s :     2.922054
      pz      :     1.046758  p :     3.135912
      px      :     1.043408
      py      :     1.045747
      dz2     :     0.017847  d :     0.082103
      dxz     :     0.020778
      dyz     :     0.017858
      dx2y2   :     0.012056
      dxy     :     0.013565

[...]
      px      :     1.046686
      py      :     1.077421
      dz2     :     0.011038  d :     0.086018
      dxz     :     0.014729
      dyz     :     0.009007
      dx2y2   :     0.029599
      dxy     :     0.021645

 30 C s       :     2.918362  s :     2.918362
      pz      :     1.001008  p :     3.115437
      px      :     1.058365
      py      :     1.056064
      dz2     :     0.006891  d :     0.082487
      dxz     :     0.009032
      dyz     :     0.015091
      dx2y2   :     0.024824
      dxy     :     0.026650

 31 C s       :     2.857788  s :     2.857788
      pz      :     0.975941  p :     3.039298
      px      :     1.016896
      py      :     1.046461
      dz2     :     0.010620  d :     0.105940
      dxz     :     0.013548
      dyz     :     0.019993
      dx2y2   :     0.030518
      dxy     :     0.031261

 32 C s       :     2.889476  s :     2.889476
      pz      :     0.964484  p :     3.016525
      px      :     1.010608
      py      :     1.041434
      dz2     :     0.009733  d :     0.098854
      dxz     :     0.012893
      dyz     :     0.020104
      dx2y2   :     0.029433
      dxy     :     0.026691

 33 C s       :     2.888047  s :     2.888047
      pz      :     0.973065  p :     3.163399
      px      :     1.070612
      py      :     1.119721
      dz2     :     0.025295  d :     0.098651
      dxz     :     0.025458
      dyz     :     0.022995
      dx2y2   :     0.011533
      dxy     :     0.013370

 34 C s       :     2.941248  s :     2.941248
      pz      :     1.089821  p :     3.234595
      px      :     1.096702
      py      :     1.048073
      dz2     :     0.017328  d :     0.083752
      dxz     :     0.009157
      dyz     :     0.016647
      dx2y2   :     0.020220
      dxy     :     0.020400

 35 C s       :     2.943869  s :     2.943869
      pz      :     1.040779  p :     3.209078
      px      :     1.108038
      py      :     1.060261
      dz2     :     0.019127  d :     0.084884
      dxz     :     0.011762
      dyz     :     0.017241
      dx2y2   :     0.018129
      dxy     :     0.018626

 36 C s       :     2.918591  s :     2.918591
      pz      :     0.964124  p :     3.087380
      px      :     1.060199
      py      :     1.063058
      dz2     :     0.009928  d :     0.085097
      dxz     :     0.014508
      dyz     :     0.010297
      dx2y2   :     0.022559
      dxy     :     0.027805

 37 C s       :     2.919705  s :     2.919705
      pz      :     0.980760  p :     3.098279
      px      :     1.077851
      py      :     1.039668
      dz2     :     0.008293  d :     0.083524
      dxz     :     0.010507
      dyz     :     0.014299
      dx2y2   :     0.027588
      dxy     :     0.022837

 38 H s       :     0.651374  s :     0.651374

 39 H s       :     0.841182  s :     0.841182

 40 H s       :     0.841164  s :     0.841164

 41 H s       :     0.849194  s :     0.849194

 42 H s       :     0.863041  s :     0.863041

 43 H s       :     0.860452  s :     0.860452

 44 H s       :     0.853329  s :     0.853329

 45 H s       :     0.850630  s :     0.850630

 46 H s       :     0.863903  s :     0.863903

 47 H s       :     0.863579  s :     0.863579

 48 H s       :     0.864611  s :     0.864611

 49 H s       :     0.863207  s :     0.863207

 50 H s       :     0.854000  s :     0.854000

 51 H s       :     0.862484  s :     0.862484

 52 H s       :     0.873413  s :     0.873413

 53 H s       :     0.864174  s :     0.864174

 54 H s       :     0.844483  s :     0.844483

 55 H s       :     0.865609  s :     0.865609

 56 H s       :     0.837531  s :     0.837531

 57 H s       :     0.847007  s :     0.847007



                      *****************************
                      * MAYER POPULATION ANALYSIS *
                      *****************************

  NA   - Mulliken gross atomic population
  ZA   - Total nuclear charge
  QA   - Mulliken gross atomic charge
  VA   - Mayer's total valence
  BVA  - Mayer's bonded valence
  FA   - Mayer's free valence

  ATOM       NA         ZA         QA         VA         BVA        FA
  0 O      8.4464     8.0000    -0.4464     2.0659     2.0659     0.0000
  1 C      5.4736     6.0000     0.5264     3.9533     3.9533     0.0000
  2 O      8.6240     8.0000    -0.6240     1.8674     1.8674     0.0000
  3 C      5.9168     6.0000     0.0832     3.9258     3.9258    -0.0000
  4 C      6.1422     6.0000    -0.1422     3.8951     3.8951     0.0000
  5 C      6.1571     6.0000    -0.1571     3.9098     3.9098    -0.0000
  6 C      6.1311     6.0000    -0.1311     3.8408     3.8408    -0.0000
  7 S     14.7586    16.0000     1.2414     5.0391     5.0391     0.0000
  8 O      8.5623     8.0000    -0.5623     1.8626     1.8626     0.0000
  9 O      8.5304     8.0000    -0.5304     1.9103     1.9103    -0.0000
 10 N      7.5768     7.0000    -0.5768     2.8019     2.8019     0.0000
 11 C      6.2389     6.0000    -0.2389     3.8238     3.8238     0.0000
 12 C      5.6946     6.0000     0.3054     3.8449     3.8449     0.0000
 13 C      6.1752     6.0000    -0.1752     3.9280     3.9280     0.0000
 14 C      6.1598     6.0000    -0.1598     3.8953     3.8953     0.0000
 15 C      5.6653     6.0000     0.3347     3.7587     3.7587     0.0000
 16 O      8.5427     8.0000    -0.5427     1.9626     1.9626    -0.0000
 17 C      4.9127     6.0000     1.0873     3.9926     3.9926    -0.0000
 18 F      9.2918     9.0000    -0.2918     1.0646     1.0646     0.0000
 19 F      9.2905     9.0000    -0.2905     1.0661     1.0661     0.0000
 20 F      9.2763     9.0000    -0.2763     1.0915     1.0915    -0.0000
 21 C      6.0259     6.0000    -0.0259     3.8799     3.8799    -0.0000
 22 N      7.3609     7.0000    -0.3609     3.0067     3.0067     0.0000
 23 C      5.6838     6.0000     0.3162     3.8509     3.8509    -0.0000
 24 N      7.3977     7.0000    -0.3977     2.9570     2.9570     0.0000
 25 C      6.0477     6.0000    -0.0477     3.8622     3.8622    -0.0000
 26 C      5.8635     6.0000     0.1365     3.9571     3.9571    -0.0000
 27 C      6.2049     6.0000    -0.2049     3.9020     3.9020    -0.0000
 28 C      6.1253     6.0000    -0.1253     3.9262     3.9262     0.0000
 29 C      6.1233     6.0000    -0.1233     3.9191     3.9191    -0.0000
 30 C      6.1862     6.0000    -0.1862     3.8726     3.8726    -0.0000
 31 C      5.8853     6.0000     0.1147     3.9879     3.9879    -0.0000
 32 C      5.9458     6.0000     0.0542     3.9421     3.9421    -0.0000
 33 C      6.1957     6.0000    -0.1957     3.8264     3.8264     0.0000
 34 C      6.3161     6.0000    -0.3161     3.7915     3.7915    -0.0000
 35 C      6.2999     6.0000    -0.2999     3.7891     3.7891    -0.0000
 36 C      6.1208     6.0000    -0.1208     3.9210     3.9210    -0.0000
 37 C      6.1521     6.0000    -0.1521     3.8676     3.8676    -0.0000
 38 H      0.5675     1.0000     0.4325     0.7968     0.7968     0.0000
 39 H      0.8225     1.0000     0.1775     0.9394     0.9394    -0.0000
 40 H      0.8152     1.0000     0.1848     0.9365     0.9365     0.0000
 41 H      0.8170     1.0000     0.1830     0.9354     0.9354    -0.0000
 42 H      0.8299     1.0000     0.1701     0.9340     0.9340     0.0000
 43 H      0.8558     1.0000     0.1442     0.9381     0.9381    -0.0000
 44 H      0.8373     1.0000     0.1627     0.9455     0.9455     0.0000
 45 H      0.8265     1.0000     0.1735     0.9268     0.9268    -0.0000
 46 H      0.8494     1.0000     0.1506     0.9346     0.9346     0.0000
 47 H      0.8623     1.0000     0.1377     0.9372     0.9372    -0.0000
 48 H      0.8641     1.0000     0.1359     0.9366     0.9366     0.0000
 49 H      0.8617     1.0000     0.1383     0.9364     0.9364    -0.0000
 50 H      0.8483     1.0000     0.1517     0.9432     0.9432     0.0000
 51 H      0.8434     1.0000     0.1566     0.9438     0.9438     0.0000
 52 H      0.8610     1.0000     0.1390     0.9443     0.9443     0.0000
 53 H      0.8416     1.0000     0.1584     0.9453     0.9453     0.0000
 54 H      0.7999     1.0000     0.2001     0.9494     0.9494     0.0000
 55 H      0.8506     1.0000     0.1494     0.9510     0.9510    -0.0000
 56 H      0.8127     1.0000     0.1873     0.9426     0.9426    -0.0000
 57 H      0.8311     1.0000     0.1689     0.9372     0.9372    -0.0000

  Mayer bond orders larger than 0.100000
B(  0-O ,  1-C ) :   1.8624 B(  1-C ,  2-O ) :   1.0234 B(  1-C ,  3-C ) :   1.0091 
B(  2-O , 38-H ) :   0.7428 B(  3-C ,  4-C ) :   1.4049 B(  3-C , 37-C ) :   1.3792 
B(  4-C ,  5-C ) :   1.4153 B(  4-C , 39-H ) :   0.9104 B(  5-C ,  6-C ) :   1.3833 
B(  5-C , 40-H ) :   0.9088 B(  6-C ,  7-S ) :   0.8101 B(  6-C , 36-C ) :   1.3993 
B(  7-S ,  8-O ) :   1.5877 B(  7-S ,  9-O ) :   1.6547 B(  7-S , 10-N ) :   0.7867 
B( 10-N , 11-C ) :   0.9478 B( 10-N , 23-C ) :   0.9074 B( 11-C , 12-C ) :   0.9499 
B( 11-C , 41-H ) :   0.9082 B( 11-C , 42-H ) :   0.9268 B( 12-C , 13-C ) :   1.4060 
B( 12-C , 22-N ) :   1.3842 B( 13-C , 14-C ) :   1.4318 B( 13-C , 43-H ) :   0.9176 
B( 14-C , 15-C ) :   1.3901 B( 14-C , 44-H ) :   0.9084 B( 15-C , 16-O ) :   0.8295 
B( 15-C , 21-C ) :   1.3467 B( 16-O , 17-C ) :   0.9857 B( 17-C , 18-F ) :   0.9676 
B( 17-C , 19-F ) :   0.9690 B( 17-C , 20-F ) :   1.0113 B( 21-C , 22-N ) :   1.4410 
B( 21-C , 45-H ) :   0.9184 B( 23-C , 24-N ) :   1.2693 B( 23-C , 32-C ) :   1.4305 
B( 24-N , 25-C ) :   1.4889 B( 25-C , 26-C ) :   1.2444 B( 25-C , 32-C ) :   0.1001 
B( 25-C , 46-H ) :   0.9260 B( 26-C , 27-C ) :   1.2806 B( 26-C , 31-C ) :   1.2852 
B( 27-C , 28-C ) :   1.5156 B( 27-C , 30-C ) :   0.1058 B( 27-C , 47-H ) :   0.9236 
B( 28-C , 29-C ) :   1.3500 B( 28-C , 48-H ) :   0.9293 B( 29-C , 30-C ) :   1.5043 
B( 29-C , 49-H ) :   0.9291 B( 30-C , 31-C ) :   1.3019 B( 30-C , 50-H ) :   0.9099 
B( 31-C , 32-C ) :   1.2511 B( 32-C , 33-C ) :   1.0280 B( 33-C , 34-C ) :   0.9226 
B( 33-C , 35-C ) :   0.9354 B( 33-C , 51-H ) :   0.9106 B( 34-C , 35-C ) :   0.9493 
B( 34-C , 52-H ) :   0.9435 B( 34-C , 53-H ) :   0.9421 B( 35-C , 54-H ) :   0.9184 
B( 35-C , 55-H ) :   0.9414 B( 36-C , 37-C ) :   1.4187 B( 36-C , 56-H ) :   0.9040 
B( 37-C , 57-H ) :   0.9161 

-------
TIMINGS
-------

Total SCF time: 0 days 0 hours 7 min 41 sec 

Total time                  ....     461.309 sec
Sum of individual times     ....     460.938 sec  ( 99.9%)

SCF preparation             ....       0.349 sec  (  0.1%)
Fock matrix formation       ....     458.000 sec  ( 99.3%)
  Startup                   ....       0.108 sec  (  0.0% of F)
  Split-RI-J                ....      63.713 sec  ( 13.9% of F)
  Chain of spheres X        ....     355.737 sec  ( 77.7% of F)
  XC integration            ....      36.831 sec  (  8.0% of F)
    XC Preparation          ....       0.000 sec  (  0.0% of XC)
    Basis function eval.    ....      14.184 sec  ( 38.5% of XC)
    Density eval.           ....       8.990 sec  ( 24.4% of XC)
    XC-Functional eval.     ....       1.524 sec  (  4.1% of XC)
    XC-Potential eval.      ....       9.995 sec  ( 27.1% of XC)
Diagonalization             ....       0.000 sec  (  0.0%)
Density matrix formation    ....       0.399 sec  (  0.1%)
Total Energy calculation    ....       0.093 sec  (  0.0%)
Population analysis         ....       0.076 sec  (  0.0%)
Orbital Transformation      ....       0.201 sec  (  0.0%)
Orbital Orthonormalization  ....       0.000 sec  (  0.0%)
DIIS solution               ....       0.953 sec  (  0.2%)
SOSCF solution              ....       0.867 sec  (  0.2%)
Finished LeanSCF after 461.4 sec

Maximum memory used throughout the entire LEANSCF-calculation: 102.6 MB

-------------------------   --------------------
FINAL SINGLE POINT ENERGY     -2239.667633367745
-------------------------   --------------------


------------------------------------------------------------------------------
                              ORCA PROPERTY CALCULATIONS
------------------------------------------------------------------------------

GBWName                                 ... /home/nmrbox/aojoawo/Documents/ERDOS/inputs/CHEMBL3687325.gbw
Number of atoms                         ...     58
Number of basis functions               ...    576
Max core memory                         ...   1024 MB

Electric properties:
Dipole moment                           ... YES
Quadrupole moment                       ...  NO
Static polarizability (Dipole/Dipole)   ...  NO
Static polarizability (Dipole/Quad.)    ...  NO
Static polarizability (Quad./Quad.)     ...  NO
Static polarizability (Velocity)        ...  NO

Atomic electric properties:
Dipole moment                           ...  NO
Quadrupole moment                       ...  NO
Static polarizability                   ...  NO

Choice of electric origin               ... Center of mass
Position of electric origin             ...     0.874821     0.290281     0.265279

General magnetic properties:
Magnetizability                         ...  NO

EPR properties:
g-Tensor (aka g-matrix)                 ...  NO
Zero-Field splitting spin-orbit         ...  NO
Zero-field splitting spin-spin          ...  NO
Hyperfine couplings                     ...  NO (   0 nuclei)
Quadrupole couplings                    ...  NO (   0 nuclei)
Contact density                         ...  NO (   0 nuclei)

NMR properties:
Chemical shifts                         ...  NO (   0 nuclei)
Spin-rotation constants                 ...  NO (   0 nuclei)
Spin-spin couplings                     ...  NO (   0 nuclei,    0 pairs)

Choice of magnetic origin               ... GIAO
Position of magnetic origin             ...     0.000000     0.000000     0.000000

Properties with geometric perturbations:
SCF Hessian                             ...  NO
IR spectrum                             ...  NO
VCD spectrum                            ...  NO
X-ray spectroscopy properties:
SCF XES/XAS/RIXS spectra                ...  NO


-------------
DIPOLE MOMENT
-------------

Method             : SCF
Type of density    : Electron Density
Multiplicity       :   1
Irrep              :   0
Energy             : -2239.6676333677451112 Eh
Relativity type    : 
Basis              : AO
                                X                 Y                 Z
Electronic contribution:     35.092444338      -4.398687200      -0.087874737
Nuclear contribution   :    -36.002599688       3.017511439      -2.409108298
                        -----------------------------------------
Total Dipole Moment    :     -0.910155351      -1.381175761      -2.496983034
                        -----------------------------------------
Magnitude (a.u.)       :      2.995155008
Magnitude (Debye)      :      7.613079008



--------------------
Rotational spectrum 
--------------------
 
Rotational constants in cm-1:             0.003893             0.001790             0.001375 
Rotational constants in MHz :           116.703943            53.649555            41.217720 

Dipole components along the rotational axes: 
x,y,z [a.u.] :    -0.273161    -1.814207    -2.367486 
x,y,z [Debye]:    -0.694320    -4.611347    -6.017671 

 

Dipole moment calculation done in   0.0 sec 

Maximum memory used throughout the entire PROP-calculation: 50.8 MB

--------------------------------
SUGGESTED CITATIONS FOR THIS RUN
--------------------------------

Below you find a list of papers that are relevant to this ORCA run
We neither can nor want to force you to cite these papers, but we appreciate if you do
You receive ORCA, which is the product of decades of hard work by many enthusiastic individuals, for free
The only thing we kindly ask in return is that you cite our papers,
We deeply appreciate it, if you show your appreciation for ORCA by not just citing the generic ORCA reference.

Please note that relegating all ORCA citations to the supporting information does *not* help us.
SI sections are not indexed - citations you put there will not count into any citation statistics
But we need these citations in order to attract the funding resources that allow us to do what we are doing

Therefore, if you are a happy ORCA user, please consider citing a few of the papers listed below in the main body of your paper

In addition to the list printed below, the program has created the file /home/nmrbox/aojoawo/Documents/ERDOS/inputs/CHEMBL3687325.bibtex that contains the list in bibtex format
You can import this file easily into all common literature databanks and citation aid programs


List of essential papers. We consider these as the minimum necessary citations

  1. Neese,F.
     Software update: the ORCA program system, version 5.0
     WIRES Comput. Molec. Sci., 2022 12(1)e1606
     doi.org/10.1002/wcms.1606

List of papers to cite with high priority. The work reported in these papers was absolutely
necessary for this run to complete.
Our perspective: the developers of density functionals and basis sets usually get cited in chemistry papers
Good! But without the algorithms to do something with them, the functionals or basis sets would not do anything.
Hence, in our opinion, the algorithm design and method developments papers are equally worthy of getting cited

  1. Neese,F.
     An improvement of the resolution of the identity approximation for the formation of the Coulomb matrix
     J. Comp. Chem., 2003 24(14)1740-1747
     doi.org/10.1002/jcc.10318
  2. Neese,F.; Wennmohs,F.; Hansen,A.; Becker,U.
     Efficient, approximate and parallel Hartree-Fock and hybrid DFT calculations. A 'chain-of-spheres' algorithm for the Hartree-Fock exchange
     Chem. Phys., 2009 356(1-3)98-109
     doi.org/10.1016/j.chemphys.2008.10.036
  3. Helmich-Paris,B.; de Souza,B.; Neese,F.; Izsák,R.
     An improved chain of spheres for exchange algorithm
     J. Chem. Phys., 2021 155 104109
     doi.org/doi: 10.1063/5.0058766.
  4. Neese,F.
     The SHARK Integral Generation and Digestion System
     J. Comp. Chem., 2022  1-16
     doi.org/10.1002/jcc.26942

List of suggested additional citations. These are papers that are important in the 'surrounding' of 
of this run, or papers that preceded the highly important papers. If you like your results we are grateful for a citation.

  1. Izsak,R.; Neese,F.
     An overlap fitted chain of spheres exchange method
     J. Chem. Phys., 2011 135 144105
     doi.org/10.1063/1.3646921
  2. Izsak,R.; Hansen,A.; Neese,F.
     The resolution of identity and chain of spheres approximations for the LPNO-CCSD singles Fock term
     Molec. Phys., 2012 110 2413-2417
     doi.org/10.1080/00268976.2012.687466
  3. Neese,F.
     The ORCA program system
     WIRES Comput. Molec. Sci., 2012 2(1)73-78
     doi.org/10.1002/wcms.81
  4. Izsak,R.; Neese,F.; Klopper,W.
     Robust fitting techniques in the chain of spheres approximation to the Fock exchange: The role of the complementary space
     J. Chem. Phys., 2013 139 
     doi.org/10.1063/1.4819264
  5. Neese,F.
     Software update: the ORCA program system, version 4.0
     WIRES Comput. Molec. Sci., 2018 8(1)1-6
     doi.org/10.1002/wcms.1327
  6. Neese,F.; Wennmohs,F.; Becker,U.; Riplinger,C.
     The ORCA quantum chemistry program package
     J. Chem. Phys., 2020 152 Art. No. L224108
     doi.org/10.1063/5.0004608

List of optional additional citations

  1. Neese,F.
     Approximate second-order SCF convergence for spin unrestricted wavefunctions
     Chem. Phys. Lett., 2000 325(1-3)93-98
     doi.org/10.1016/s0009-2614(00)00662-x

Timings for individual modules:

Sum of individual times          ...      479.751 sec (=   7.996 min)
Startup calculation              ...       12.032 sec (=   0.201 min)   2.5 %
SCF iterations                   ...      467.535 sec (=   7.792 min)  97.5 %
Property calculations            ...        0.185 sec (=   0.003 min)   0.0 %
                             ****ORCA TERMINATED NORMALLY****
TOTAL RUN TIME: 0 days 0 hours 8 minutes 0 seconds 401 msec
