
                                 *****************
                                 * O   R   C   A *
                                 *****************

                                            #,                                       
                                            ###                                      
                                            ####                                     
                                            #####                                    
                                            ######                                   
                                           ########,                                 
                                     ,,################,,,,,                         
                               ,,#################################,,                 
                          ,,##########################################,,             
                       ,#########################################, ''#####,          
                    ,#############################################,,   '####,        
                  ,##################################################,,,,####,       
                ,###########''''           ''''###############################       
              ,#####''   ,,,,##########,,,,          '''####'''          '####       
            ,##' ,,,,###########################,,,                        '##       
           ' ,,###''''                  '''############,,,                           
         ,,##''                                '''############,,,,        ,,,,,,###''
      ,#''                                            '''#######################'''  
     '                                                          ''''####''''         
             ,#######,   #######,   ,#######,      ##                                
            ,#'     '#,  ##    ##  ,#'     '#,    #''#        ,####,   ,####,        
            ##       ##  ##   ,#'  ##            #'  '#       #'       #'  '#        
            ##       ##  #######   ##           ,######,      #####,   #    #        
            '#,     ,#'  ##    ##  '#,     ,#' ,#      #,     #,   #   #,  ,#        
             '#######'   ##     ##  '#######'  #'      '#     '####' # '####'        



                #########################################################
                #                        -***-                          #
                #          Department of theory and spectroscopy        #
                #                                                       #
                #                      Frank Neese                      #
                #                                                       #
                #     Directorship, Architecture, Infrastructure        #
                #                    SHARK, DRIVERS                     #
                #        Core code/Algorithms in most modules           #
                #                                                       #
                #        Max Planck Institute fuer Kohlenforschung      #
                #                Kaiser Wilhelm Platz 1                 #
                #                 D-45470 Muelheim/Ruhr                 #
                #                      Germany                          #
                #                                                       #
                #                  All rights reserved                  #
                #                        -***-                          #
                #########################################################


                         Program Version 6.0.0  -   RELEASE  -


 With contributions from (in alphabetic order):
   Daniel Aravena         : Magnetic Suceptibility
   Michael Atanasov       : Ab Initio Ligand Field Theory (pilot matlab implementation)
   Alexander A. Auer      : GIAO ZORA, VPT2 properties, NMR spectrum
   Ute Becker             : All parallelization in ORCA, NUMFREQ, NUMCALC
   Giovanni Bistoni       : ED, misc. LED, open-shell LED, HFLD
   Martin Brehm           : Molecular dynamics
   Dmytro Bykov           : pre 5.0 version of the SCF Hessian
   Marcos Casanova-Páez   : Triplet and SCS-CIS(D). UHF-(DLPNO)-IP/EA/STEOM-CCSD. UHF-CVS-IP/STEOM-CCSD
   Vijay G. Chilkuri      : MRCI spin determinant printing, contributions to CSF-ICE
   Pauline Colinet        : FMM embedding
   Dipayan Datta          : RHF DLPNO-CCSD density
   Achintya Kumar Dutta   : EOM-CC, STEOM-CC
   Nicolas Foglia         : Exact transition moments, OPA infrastructure, MCD improvements
   Dmitry Ganyushin       : Spin-Orbit,Spin-Spin,Magnetic field MRCI
   Miquel Garcia          : C-PCM and meta-GGA Hessian, CCSD/C-PCM, Gaussian charge scheme
   Tiago L. C. Gouveia    : GS-ROHF, GS-ROCIS
   Yang Guo               : DLPNO-NEVPT2, F12-NEVPT2, CIM, IAO-localization
   Andreas Hansen         : Spin unrestricted coupled pair/coupled cluster methods
   Ingolf Harden          : AUTO-CI MPn and infrastructure 
   Benjamin Helmich-Paris : MC-RPA, TRAH-(SCF,CASSCF), AVAS, COSX integrals, SCF dyn. polar.
   Lee Huntington         : MR-EOM, pCC
   Robert Izsak           : Overlap fitted RIJCOSX, COSX-SCS-MP3, EOM
   Riya Kayal             : Wick's Theorem for AUTO-CI, AUTO-CI UHF-CCSDT
   Emily Kempfer          : AUTO-CI, RHF CISDT and CCSDT
   Christian Kollmar      : KDIIS, OOCD, Brueckner-CCSD(T), CCSD density, CASPT2, CASPT2-K, improved NEVPT2
   Axel Koslowski         : Symmetry handling
   Simone Kossmann        : Meta GGA functionals, TD-DFT gradient, OOMP2, (MP2 Hessian; deprecated post 5.0)
   Lucas Lang             : DCDCAS
   Marvin Lechner         : AUTO-CI (C++ implementation), FIC-MRCC
   Spencer Leger          : CASSCF response
   Dagmar Lenk            : GEPOL surface, SMD, ORCA-2-JSON
   Dimitrios Liakos       : Extrapolation schemes; Compound Job, initial MDCI parallelization
   Dimitrios Manganas     : Further ROCIS development; embedding schemes. LFT, Crystal Embedding
   Dimitrios Pantazis     : SARC Basis sets
   Anastasios Papadopoulos: AUTO-CI, single reference methods and gradients
   Taras Petrenko         : pre 6.0 DFT Hessian and TD-DFT gradient, (ASA, deprecated), ECA, 1-Electron XAS/XES, NRVS
   Peter Pinski           : DLPNO-MP2, DLPNO-MP2 Gradient
   Christoph Reimann      : Effective Core Potentials
   Marius Retegan         : Local ZFS, SOC
   Christoph Riplinger    : Optimizer, TS searches, QM/MM, DLPNO-CCSD(T), (RO)-DLPNO pert. Triples
   Michael Roemelt        : Original ROCIS implementation
   Masaaki Saitow         : Open-shell DLPNO-CCSD energy and density
   Barbara Sandhoefer     : DKH picture change effects
   Kantharuban Sivalingam : CASSCF convergence/infrastructure, NEVPT2 and variants, FIC-MRCI
   Bernardo de Souza      : ESD, SOC TD-DFT
   Georgi Stoychev        : AutoAux, RI-MP2 NMR, DLPNO-MP2 response, X2C
   Van Anh Tran           : RI-MP2 g-tensors
   Willem Van den Heuvel  : Paramagnetic NMR
   Zikuan Wang            : NOTCH, Electric field optimization 
   Frank Wennmohs         : Technical directorship and infrastructure
   Hang Xu                : AUTO-CI-Response properties 


 We gratefully acknowledge several colleagues who have allowed us to
 interface, adapt or use parts of their codes:
   Stefan Grimme, W. Hujo, H. Kruse, P. Pracht,  : VdW corrections, initial TS optimization,
                  C. Bannwarth, S. Ehlert,         DFT functionals, gCP, sTDA/sTD-DF
                  L. Wittmann, M. Mueller
   Ed Valeev, F. Pavosevic, A. Kumar             : LibInt (2-el integral package), F12 methods
   Garnet Chan, S. Sharma, J. Yang, R. Olivares  : DMRG
   Ulf Ekstrom                                   : XCFun DFT Library
   Mihaly Kallay                                 : mrcc  (arbitrary order and MRCC methods)
   Frank Weinhold                                : gennbo (NPA and NBO analysis)
   Simon Mueller                                 : openCOSMO-RS
   Christopher J. Cramer and Donald G. Truhlar   : smd solvation model
   Lars Goerigk                                  : TD-DFT with DH, B97 family of functionals
   V. Asgeirsson, H. Jonsson                     : NEB implementation
   FAccTs GmbH                                   : IRC, NEB, NEB-TS, DLPNO-Multilevel, CI-OPT
                                                   MM, QMMM, 2- and 3-layer-ONIOM, Crystal-QMMM,
                                                   LR-CPCM, SF, NACMEs, symmetry and pop. for TD-DFT,
                                                   nearIR, NL-DFT gradient (VV10), updates on ESD,
                                                   ML-optimized integration grids, MBIS, APM,
                                                   GOAT, DOCKER, SOLVATOR, interface openCOSMO-RS
   S Lehtola, MJT Oliveira, MAL Marques          : LibXC Library
   Liviu Ungur et al                             : ANISO software


 Your calculation uses the libint2 library for the computation of 2-el integrals
 For citations please refer to: http://libint.valeyev.net

 Your ORCA version has been built with support for libXC version: 6.2.2
 For citations please refer to: https://libxc.gitlab.io

 This ORCA versions uses:
   CBLAS   interface :  Fast vector & matrix operations
   LAPACKE interface :  Fast linear algebra routines
   SCALAPACK package :  Parallel linear algebra routines
   Shared memory     :  Shared parallel matrices
   BLAS/LAPACK       :  OpenBLAS 0.3.27  USE64BITINT DYNAMIC_ARCH NO_AFFINITY SkylakeX SINGLE_THREADED
        Core in use  :  SkylakeX
   Copyright (c) 2011-2014, The OpenBLAS Project


Warning: RI is on but no J-basis has been assigned. Assigning Def2/J (nothing to worry about!)
================================================================================

----- Orbital basis set information -----
Your calculation utilizes the basis: 6-31G*
   H-He, Li-Ne : W. J. Hehre, R. Ditchfield and J.A. Pople, J. Chem. Phys. 56, 2257 (1972).
                 Note: He and Ne are unpublished basis sets taken from the Gaussian program.
                 Note: Li and B from J. D. Dill and J. A. Pople, J. Chem. Phys. 62, 2921 (1975).
   Na - Ar     : M. M. Francl, W. J. Pietro, W. J. Hehre, J. S. Binkley, M. S. Gordon, 
                 D. J. DeFrees and J. A. Pople, J. Chem. Phys. 77, 3654 (1982).
   K - Zn      : V. A. Rassolov, J. A. Pople, M. A. Ratner, and T. L. Windus, J. Chem. Phys. 109, 1223 (1998).

----- AuxJ basis set information -----
Your calculation utilizes the auxiliary basis: def2/J
   F. Weigend, Phys. Chem. Chem. Phys. 8, 1057 (2006).

================================================================================
                                        WARNINGS
                       Please study these warnings very carefully!
================================================================================


================================================================================
                                       INPUT FILE
================================================================================
NAME = /home/nmrbox/aojoawo/Documents/ERDOS/inputs/CHEMBL3937790.inp
|  1> ! B3LYP 6-31G* SP
|  2> 
|  3> * xyz 0 1
|  4> C -5.3716 -2.3950 1.3951
|  5> N -4.8948 -1.1409 0.7874
|  6> C -4.1621 -1.1815 -0.3764
|  7> O -3.9135 -2.2781 -0.9471
|  8> C -3.6925 0.0166 -0.9092
|  9> C -3.9546 1.1893 -0.2694
| 10> C -3.3423 2.2062 -0.9793
| 11> C -2.7233 1.5761 -2.0507
| 12> N -2.9419 0.2394 -2.0121
| 13> C -2.3787 -0.7358 -2.9478
| 14> C -1.1886 -1.4132 -2.3376
| 15> O -1.1981 -2.6647 -2.1931
| 16> N -0.0442 -0.6355 -1.9523
| 17> C 1.0486 -1.1235 -1.1611
| 18> N 2.1479 -0.3815 -0.9118
| 19> C 3.0408 -1.0275 -0.1093
| 20> C 4.3274 -0.3940 0.2818
| 21> C 5.1115 -0.9063 1.3320
| 22> C 6.3168 -0.2934 1.6857
| 23> C 6.7685 0.8463 0.9983
| 24> C 8.0652 1.5250 1.3702
| 25> F 8.7285 0.8472 2.3790
| 26> F 8.8930 1.5803 0.2629
| 27> F 7.8032 2.8125 1.8029
| 28> C 5.9823 1.3666 -0.0442
| 29> F 6.3828 2.4720 -0.7230
| 30> C 4.7766 0.7530 -0.3963
| 31> C 2.6378 -2.3073 0.2879
| 32> S 1.1284 -2.6150 -0.3859
| 33> N -4.6712 1.2482 0.8875
| 34> C -4.8867 2.5360 1.5643
| 35> C -5.1169 0.0633 1.4324
| 36> O -5.7284 0.0762 2.5379
| 37> H -5.5731 -3.1687 0.6237
| 38> H -4.6083 -2.7784 2.1046
| 39> H -6.3287 -2.2391 1.9371
| 40> H -3.3219 3.2628 -0.7490
| 41> H -2.1292 2.0741 -2.8064
| 42> H -2.0592 -0.2256 -3.8822
| 43> H -3.1540 -1.4783 -3.2338
| 44> H -0.0055 0.3633 -2.2564
| 45> H 4.7941 -1.7705 1.8982
| 46> H 6.8897 -0.7140 2.5020
| 47> H 4.1980 1.1754 -1.2081
| 48> H 3.1894 -3.0027 0.9043
| 49> H -3.9696 2.8227 2.1204
| 50> H -5.1319 3.3279 0.8256
| 51> H -5.7396 2.4905 2.2733
| 52> *
| 53> 
| 54>                          ****END OF INPUT****
================================================================================

                       ****************************
                       * Single Point Calculation *
                       ****************************

---------------------------------
CARTESIAN COORDINATES (ANGSTROEM)
---------------------------------
  C     -5.371600   -2.395000    1.395100
  N     -4.894800   -1.140900    0.787400
  C     -4.162100   -1.181500   -0.376400
  O     -3.913500   -2.278100   -0.947100
  C     -3.692500    0.016600   -0.909200
  C     -3.954600    1.189300   -0.269400
  C     -3.342300    2.206200   -0.979300
  C     -2.723300    1.576100   -2.050700
  N     -2.941900    0.239400   -2.012100
  C     -2.378700   -0.735800   -2.947800
  C     -1.188600   -1.413200   -2.337600
  O     -1.198100   -2.664700   -2.193100
  N     -0.044200   -0.635500   -1.952300
  C      1.048600   -1.123500   -1.161100
  N      2.147900   -0.381500   -0.911800
  C      3.040800   -1.027500   -0.109300
  C      4.327400   -0.394000    0.281800
  C      5.111500   -0.906300    1.332000
  C      6.316800   -0.293400    1.685700
  C      6.768500    0.846300    0.998300
  C      8.065200    1.525000    1.370200
  F      8.728500    0.847200    2.379000
  F      8.893000    1.580300    0.262900
  F      7.803200    2.812500    1.802900
  C      5.982300    1.366600   -0.044200
  F      6.382800    2.472000   -0.723000
  C      4.776600    0.753000   -0.396300
  C      2.637800   -2.307300    0.287900
  S      1.128400   -2.615000   -0.385900
  N     -4.671200    1.248200    0.887500
  C     -4.886700    2.536000    1.564300
  C     -5.116900    0.063300    1.432400
  O     -5.728400    0.076200    2.537900
  H     -5.573100   -3.168700    0.623700
  H     -4.608300   -2.778400    2.104600
  H     -6.328700   -2.239100    1.937100
  H     -3.321900    3.262800   -0.749000
  H     -2.129200    2.074100   -2.806400
  H     -2.059200   -0.225600   -3.882200
  H     -3.154000   -1.478300   -3.233800
  H     -0.005500    0.363300   -2.256400
  H      4.794100   -1.770500    1.898200
  H      6.889700   -0.714000    2.502000
  H      4.198000    1.175400   -1.208100
  H      3.189400   -3.002700    0.904300
  H     -3.969600    2.822700    2.120400
  H     -5.131900    3.327900    0.825600
  H     -5.739600    2.490500    2.273300

----------------------------
CARTESIAN COORDINATES (A.U.)
----------------------------
  NO LB      ZA    FRAG     MASS         X           Y           Z
   0 C     6.0000    0    12.011  -10.150853   -4.525894    2.636357
   1 N     7.0000    0    14.007   -9.249831   -2.155989    1.487970
   2 C     6.0000    0    12.011   -7.865229   -2.232711   -0.711293
   3 O     8.0000    0    15.999   -7.395443   -4.304985   -1.789760
   4 C     6.0000    0    12.011   -6.977814    0.031369   -1.718139
   5 C     6.0000    0    12.011   -7.473111    2.247451   -0.509092
   6 C     6.0000    0    12.011   -6.316032    4.169114   -1.850609
   7 C     6.0000    0    12.011   -5.146291    2.978397   -3.875261
   8 N     7.0000    0    14.007   -5.559385    0.452400   -3.802318
   9 C     6.0000    0    12.011   -4.495092   -1.390460   -5.570535
  10 C     6.0000    0    12.011   -2.246128   -2.670561   -4.417424
  11 O     8.0000    0    15.999   -2.264081   -5.035553   -4.144358
  12 N     7.0000    0    14.007   -0.083526   -1.200921   -3.689312
  13 C     6.0000    0    12.011    1.981567   -2.123107   -2.194161
  14 N     7.0000    0    14.007    4.058943   -0.720931   -1.723052
  15 C     6.0000    0    12.011    5.746279   -1.941694   -0.206547
  16 C     6.0000    0    12.011    8.177601   -0.744552    0.532525
  17 C     6.0000    0    12.011    9.659335   -1.712659    2.517115
  18 C     6.0000    0    12.011   11.937022   -0.554446    3.185511
  19 C     6.0000    0    12.011   12.790611    1.599275    1.886514
  20 C     6.0000    0    12.011   15.241019    2.881832    2.589303
  21 F     9.0000    0    18.998   16.494475    1.600976    4.495658
  22 F     9.0000    0    18.998   16.805335    2.986334    0.496809
  23 F     9.0000    0    18.998   14.745911    5.314855    3.406987
  24 C     6.0000    0    12.011   11.304909    2.582500   -0.083526
  25 F     9.0000    0    18.998   12.061744    4.671403   -1.366272
  26 C     6.0000    0    12.011    9.026466    1.422964   -0.748898
  27 C     6.0000    0    12.011    4.984720   -4.360165    0.544052
  28 S    16.0000    0    32.060    2.132367   -4.941634   -0.729245
  29 N     7.0000    0    14.007   -8.827289    2.358756    1.677132
  30 C     6.0000    0    12.011   -9.234525    4.792345    2.956099
  31 C     6.0000    0    12.011   -9.669540    0.119620    2.706844
  32 O     8.0000    0    15.999  -10.825107    0.143997    4.795936
  33 H     1.0000    0     1.008  -10.531633   -5.987975    1.178622
  34 H     1.0000    0     1.008   -8.708425   -5.250415    3.977118
  35 H     1.0000    0     1.008  -11.959510   -4.231286    3.660588
  36 H     1.0000    0     1.008   -6.277481    6.165798   -1.415405
  37 H     1.0000    0     1.008   -4.023605    3.919481   -5.303327
  38 H     1.0000    0     1.008   -3.891324   -0.426322   -7.336295
  39 H     1.0000    0     1.008   -5.960196   -2.793582   -6.110996
  40 H     1.0000    0     1.008   -0.010393    0.686538   -4.263978
  41 H     1.0000    0     1.008    9.059536   -3.345760    3.587078
  42 H     1.0000    0     1.008   13.019646   -1.349264    4.728095
  43 H     1.0000    0     1.008    7.933070    2.221184   -2.282978
  44 H     1.0000    0     1.008    6.027093   -5.674281    1.708879
  45 H     1.0000    0     1.008   -7.501457    5.334130    4.006975
  46 H     1.0000    0     1.008   -9.697886    6.288820    1.560158
  47 H     1.0000    0     1.008  -10.846272    4.706363    4.295914

--------------------------------
INTERNAL COORDINATES (ANGSTROEM)
--------------------------------
 C      0   0   0     0.000000000000     0.00000000     0.00000000
 N      1   0   0     1.472889792211     0.00000000     0.00000000
 C      2   1   0     1.375837232379   119.75374333     0.00000000
 O      3   2   1     1.260964714019   120.89685406     1.39225868
 C      3   2   1     1.392782685849   118.53926693   181.74975327
 C      5   3   2     1.361347031436   119.75653398     0.56486833
 C      6   5   3     1.383096131872   107.87208721   178.02850823
 C      7   6   5     1.388554993509   105.05524974     0.17224657
 N      5   3   2     1.352563717538   129.84702311   178.72683820
 C      9   5   3     1.464152918926   128.67187804   358.30674225
 C     10   9   5     1.499184048074   110.25449916   284.39616005
 O     11  10   9     1.259850288725   119.31092981   120.56212310
 N     11  10   9     1.436288529509   119.80404600   299.24108305
 C     13  11  10     1.434696232657   124.79655176   168.87300930
 N     14  13  11     1.349509162622   122.36607217   174.86615523
 C     15  14  13     1.363302116187   112.44067115   178.26134516
 C     16  15  14     1.486479404499   121.32004566   179.50614214
 C     17  16  15     1.407190157726   121.56662101   165.48758588
 C     18  17  16     1.397675996073   120.64611514   180.15057843
 C     19  18  17     1.405513336828   120.59441604   359.97667500
 C     20  19  18     1.510090788661   121.32954287   179.74677962
 F     21  20  19     1.384578336534   111.76401581     3.12355452
 F     21  20  19     1.383627196900   109.54883760   123.31379814
 F     21  20  19     1.383303849485   109.43361386   242.82685516
 C     20  19  18     1.405570624337   118.89092991     0.52083902
 F     25  20  19     1.357600401444   120.48010974   179.50285222
 C     25  20  19     1.397924125266   120.44847043   359.51945096
 C     16  15  14     1.399308715045   114.32066934   359.84256814
 S     28  16  15     1.681360785198   108.18988897   359.81669253
 N      6   5   3     1.362131557523   122.52728722   359.81444177
 C     30   6   5     1.470689406367   120.38491796   177.85855217
 C     30   6   5     1.378242543967   117.95270673     1.37211727
 O     32  30   6     1.263419530481   119.58286003   176.59525211
 H      1   2   3     1.110977902571   111.41982747   328.96840071
 H      1   2   3     1.110411050017   109.57799472    89.85429985
 H      1   2   3     1.110904685380   111.14366696   210.64338507
 H      7   6   5     1.081599653291   128.11941171   181.49097900
 H      8   7   6     1.082608562686   125.06422084   181.32214279
 H     10   9   5     1.111524920998   110.00357190   164.46947262
 H     10   9   5     1.110942095701   109.95206377    46.98092479
 H     13  11  10     1.044785116663   117.97363503   349.77015131
 H     18  17  16     1.080817671950   121.22660498   359.07730297
 H     19  18  17     1.082342117817   118.48394897   179.71450803
 H     27  25  20     1.082690611394   118.58959991   180.38306444
 H     28  16  15     1.080644566914   127.11748466   178.78917697
 H     31  30   6     1.110187601264   109.60894439   281.91220403
 H     31  30   6     1.110363156810   110.53030085    42.52105470
 H     31  30   6     1.110040386653   111.75423607   160.97858937

---------------------------
INTERNAL COORDINATES (A.U.)
---------------------------
 C      0   0   0     0.000000000000     0.00000000     0.00000000
 N      1   0   0     2.783358332727     0.00000000     0.00000000
 C      2   1   0     2.599955574048   119.75374333     0.00000000
 O      3   2   1     2.382877974033   120.89685406     1.39225868
 C      3   2   1     2.631977840321   118.53926693   181.74975327
 C      5   3   2     2.572573062641   119.75653398     0.56486833
 C      6   5   3     2.613672906124   107.87208721   178.02850823
 C      7   6   5     2.623988659622   105.05524974     0.17224657
 N      5   3   2     2.555975004825   129.84702311   178.72683820
 C      9   5   3     2.766848034952   128.67187804   358.30674225
 C     10   9   5     2.833047275204   110.25449916   284.39616005
 O     11  10   9     2.380772015432   119.31092981   120.56212310
 N     11  10   9     2.714191970065   119.80404600   299.24108305
 C     13  11  10     2.711182965090   124.79655176   168.87300930
 N     14  13  11     2.550202732572   122.36607217   174.86615523
 C     15  14  13     2.576267637389   112.44067115   178.26134516
 C     16  15  14     2.809038978218   121.32004566   179.50614214
 C     17  16  15     2.659204016451   121.56662101   165.48758588
 C     18  17  16     2.641224856534   120.64611514   180.15057843
 C     19  18  17     2.656035284178   120.59441604   359.97667500
 C     20  19  18     2.853658027927   121.32954287   179.74677962
 F     21  20  19     2.616473867010   111.76401581     3.12355452
 F     21  20  19     2.614676473585   109.54883760   123.31379814
 F     21  20  19     2.614065435526   109.43361386   242.82685516
 C     20  19  18     2.656143541882   118.89092991     0.52083902
 F     25  20  19     2.565492958030   120.48010974   179.50285222
 C     25  20  19     2.641693752754   120.44847043   359.51945096
 C     16  15  14     2.644310248244   114.32066934   359.84256814
 S     28  16  15     3.177311416338   108.18988897   359.81669253
 N      6   5   3     2.574055602090   122.52728722   359.81444177
 C     30   6   5     2.779200206093   120.38491796   177.85855217
 C     30   6   5     2.604500954216   117.95270673     1.37211727
 O     32  30   6     2.387516904856   119.58286003   176.59525211
 H      1   2   3     2.099443976697   111.41982747   328.96840071
 H      1   2   3     2.098372780612   109.57799472    89.85429985
 H      1   2   3     2.099305616259   111.14366696   210.64338507
 H      7   6   5     2.043927131265   128.11941171   181.49097900
 H      8   7   6     2.045833693714   125.06422084   181.32214279
 H     10   9   5     2.100477691715   110.00357190   164.46947262
 H     10   9   5     2.099376311519   109.95206377    46.98092479
 H     13  11  10     1.974357739290   117.97363503   349.77015131
 H     18  17  16     2.042449400688   121.22660498   359.07730297
 H     19  18  17     2.045330185882   118.48394897   179.71450803
 H     27  25  20     2.045988743302   118.58959991   180.38306444
 H     28  16  15     2.042122279577   127.11748466   178.78917697
 H     31  30   6     2.097950523664   109.60894439   281.91220403
 H     31  30   6     2.098282275566   110.53030085    42.52105470
 H     31  30   6     2.097672328366   111.75423607   160.97858937

---------------------
BASIS SET INFORMATION
---------------------
There are 6 groups of distinct atoms

 Group   1 Type C   : 10s4p1d contracted to 3s2p1d pattern {631/31/1}
 Group   2 Type N   : 10s4p1d contracted to 3s2p1d pattern {631/31/1}
 Group   3 Type O   : 10s4p1d contracted to 3s2p1d pattern {631/31/1}
 Group   4 Type F   : 10s4p1d contracted to 3s2p1d pattern {631/31/1}
 Group   5 Type S   : 16s10p1d contracted to 4s3p1d pattern {6631/631/1}
 Group   6 Type H   : 4s contracted to 2s pattern {31}

Atom   0C    basis set group =>   1
Atom   1N    basis set group =>   2
Atom   2C    basis set group =>   1
Atom   3O    basis set group =>   3
Atom   4C    basis set group =>   1
Atom   5C    basis set group =>   1
Atom   6C    basis set group =>   1
Atom   7C    basis set group =>   1
Atom   8N    basis set group =>   2
Atom   9C    basis set group =>   1
Atom  10C    basis set group =>   1
Atom  11O    basis set group =>   3
Atom  12N    basis set group =>   2
Atom  13C    basis set group =>   1
Atom  14N    basis set group =>   2
Atom  15C    basis set group =>   1
Atom  16C    basis set group =>   1
Atom  17C    basis set group =>   1
Atom  18C    basis set group =>   1
Atom  19C    basis set group =>   1
Atom  20C    basis set group =>   1
Atom  21F    basis set group =>   4
Atom  22F    basis set group =>   4
Atom  23F    basis set group =>   4
Atom  24C    basis set group =>   1
Atom  25F    basis set group =>   4
Atom  26C    basis set group =>   1
Atom  27C    basis set group =>   1
Atom  28S    basis set group =>   5
Atom  29N    basis set group =>   2
Atom  30C    basis set group =>   1
Atom  31C    basis set group =>   1
Atom  32O    basis set group =>   3
Atom  33H    basis set group =>   6
Atom  34H    basis set group =>   6
Atom  35H    basis set group =>   6
Atom  36H    basis set group =>   6
Atom  37H    basis set group =>   6
Atom  38H    basis set group =>   6
Atom  39H    basis set group =>   6
Atom  40H    basis set group =>   6
Atom  41H    basis set group =>   6
Atom  42H    basis set group =>   6
Atom  43H    basis set group =>   6
Atom  44H    basis set group =>   6
Atom  45H    basis set group =>   6
Atom  46H    basis set group =>   6
Atom  47H    basis set group =>   6
---------------------------------
AUXILIARY/J BASIS SET INFORMATION
---------------------------------
There are 6 groups of distinct atoms

 Group   1 Type C   : 12s5p4d2f1g contracted to 6s4p3d1f1g pattern {711111/2111/211/2/1}
 Group   2 Type N   : 12s5p4d2f1g contracted to 6s4p3d1f1g pattern {711111/2111/211/2/1}
 Group   3 Type O   : 12s5p4d2f1g contracted to 6s4p3d1f1g pattern {711111/2111/211/2/1}
 Group   4 Type F   : 12s5p4d2f1g contracted to 6s4p3d1f1g pattern {711111/2111/211/2/1}
 Group   5 Type S   : 14s5p5d2f1g contracted to 8s4p3d1f1g pattern {71111111/2111/311/2/1}
 Group   6 Type H   : 5s2p1d contracted to 3s1p1d pattern {311/2/1}

Atom   0C    basis set group =>   1
Atom   1N    basis set group =>   2
Atom   2C    basis set group =>   1
Atom   3O    basis set group =>   3
Atom   4C    basis set group =>   1
Atom   5C    basis set group =>   1
Atom   6C    basis set group =>   1
Atom   7C    basis set group =>   1
Atom   8N    basis set group =>   2
Atom   9C    basis set group =>   1
Atom  10C    basis set group =>   1
Atom  11O    basis set group =>   3
Atom  12N    basis set group =>   2
Atom  13C    basis set group =>   1
Atom  14N    basis set group =>   2
Atom  15C    basis set group =>   1
Atom  16C    basis set group =>   1
Atom  17C    basis set group =>   1
Atom  18C    basis set group =>   1
Atom  19C    basis set group =>   1
Atom  20C    basis set group =>   1
Atom  21F    basis set group =>   4
Atom  22F    basis set group =>   4
Atom  23F    basis set group =>   4
Atom  24C    basis set group =>   1
Atom  25F    basis set group =>   4
Atom  26C    basis set group =>   1
Atom  27C    basis set group =>   1
Atom  28S    basis set group =>   5
Atom  29N    basis set group =>   2
Atom  30C    basis set group =>   1
Atom  31C    basis set group =>   1
Atom  32O    basis set group =>   3
Atom  33H    basis set group =>   6
Atom  34H    basis set group =>   6
Atom  35H    basis set group =>   6
Atom  36H    basis set group =>   6
Atom  37H    basis set group =>   6
Atom  38H    basis set group =>   6
Atom  39H    basis set group =>   6
Atom  40H    basis set group =>   6
Atom  41H    basis set group =>   6
Atom  42H    basis set group =>   6
Atom  43H    basis set group =>   6
Atom  44H    basis set group =>   6
Atom  45H    basis set group =>   6
Atom  46H    basis set group =>   6
Atom  47H    basis set group =>   6
------------------------------------------------------------------------------
                             ORCA STARTUP CALCULATIONS
                           -- RI-GTO INTEGRALS CHOSEN --
------------------------------------------------------------------------------
------------------------------------------------------------------------------
                   ___                                                        
                  /   \      - P O W E R E D   B Y -                         
                 /     \                                                     
                 |  |  |   _    _      __       _____    __    __             
                 |  |  |  | |  | |    /  \     |  _  \  |  |  /  |          
                  \  \/   | |  | |   /    \    | | | |  |  | /  /          
                 / \  \   | |__| |  /  /\  \   | |_| |  |  |/  /          
                |  |  |   |  __  | /  /__\  \  |    /   |      \           
                |  |  |   | |  | | |   __   |  |    \   |  |\   \          
                \     /   | |  | | |  |  |  |  | |\  \  |  | \   \       
                 \___/    |_|  |_| |__|  |__|  |_| \__\ |__|  \__/        
                                                                              
                      - O R C A' S   B I G   F R I E N D -                    
                                      &                                       
                       - I N T E G R A L  F E E D E R -                       
                                                                              
 v1 FN, 2020, v2 2021, v3 2022-2024                                           
------------------------------------------------------------------------------


----------------------
SHARK INTEGRAL PACKAGE
----------------------

Number of atoms                             ...     48
Number of basis functions                   ...    496
Number of shells                            ...    230
Maximum angular momentum                    ...      2
Integral batch strategy                     ... SHARK/LIBINT Hybrid
RI-J (if used) integral strategy            ... SPLIT-RIJ (Revised 2003 algorithm where possible)
Printlevel                                  ...      1
Contraction scheme used                     ... SEGMENTED contraction
Prescreening option                         ... SCHWARTZ
   Thresh                                   ... 1.000e-10
   Tcut                                     ... 1.000e-11
   Tpresel                                  ... 1.000e-11 
Coulomb Range Separation                    ... NOT USED
Exchange Range Separation                   ... NOT USED
Multipole approximations                    ... NOT USED
Finite Nucleus Model                        ... NOT USED
CABS basis                                  ... NOT available
Auxiliary Coulomb fitting basis             ... AVAILABLE
   # of basis functions in Aux-J            ...   1784
   # of shells in Aux-J                     ...    572
   Maximum angular momentum in Aux-J        ...      4
Auxiliary J/K fitting basis                 ... NOT available
Auxiliary Correlation fitting basis         ... NOT available
Auxiliary 'external' fitting basis          ... NOT available

Checking pre-screening integrals            ... done (  0.0 sec) Dimension = 230
Check shell pair data                       ... done (  0.0 sec)
Shell pair information
Shell pair cut-off parameter TPreSel        ...   1.0e-11
Total number of shell pairs                 ...     26565
Shell pairs after pre-screening             ...     13025
Total number of primitive shell pairs       ...    161796
Primitive shell pairs kept                  ...     42013
          la=0 lb=0:   3908 shell pairs
          la=1 lb=0:   4599 shell pairs
          la=1 lb=1:   1358 shell pairs
          la=2 lb=0:   1811 shell pairs
          la=2 lb=1:   1116 shell pairs
          la=2 lb=2:    233 shell pairs

Calculating one electron integrals          ... done (  0.1 sec)
Calculating RI/J V-Matrix + Cholesky decomp.... done (  0.3 sec)
Calculating Nuclear repulsion               ... done (  0.0 sec) ENN=   3384.603773633818 Eh

Diagonalization of the overlap matrix:
Smallest eigenvalue                        ... 4.592e-04
Time for diagonalization                   ...    0.032 sec
Threshold for overlap eigenvalues          ... 1.000e-07
Number of eigenvalues below threshold      ... 0
Time for construction of square roots      ...    0.025 sec
Total time needed                          ...    0.066 sec

-------------------
DFT GRID GENERATION
-------------------

General Integration Accuracy     IntAcc      ... 4.388
Radial Grid Type                 RadialGrid  ... OptM3 with GC (2021)
Angular Grid (max. ang.)         AngularGrid ... 4 (Lebedev-302)
Angular grid pruning method      GridPruning ... 4 (adaptive)
Weight generation scheme         WeightScheme... mBecke (2022)
Basis function cutoff            BFCut       ... 1.0000e-10
Integration weight cutoff        WCut        ... 1.0000e-14
Partially contracted basis set               ... off
Rotationally invariant grid construction     ... off
Angular grids for H and He will be reduced by one unit

Total number of grid points                  ...   247236
Total number of batches                      ...     3887
Average number of points per batch           ...       63
Average number of grid points per atom       ...     5151

--------------------
COSX GRID GENERATION
--------------------

GRIDX 1
-------
General Integration Accuracy     IntAcc      ... 3.816
Radial Grid Type                 RadialGrid  ... OptM3 with GC (2021)
Angular Grid (max. ang.)         AngularGrid ... 1 (Lebedev-50)
Angular grid pruning method      GridPruning ... 4 (adaptive)
Weight generation scheme         WeightScheme... mBecke (2022)
Basis function cutoff            BFCut       ... 1.0000e-10
Integration weight cutoff        WCut        ... 1.0000e-14
Partially contracted basis set               ... on
Rotationally invariant grid construction     ... off
Angular grids for H and He will be reduced by one unit

Total number of grid points                  ...    32288
Total number of batches                      ...      279
Average number of points per batch           ...      115
Average number of grid points per atom       ...      673
UseSFitting                                  ... on

GRIDX 2
-------
General Integration Accuracy     IntAcc      ... 4.020
Radial Grid Type                 RadialGrid  ... OptM3 with GC (2021)
Angular Grid (max. ang.)         AngularGrid ... 2 (Lebedev-110)
Angular grid pruning method      GridPruning ... 4 (adaptive)
Weight generation scheme         WeightScheme... mBecke (2022)
Basis function cutoff            BFCut       ... 1.0000e-10
Integration weight cutoff        WCut        ... 1.0000e-14
Partially contracted basis set               ... on
Rotationally invariant grid construction     ... off
Angular grids for H and He will be reduced by one unit

Total number of grid points                  ...    69600
Total number of batches                      ...      568
Average number of points per batch           ...      122
Average number of grid points per atom       ...     1450
UseSFitting                                  ... on

GRIDX 3
-------
General Integration Accuracy     IntAcc      ... 4.338
Radial Grid Type                 RadialGrid  ... OptM3 with GC (2021)
Angular Grid (max. ang.)         AngularGrid ... 3 (Lebedev-194)
Angular grid pruning method      GridPruning ... 4 (adaptive)
Weight generation scheme         WeightScheme... mBecke (2022)
Basis function cutoff            BFCut       ... 1.0000e-10
Integration weight cutoff        WCut        ... 1.0000e-14
Partially contracted basis set               ... on
Rotationally invariant grid construction     ... off
Angular grids for H and He will be reduced by one unit

Total number of grid points                  ...   153361
Total number of batches                      ...     1226
Average number of points per batch           ...      125
Average number of grid points per atom       ...     3195
UseSFitting                                  ... on
Initializing property integral containers    ... done (  0.0 sec)

SHARK setup successfully completed in   8.8 seconds

Maximum memory used throughout the entire STARTUP-calculation: 103.6 MB
-------------------------------------------------------------------------------
                                 ORCA GUESS
                   Start orbitals & Density for SCF / CASSCF
-------------------------------------------------------------------------------

------------
SCF SETTINGS
------------
Hamiltonian:
 Density Functional     Method          .... DFT(GTOs)
 Exchange Functional    Exchange        .... B88
   X-Alpha parameter    XAlpha          ....  0.666667
   Becke's b parameter  XBeta           ....  0.004200
 Correlation Functional Correlation     .... LYP
 LDA part of GGA corr.  LDAOpt          .... VWN-5
 Gradients option       PostSCFGGA      .... off
 Hybrid DFT is turned on
   Fraction HF Exchange ScalHFX         ....  0.200000
   Scaling of DF-GGA-X  ScalDFX         ....  0.720000
   Scaling of DF-GGA-C  ScalDFC         ....  0.810000
   Scaling of DF-LDA-C  ScalLDAC        ....  1.000000
   Perturbative correction              ....  0.000000
   NL short-range parameter             ....  4.800000
 RI-approximation to the Coulomb term is turned on
   Number of AuxJ basis functions       .... 1784
   RIJ-COSX (HFX calculated with COS-X)).... on


General Settings:
 Integral files         IntName         .... /home/nmrbox/aojoawo/Documents/ERDOS/inputs/CHEMBL3937790
 Hartree-Fock type      HFTyp           .... RHF
 Total Charge           Charge          ....    0
 Multiplicity           Mult            ....    1
 Number of Electrons    NEL             ....  246
 Basis Dimension        Dim             ....  496
 Nuclear Repulsion      ENuc            ....   3384.6037736338 Eh

Convergence Acceleration:
 AO-DIIS                CNVDIIS         .... on
   Start iteration      DIISMaxIt       ....    12
   Startup error        DIISStart       ....  0.200000
   # of expansion vecs  DIISMaxEq       ....     5
   Bias factor          DIISBfac        ....   1.050
   Max. coefficient     DIISMaxC        ....  10.000
 MO-DIIS                CNVKDIIS        .... off
 Trust-Rad. Augm. Hess. CNVTRAH         .... auto
   Auto Start mean grad. ratio tolernc. ....  1.125000
   Auto Start start iteration           ....    50
   Auto Start num. interpolation iter.  ....    10
   Max. Number of Micro iterations      ....    24
   Max. Number of Macro iterations      .... Maxiter - #DIIS iter
   Number of Davidson start vectors     ....     2
   Converg. threshold    (grad. norm)   ....   5.000e-05
   Grad. Scal. Fac. for Micro threshold ....   0.100
   Minimum threshold for Micro iter.    ....   1.000e-02
   NR start threshold (gradient norm)   ....   1.000e-04
   Initial trust radius                 ....   0.400
   Minimum AH scaling param. (alpha)    ....   1.000
   Maximum AH scaling param. (alpha)    .... 1000.000
   Quad. conv. algorithm                .... NR
   White noise on init. David. guess    .... on
   Maximum white noise                  ....   0.010
   Pseudo random numbers                .... off
   Inactive MOs                         .... canonical
   Orbital update algorithm             .... Taylor
   Preconditioner                       .... Diag
   Full preconditioner red. dimension   ....   250
 SOSCF                  CNVSOSCF        .... on
   Start iteration      SOSCFMaxIt      ....   150
   Startup grad/error   SOSCFStart      ....  0.003300
   Hessian update       SOSCFHessUp     .... L-BFGS
 Level Shifting         CNVShift        .... on
   Level shift para.    LevelShift      ....    0.2500
   Turn off err/grad.   ShiftErr        ....    0.0010
 Zerner damping         CNVZerner       .... off
 Static damping         CNVDamp         .... on
   Fraction old density DampFac         ....    0.7000
   Max. Damping (<1)    DampMax         ....    0.9800
   Min. Damping (>=0)   DampMin         ....    0.0000
   Turn off err/grad.   DampErr         ....    0.1000

SCF Procedure:
 Maximum # iterations   MaxIter         ....   125
 SCF integral mode      SCFMode         .... Direct
   Integral package                     .... SHARK and LIBINT hybrid scheme
 Reset frequency        DirectResetFreq ....    20
 Integral Threshold     Thresh          ....  1.000e-10 Eh
 Primitive CutOff       TCut            ....  1.000e-11 Eh

Convergence Tolerance:
 Convergence Check Mode ConvCheckMode   .... Total+1el-Energy
 Convergence forced     ConvForced      .... 0
 Energy Change          TolE            ....  1.000e-06 Eh
 1-El. energy change                    ....  1.000e-03 Eh
 Orbital Gradient       TolG            ....  5.000e-05
 Orbital Rotation angle TolX            ....  5.000e-05
 DIIS Error             TolErr          ....  1.000e-06

------------------------------
INITIAL GUESS: MODEL POTENTIAL
------------------------------
Loading Hartree-Fock densities                     ... done
Calculating cut-offs                               ... done
Initializing the effective Hamiltonian             ... done
Setting up the integral package (SHARK)            ... done
Starting the Coulomb interaction                   ... done (   1.8 sec)
Making the grid                                    ... done (   1.1 sec)
Mapping shells                                     ... done
Starting the XC term evaluation                    ... done (   0.8 sec)
  promolecular density results
     # of electrons  =    245.982541076
     EX              =   -230.086673838
     EC              =     -8.776683007
     EX+EC           =   -238.863356846
Transforming the Hamiltonian                       ... done (   0.0 sec)
Diagonalizing the Hamiltonian                      ... done (   0.0 sec)
Back transforming the eigenvectors                 ... done (   0.0 sec)
Now organizing SCF variables                       ... done
                      ------------------
                      INITIAL GUESS DONE (   3.8 sec)
                      ------------------
             **** ENERGY FILE WAS UPDATED (/home/nmrbox/aojoawo/Documents/ERDOS/inputs/CHEMBL3937790.en.tmp) ****
Finished Guess after   4.0 sec
Maximum memory used throughout the entire GUESS-calculation: 56.3 MB

-------------------------------------------------------------------------------------------
                                      ORCA LEAN-SCF
                              memory conserving SCF solver
-------------------------------------------------------------------------------------------

----------------------------------------D-I-I-S--------------------------------------------
Iteration    Energy (Eh)           Delta-E    RMSDP     MaxDP     DIISErr   Damp  Time(sec)
-------------------------------------------------------------------------------------------
               ***  Starting incremental Fock matrix formation  ***
    1    -2066.3687772979205874     0.00e+00  2.42e-03  1.19e-01  2.90e-01  0.700  39.1
    2    -2066.7753043914467526    -4.07e-01  1.45e-03  6.12e-02  1.02e-01  0.700  17.7
                               ***Turning on AO-DIIS***
    3    -2066.9080697481299467    -1.33e-01  5.49e-04  1.75e-02  3.94e-02  0.700  17.2
    4    -2066.9973271904714238    -8.93e-02  9.59e-04  5.07e-02  1.71e-02  0.000  16.2
    5    -2067.2009130981464295    -2.04e-01  2.39e-04  9.07e-03  9.12e-03  0.000  17.1
                              *** Initializing SOSCF ***
---------------------------------------S-O-S-C-F--------------------------------------
Iteration    Energy (Eh)           Delta-E    RMSDP     MaxDP     MaxGrad    Time(sec)
--------------------------------------------------------------------------------------
    6    -2067.2025384804514943    -1.63e-03  8.39e-05  3.50e-03  3.26e-03    16.8
               *** Restarting incremental Fock matrix formation ***
    7    -2067.2027305992855872    -1.92e-04  7.14e-05  3.23e-03  5.77e-04    39.2
    8    -2067.2026671806593185     6.34e-05  4.51e-05  2.21e-03  1.11e-03    23.3
    9    -2067.2027612863153081    -9.41e-05  9.93e-06  5.69e-04  7.47e-05    20.7
   10    -2067.2027599295956861     1.36e-06  6.25e-06  3.48e-04  1.68e-04    16.4
   11    -2067.2027617575645309    -1.83e-06  2.79e-06  1.48e-04  3.20e-05    17.7
   12    -2067.2027616935315564     6.40e-08  1.66e-06  9.29e-05  4.59e-05    13.2
                 **** Energy Check signals convergence ****

               *****************************************************
               *                     SUCCESS                       *
               *           SCF CONVERGED AFTER  12 CYCLES          *
               *****************************************************

Recomputing exchange energy using gridx3       ... done (   66.935 sec)
Old exchange energy                            :    -46.422695026 Eh
New exchange energy                            :    -46.422730437 Eh
Exchange energy change after final integration :     -0.000035412 Eh
Total energy after final integration           :  -2067.202797105 Eh
             **** ENERGY FILE WAS UPDATED (/home/nmrbox/aojoawo/Documents/ERDOS/inputs/CHEMBL3937790.en.tmp) ****

----------------
TOTAL SCF ENERGY
----------------

Total Energy       :      -2067.20279710521891 Eh          -56251.44788 eV

Components:
Nuclear Repulsion  :       3384.60377363381804 Eh           92099.75094 eV
Electronic Energy  :      -5451.80653532734959 Eh         -148351.19786 eV
One Electron Energy:      -9570.49269197460308 Eh         -260426.34597 eV
Two Electron Energy:       4118.68615664725348 Eh          112075.14811 eV

Virial components:
Potential Energy   :      -4123.72352812629833 Eh         -112212.22196 eV
Kinetic Energy     :       2056.52073102107943 Eh           55960.77408 eV
Virial Ratio       :          2.00519424186832

DFT components:
N(Alpha)           :      122.999862496279 electrons
N(Beta)            :      122.999862496279 electrons
N(Total)           :      245.999724992558 electrons
E(X)               :     -184.616103524646 Eh       
E(C)               :      -10.295569095078 Eh       
E(XC)              :     -194.911672619723 Eh       

---------------
SCF CONVERGENCE
---------------

  Last Energy change         ...   -6.4033e-08  Tolerance :   1.0000e-06
  Last MAX-Density change    ...    9.2883e-05  Tolerance :   1.0000e-05
  Last RMS-Density change    ...    1.6585e-06  Tolerance :   1.0000e-06
  Last DIIS Error            ...    3.2568e-03  Tolerance :   1.0000e-06
  Last Orbital Gradient      ...    4.5931e-05  Tolerance :   5.0000e-05
  Last Orbital Rotation      ...    6.5683e-05  Tolerance :   5.0000e-05


----------------
ORBITAL ENERGIES
----------------

  NO   OCC          E(Eh)            E(eV) 
   0   2.0000     -88.911918     -2419.4163 
   1   2.0000     -24.720266      -672.6726 
   2   2.0000     -24.711794      -672.4421 
   3   2.0000     -24.711589      -672.4365 
   4   2.0000     -24.710003      -672.3934 
   5   2.0000     -19.144336      -520.9439 
   6   2.0000     -19.103820      -519.8414 
   7   2.0000     -19.103592      -519.8352 
   8   2.0000     -14.418032      -392.3346 
   9   2.0000     -14.408049      -392.0629 
  10   2.0000     -14.395802      -391.7297 
  11   2.0000     -14.390757      -391.5924 
  12   2.0000     -14.340973      -390.2377 
  13   2.0000     -10.434431      -283.9353 
  14   2.0000     -10.322560      -280.8911 
  15   2.0000     -10.320494      -280.8349 
  16   2.0000     -10.299960      -280.2761 
  17   2.0000     -10.287960      -279.9496 
  18   2.0000     -10.286850      -279.9194 
  19   2.0000     -10.264219      -279.3036 
  20   2.0000     -10.238812      -278.6122 
  21   2.0000     -10.235903      -278.5331 
  22   2.0000     -10.234890      -278.5055 
  23   2.0000     -10.233001      -278.4541 
  24   2.0000     -10.219643      -278.0906 
  25   2.0000     -10.218722      -278.0656 
  26   2.0000     -10.217526      -278.0330 
  27   2.0000     -10.216033      -277.9924 
  28   2.0000     -10.214446      -277.9492 
  29   2.0000     -10.209474      -277.8139 
  30   2.0000     -10.200525      -277.5704 
  31   2.0000     -10.198932      -277.5270 
  32   2.0000     -10.193434      -277.3774 
  33   2.0000      -7.987971      -217.3637 
  34   2.0000      -5.951098      -161.9376 
  35   2.0000      -5.946802      -161.8207 
  36   2.0000      -5.944992      -161.7715 
  37   2.0000      -1.275872       -34.7183 
  38   2.0000      -1.222584       -33.2682 
  39   2.0000      -1.202260       -32.7152 
  40   2.0000      -1.198022       -32.5998 
  41   2.0000      -1.064090       -28.9554 
  42   2.0000      -1.046774       -28.4842 
  43   2.0000      -1.029825       -28.0229 
  44   2.0000      -1.011465       -27.5234 
  45   2.0000      -0.987289       -26.8655 
  46   2.0000      -0.963889       -26.2288 
  47   2.0000      -0.932810       -25.3831 
  48   2.0000      -0.928134       -25.2558 
  49   2.0000      -0.877415       -23.8757 
  50   2.0000      -0.845359       -23.0034 
  51   2.0000      -0.819053       -22.2876 
  52   2.0000      -0.801937       -21.8218 
  53   2.0000      -0.786977       -21.4147 
  54   2.0000      -0.762293       -20.7431 
  55   2.0000      -0.759546       -20.6683 
  56   2.0000      -0.739557       -20.1244 
  57   2.0000      -0.734783       -19.9945 
  58   2.0000      -0.709585       -19.3088 
  59   2.0000      -0.692028       -18.8310 
  60   2.0000      -0.653795       -17.7907 
  61   2.0000      -0.649866       -17.6838 
  62   2.0000      -0.635602       -17.2956 
  63   2.0000      -0.634749       -17.2724 
  64   2.0000      -0.625988       -17.0340 
  65   2.0000      -0.603971       -16.4349 
  66   2.0000      -0.597249       -16.2520 
  67   2.0000      -0.590563       -16.0700 
  68   2.0000      -0.575309       -15.6549 
  69   2.0000      -0.566414       -15.4129 
  70   2.0000      -0.565701       -15.3935 
  71   2.0000      -0.565235       -15.3808 
  72   2.0000      -0.544382       -14.8134 
  73   2.0000      -0.529503       -14.4085 
  74   2.0000      -0.527158       -14.3447 
  75   2.0000      -0.511119       -13.9083 
  76   2.0000      -0.505192       -13.7470 
  77   2.0000      -0.498483       -13.5644 
  78   2.0000      -0.491738       -13.3809 
  79   2.0000      -0.490020       -13.3341 
  80   2.0000      -0.485076       -13.1996 
  81   2.0000      -0.468605       -12.7514 
  82   2.0000      -0.467909       -12.7325 
  83   2.0000      -0.457620       -12.4525 
  84   2.0000      -0.456966       -12.4347 
  85   2.0000      -0.453607       -12.3433 
  86   2.0000      -0.448336       -12.1998 
  87   2.0000      -0.444646       -12.0994 
  88   2.0000      -0.443648       -12.0723 
  89   2.0000      -0.443130       -12.0582 
  90   2.0000      -0.441174       -12.0049 
  91   2.0000      -0.434819       -11.8320 
  92   2.0000      -0.425988       -11.5917 
  93   2.0000      -0.421950       -11.4818 
  94   2.0000      -0.419887       -11.4257 
  95   2.0000      -0.414140       -11.2693 
  96   2.0000      -0.413049       -11.2396 
  97   2.0000      -0.408090       -11.1047 
  98   2.0000      -0.401009       -10.9120 
  99   2.0000      -0.399330       -10.8663 
 100   2.0000      -0.395901       -10.7730 
 101   2.0000      -0.394163       -10.7257 
 102   2.0000      -0.393236       -10.7005 
 103   2.0000      -0.390561       -10.6277 
 104   2.0000      -0.377392       -10.2694 
 105   2.0000      -0.377202       -10.2642 
 106   2.0000      -0.372738       -10.1427 
 107   2.0000      -0.370149       -10.0723 
 108   2.0000      -0.369379       -10.0513 
 109   2.0000      -0.350750        -9.5444 
 110   2.0000      -0.325332        -8.8527 
 111   2.0000      -0.324338        -8.8257 
 112   2.0000      -0.302351        -8.2274 
 113   2.0000      -0.285943        -7.7809 
 114   2.0000      -0.276309        -7.5187 
 115   2.0000      -0.268381        -7.3030 
 116   2.0000      -0.266435        -7.2501 
 117   2.0000      -0.259898        -7.0722 
 118   2.0000      -0.258479        -7.0336 
 119   2.0000      -0.252509        -6.8711 
 120   2.0000      -0.243685        -6.6310 
 121   2.0000      -0.223348        -6.0776 
 122   2.0000      -0.218540        -5.9468 
 123   0.0000      -0.051892        -1.4121 
 124   0.0000      -0.044729        -1.2171 
 125   0.0000      -0.030651        -0.8341 
 126   0.0000      -0.014279        -0.3886 
 127   0.0000       0.007755         0.2110 
 128   0.0000       0.020934         0.5696 
 129   0.0000       0.032634         0.8880 
 130   0.0000       0.045158         1.2288 
 131   0.0000       0.053479         1.4552 
 132   0.0000       0.055690         1.5154 
 133   0.0000       0.078852         2.1457 
*Only the first 10 virtual orbitals were printed.

                    ********************************
                    * MULLIKEN POPULATION ANALYSIS *
                    ********************************

-----------------------
MULLIKEN ATOMIC CHARGES
-----------------------
   0 C :   -0.312908
   1 N :   -0.488759
   2 C :    0.546535
   3 O :   -0.507926
   4 C :    0.205248
   5 C :    0.287380
   6 C :   -0.210121
   7 C :   -0.007314
   8 N :   -0.428931
   9 C :   -0.255083
  10 C :    0.577827
  11 O :   -0.419510
  12 N :   -0.645074
  13 C :    0.261793
  14 N :   -0.435399
  15 C :    0.211143
  16 C :    0.143562
  17 C :   -0.183108
  18 C :   -0.160237
  19 C :   -0.112533
  20 C :    0.918522
  21 F :   -0.306832
  22 F :   -0.299473
  23 F :   -0.298824
  24 C :    0.391448
  25 F :   -0.302219
  26 C :   -0.258418
  27 C :   -0.400540
  28 S :    0.335971
  29 N :   -0.506825
  30 C :   -0.327884
  31 C :    0.667026
  32 O :   -0.514650
  33 H :    0.194871
  34 H :    0.176317
  35 H :    0.191369
  36 H :    0.145389
  37 H :    0.154121
  38 H :    0.179038
  39 H :    0.240802
  40 H :    0.351514
  41 H :    0.135423
  42 H :    0.161030
  43 H :    0.167914
  44 H :    0.186530
  45 H :    0.173969
  46 H :    0.165127
  47 H :    0.212701
Sum of atomic charges:   -0.0000000

--------------------------------
MULLIKEN REDUCED ORBITAL CHARGES
--------------------------------
  0 C s       :     3.267446  s :     3.267446
      pz      :     1.052641  p :     3.000103
      px      :     1.083927
      py      :     0.863535
      dz2     :     0.003094  d :     0.045359
      dxz     :     0.010211
      dyz     :     0.013656
      dx2y2   :     0.010092
      dxy     :     0.008305

  1 N s       :     3.609615  s :     3.609615
      pz      :     1.250219  p :     3.841870
      px      :     1.463810
      py      :     1.127841
      dz2     :     0.007676  d :     0.037275
      dxz     :     0.006067
      dyz     :     0.009580
      dx2y2   :     0.007397
      dxy     :     0.006554

  2 C s       :     2.940083  s :     2.940083
      pz      :     0.766022  p :     2.404519
      px      :     0.825099
      py      :     0.813398
      dz2     :     0.026556  d :     0.108863
      dxz     :     0.015206
      dyz     :     0.025129
      dx2y2   :     0.020631
      dxy     :     0.021339

  3 O s       :     3.889564  s :     3.889564
      pz      :     1.603130  p :     4.592647
      px      :     1.538600
      py      :     1.450917
      dz2     :     0.003683  d :     0.025714
      dxz     :     0.001634
      dyz     :     0.007668
      dx2y2   :     0.005757
      dxy     :     0.006972

  4 C s       :     3.023093  s :     3.023093
      pz      :     0.856252  p :     2.714339
      px      :     1.027247
      py      :     0.830840
      dz2     :     0.014348  d :     0.057319
      dxz     :     0.009956
      dyz     :     0.013317
      dx2y2   :     0.010289
      dxy     :     0.009408

  5 C s       :     3.009689  s :     3.009689
      pz      :     0.813230  p :     2.639097
      px      :     0.907934
      py      :     0.917933
      dz2     :     0.017077  d :     0.063834
      dxz     :     0.012117
      dyz     :     0.014115
      dx2y2   :     0.010146
      dxy     :     0.010380

  6 C s       :     3.169741  s :     3.169741
      pz      :     0.985696  p :     3.004101
      px      :     1.057630
      py      :     0.960775
      dz2     :     0.007634  d :     0.036279
      dxz     :     0.004211
      dyz     :     0.009422
      dx2y2   :     0.008926
      dxy     :     0.006087

  7 C s       :     3.113830  s :     3.113830
      pz      :     1.024587  p :     2.839429
      px      :     1.030354
      py      :     0.784488
      dz2     :     0.009774  d :     0.054055
      dxz     :     0.007383
      dyz     :     0.012735
      dx2y2   :     0.011404
      dxy     :     0.012759

  8 N s       :     3.585499  s :     3.585499
      pz      :     1.254796  p :     3.795230
      px      :     1.406092
      py      :     1.134342
      dz2     :     0.010921  d :     0.048202
      dxz     :     0.006662
      dyz     :     0.011568
      dx2y2   :     0.009305
      dxy     :     0.009746

  9 C s       :     3.265455  s :     3.265455
      pz      :     0.934810  p :     2.937914
      px      :     1.011994
      py      :     0.991110
      dz2     :     0.008294  d :     0.051714
      dxz     :     0.009184
      dyz     :     0.013914
      dx2y2   :     0.005867
      dxy     :     0.014455

 10 C s       :     3.001815  s :     3.001815
      pz      :     0.810294  p :     2.322218
      px      :     0.777576
      py      :     0.734348
      dz2     :     0.006702  d :     0.098141
      dxz     :     0.007019
      dyz     :     0.022331
      dx2y2   :     0.023901
      dxy     :     0.038187

 11 O s       :     3.905654  s :     3.905654
      pz      :     1.430777  p :     4.487440
      px      :     1.739301
      py      :     1.317362
      dz2     :     0.002672  d :     0.026416
      dxz     :     0.000265
      dyz     :     0.009131
      dx2y2   :     0.007761
      dxy     :     0.006587

 12 N s       :     3.625132  s :     3.625132
      pz      :     1.511450  p :     3.991672
      px      :     1.246762
      py      :     1.233461
      dz2     :     0.004552  d :     0.028270
      dxz     :     0.005376
      dyz     :     0.003816
      dx2y2   :     0.009272
      dxy     :     0.005255

 13 C s       :     3.042856  s :     3.042856
      pz      :     0.928385  p :     2.622740
      px      :     0.823068
      py      :     0.871287
      dz2     :     0.011256  d :     0.072611
      dxz     :     0.015174
      dyz     :     0.009991
      dx2y2   :     0.020093
      dxy     :     0.016098

 14 N s       :     3.698994  s :     3.698994
      pz      :     1.226165  p :     3.698199
      px      :     1.027454
      py      :     1.444579
      dz2     :     0.006663  d :     0.038206
      dxz     :     0.005594
      dyz     :     0.007647
      dx2y2   :     0.006372
      dxy     :     0.011930

 15 C s       :     3.061889  s :     3.061889
      pz      :     0.921916  p :     2.667984
      px      :     0.886876
      py      :     0.859193
      dz2     :     0.009179  d :     0.058984
      dxz     :     0.010026
      dyz     :     0.010190
      dx2y2   :     0.014805
      dxy     :     0.014784

 16 C s       :     3.142269  s :     3.142269
      pz      :     0.878702  p :     2.673475
      px      :     0.916024
      py      :     0.878749
      dz2     :     0.007939  d :     0.040694
      dxz     :     0.008021
      dyz     :     0.007360
      dx2y2   :     0.008821
      dxy     :     0.008554

 17 C s       :     3.192467  s :     3.192467
      pz      :     0.988671  p :     2.955238
      px      :     0.975892
      py      :     0.990675
      dz2     :     0.005553  d :     0.035403
      dxz     :     0.007438
      dyz     :     0.007576
      dx2y2   :     0.007481
      dxy     :     0.007356

 18 C s       :     3.209985  s :     3.209985
      pz      :     0.989984  p :     2.913966
      px      :     0.969315
      py      :     0.954667
      dz2     :     0.004832  d :     0.036287
      dxz     :     0.008748
      dyz     :     0.006817
      dx2y2   :     0.008385
      dxy     :     0.007506

 19 C s       :     3.168561  s :     3.168561
      pz      :     0.980855  p :     2.907290
      px      :     0.945587
      py      :     0.980848
      dz2     :     0.007795  d :     0.036682
      dxz     :     0.006695
      dyz     :     0.006357
      dx2y2   :     0.006855
      dxy     :     0.008980

 20 C s       :     2.797768  s :     2.797768
      pz      :     0.632441  p :     2.145240
      px      :     0.836039
      py      :     0.676760
      dz2     :     0.026890  d :     0.138469
      dxz     :     0.031469
      dyz     :     0.028813
      dx2y2   :     0.026682
      dxy     :     0.024615

 21 F s       :     3.981158  s :     3.981158
      pz      :     1.687253  p :     5.309412
      px      :     1.813963
      py      :     1.808196
      dz2     :     0.003375  d :     0.016262
      dxz     :     0.004310
      dyz     :     0.004219
      dx2y2   :     0.001951
      dxy     :     0.002408

 22 F s       :     3.978867  s :     3.978867
      pz      :     1.635850  p :     5.304137
      px      :     1.764734
      py      :     1.903553
      dz2     :     0.004550  d :     0.016469
      dxz     :     0.006139
      dyz     :     0.002346
      dx2y2   :     0.001848
      dxy     :     0.001586

 23 F s       :     3.978338  s :     3.978338
      pz      :     1.861187  p :     5.304055
      px      :     1.902786
      py      :     1.540083
      dz2     :     0.002110  d :     0.016431
      dxz     :     0.000781
      dyz     :     0.004438
      dx2y2   :     0.005023
      dxy     :     0.004079

 24 C s       :     3.109648  s :     3.109648
      pz      :     0.839252  p :     2.426137
      px      :     0.887983
      py      :     0.698903
      dz2     :     0.013078  d :     0.072767
      dxz     :     0.012036
      dyz     :     0.015313
      dx2y2   :     0.016676
      dxy     :     0.015665

 25 F s       :     3.975294  s :     3.975294
      pz      :     1.801571  p :     5.309511
      px      :     1.879159
      py      :     1.628781
      dz2     :     0.002683  d :     0.017414
      dxz     :     0.001796
      dyz     :     0.005210
      dx2y2   :     0.004111
      dxy     :     0.003613

 26 C s       :     3.231998  s :     3.231998
      pz      :     1.011573  p :     2.992769
      px      :     0.961635
      py      :     1.019561
      dz2     :     0.004962  d :     0.033651
      dxz     :     0.007033
      dyz     :     0.006897
      dx2y2   :     0.007212
      dxy     :     0.007546

 27 C s       :     3.274284  s :     3.274284
      pz      :     1.096983  p :     3.092327
      px      :     0.933224
      py      :     1.062119
      dz2     :     0.003325  d :     0.033929
      dxz     :     0.006367
      dyz     :     0.007605
      dx2y2   :     0.009527
      dxy     :     0.007105

 28 S s       :     5.814387  s :     5.814387
      pz      :     3.338555  p :     9.739664
      px      :     3.169531
      py      :     3.231578
      dz2     :     0.018505  d :     0.109978
      dxz     :     0.018125
      dyz     :     0.021618
      dx2y2   :     0.035550
      dxy     :     0.016180

 29 N s       :     3.615640  s :     3.615640
      pz      :     1.258311  p :     3.851017
      px      :     1.477763
      py      :     1.114943
      dz2     :     0.008959  d :     0.040168
      dxz     :     0.006353
      dyz     :     0.010177
      dx2y2   :     0.007384
      dxy     :     0.007295

 30 C s       :     3.273310  s :     3.273310
      pz      :     1.042956  p :     3.008306
      px      :     1.122947
      py      :     0.842403
      dz2     :     0.002698  d :     0.046268
      dxz     :     0.010745
      dyz     :     0.014267
      dx2y2   :     0.011507
      dxy     :     0.007051

 31 C s       :     2.852143  s :     2.852143
      pz      :     0.758701  p :     2.358761
      px      :     0.833480
      py      :     0.766579
      dz2     :     0.025705  d :     0.122071
      dxz     :     0.016447
      dyz     :     0.041313
      dx2y2   :     0.015881
      dxy     :     0.022725

 32 O s       :     3.883996  s :     3.883996
      pz      :     1.359927  p :     4.605279
      px      :     1.462128
      py      :     1.783224
      dz2     :     0.009419  d :     0.025374
      dxz     :     0.008119
      dyz     :     0.004296
      dx2y2   :     0.002181
      dxy     :     0.001360

 33 H s       :     0.805129  s :     0.805129

 34 H s       :     0.823683  s :     0.823683

 35 H s       :     0.808631  s :     0.808631

 36 H s       :     0.854611  s :     0.854611

 37 H s       :     0.845879  s :     0.845879

 38 H s       :     0.820962  s :     0.820962

 39 H s       :     0.759198  s :     0.759198

 40 H s       :     0.648486  s :     0.648486

 41 H s       :     0.864577  s :     0.864577

 42 H s       :     0.838970  s :     0.838970

 43 H s       :     0.832086  s :     0.832086

 44 H s       :     0.813470  s :     0.813470

 45 H s       :     0.826031  s :     0.826031

 46 H s       :     0.834873  s :     0.834873

 47 H s       :     0.787299  s :     0.787299



                     *******************************
                     * LOEWDIN POPULATION ANALYSIS *
                     *******************************

----------------------
LOEWDIN ATOMIC CHARGES
----------------------
   0 C :   -0.258819
   1 N :   -0.030752
   2 C :    0.099854
   3 O :   -0.304756
   4 C :   -0.069702
   5 C :    0.012737
   6 C :   -0.204708
   7 C :   -0.101415
   8 N :    0.049288
   9 C :   -0.159628
  10 C :    0.140332
  11 O :   -0.224431
  12 N :   -0.200599
  13 C :   -0.078165
  14 N :   -0.186865
  15 C :   -0.009079
  16 C :    0.001863
  17 C :   -0.133708
  18 C :   -0.108048
  19 C :   -0.100653
  20 C :    0.313996
  21 F :   -0.112136
  22 F :   -0.112370
  23 F :   -0.112678
  24 C :    0.134852
  25 F :   -0.093643
  26 C :   -0.142964
  27 C :   -0.342687
  28 S :    0.441178
  29 N :   -0.026755
  30 C :   -0.259551
  31 C :    0.141263
  32 O :   -0.323823
  33 H :    0.152520
  34 H :    0.139387
  35 H :    0.150605
  36 H :    0.142508
  37 H :    0.137665
  38 H :    0.147568
  39 H :    0.182232
  40 H :    0.271943
  41 H :    0.136175
  42 H :    0.148744
  43 H :    0.157999
  44 H :    0.163275
  45 H :    0.135358
  46 H :    0.133969
  47 H :    0.162621

-------------------------------
LOEWDIN REDUCED ORBITAL CHARGES
-------------------------------
  0 C s       :     2.970609  s :     2.970609
      pz      :     1.108785  p :     3.198506
      px      :     1.129991
      py      :     0.959730
      dz2     :     0.005964  d :     0.089704
      dxz     :     0.018726
      dyz     :     0.027683
      dx2y2   :     0.019845
      dxy     :     0.017486

  1 N s       :     3.083309  s :     3.083309
      pz      :     1.260708  p :     3.850256
      px      :     1.426432
      py      :     1.163117
      dz2     :     0.020009  d :     0.097186
      dxz     :     0.015187
      dyz     :     0.027639
      dx2y2   :     0.018542
      dxy     :     0.015810

  2 C s       :     2.819604  s :     2.819604
      pz      :     0.922009  p :     2.820389
      px      :     0.885509
      py      :     1.012870
      dz2     :     0.063058  d :     0.260154
      dxz     :     0.037182
      dyz     :     0.061561
      dx2y2   :     0.050534
      dxy     :     0.047818

  3 O s       :     3.582706  s :     3.582706
      pz      :     1.618759  p :     4.670958
      px      :     1.539420
      py      :     1.512779
      dz2     :     0.006710  d :     0.051092
      dxz     :     0.003017
      dyz     :     0.016607
      dx2y2   :     0.013386
      dxy     :     0.011372

  4 C s       :     2.816434  s :     2.816434
      pz      :     0.992582  p :     3.106141
      px      :     1.069375
      py      :     1.044183
      dz2     :     0.035103  d :     0.147128
      dxz     :     0.025848
      dyz     :     0.037030
      dx2y2   :     0.026696
      dxy     :     0.022451

  5 C s       :     2.817706  s :     2.817706
      pz      :     0.961633  p :     3.010242
      px      :     0.981349
      py      :     1.067260
      dz2     :     0.040745  d :     0.159315
      dxz     :     0.028830
      dyz     :     0.038448
      dx2y2   :     0.024985
      dxy     :     0.026308

  6 C s       :     2.903366  s :     2.903366
      pz      :     1.062655  p :     3.215265
      px      :     1.087601
      py      :     1.065008
      dz2     :     0.018766  d :     0.086077
      dxz     :     0.011443
      dyz     :     0.023880
      dx2y2   :     0.018223
      dxy     :     0.013765

  7 C s       :     2.901355  s :     2.901355
      pz      :     1.074019  p :     3.078499
      px      :     1.061767
      py      :     0.942713
      dz2     :     0.021683  d :     0.121561
      dxz     :     0.013669
      dyz     :     0.030013
      dx2y2   :     0.027309
      dxy     :     0.028886

  8 N s       :     3.043905  s :     3.043905
      pz      :     1.256656  p :     3.788777
      px      :     1.361238
      py      :     1.170883
      dz2     :     0.026571  d :     0.118030
      dxz     :     0.015227
      dyz     :     0.029315
      dx2y2   :     0.023855
      dxy     :     0.023062

  9 C s       :     2.931782  s :     2.931782
      pz      :     1.019501  p :     3.118325
      px      :     1.064822
      py      :     1.034002
      dz2     :     0.017250  d :     0.109521
      dxz     :     0.019205
      dyz     :     0.029558
      dx2y2   :     0.012081
      dxy     :     0.031426

 10 C s       :     2.869982  s :     2.869982
      pz      :     0.848568  p :     2.762468
      px      :     0.933022
      py      :     0.980879
      dz2     :     0.015990  d :     0.227218
      dxz     :     0.014434
      dyz     :     0.047700
      dx2y2   :     0.056491
      dxy     :     0.092603

 11 O s       :     3.592312  s :     3.592312
      pz      :     1.429180  p :     4.580467
      px      :     1.729986
      py      :     1.421301
      dz2     :     0.006556  d :     0.051652
      dxz     :     0.000386
      dyz     :     0.013568
      dx2y2   :     0.019949
      dxy     :     0.011193

 12 N s       :     3.152034  s :     3.152034
      pz      :     1.487857  p :     3.979559
      px      :     1.256615
      py      :     1.235087
      dz2     :     0.009552  d :     0.069006
      dxz     :     0.012786
      dyz     :     0.008533
      dx2y2   :     0.021835
      dxy     :     0.016301

 13 C s       :     2.895414  s :     2.895414
      pz      :     1.003525  p :     3.015039
      px      :     0.974302
      py      :     1.037212
      dz2     :     0.023557  d :     0.167712
      dxz     :     0.032790
      dyz     :     0.023304
      dx2y2   :     0.048063
      dxy     :     0.039997

 14 N s       :     3.245713  s :     3.245713
      pz      :     1.237591  p :     3.857625
      px      :     1.123403
      py      :     1.496631
      dz2     :     0.014004  d :     0.083527
      dxz     :     0.014275
      dyz     :     0.012703
      dx2y2   :     0.013489
      dxy     :     0.029056

 15 C s       :     2.860245  s :     2.860245
      pz      :     0.985846  p :     3.006486
      px      :     0.996487
      py      :     1.024153
      dz2     :     0.019539  d :     0.142348
      dxz     :     0.023508
      dyz     :     0.024706
      dx2y2   :     0.038073
      dxy     :     0.036522

 16 C s       :     2.870934  s :     2.870934
      pz      :     1.011094  p :     3.025169
      px      :     1.003181
      py      :     1.010894
      dz2     :     0.018877  d :     0.102034
      dxz     :     0.019942
      dyz     :     0.019480
      dx2y2   :     0.021753
      dxy     :     0.021983

 17 C s       :     2.912737  s :     2.912737
      pz      :     1.039399  p :     3.138129
      px      :     1.048073
      py      :     1.050657
      dz2     :     0.012807  d :     0.082841
      dxz     :     0.019314
      dyz     :     0.015353
      dx2y2   :     0.017781
      dxy     :     0.017587

 18 C s       :     2.916380  s :     2.916380
      pz      :     1.033358  p :     3.106255
      px      :     1.049643
      py      :     1.023254
      dz2     :     0.011204  d :     0.085413
      dxz     :     0.018669
      dyz     :     0.015041
      dx2y2   :     0.020350
      dxy     :     0.020150

 19 C s       :     2.889536  s :     2.889536
      pz      :     1.049584  p :     3.117599
      px      :     1.015968
      py      :     1.052046
      dz2     :     0.018346  d :     0.093518
      dxz     :     0.017437
      dyz     :     0.017403
      dx2y2   :     0.017443
      dxy     :     0.022888

 20 C s       :     2.849466  s :     2.849466
      pz      :     0.778241  p :     2.506953
      px      :     0.917904
      py      :     0.810807
      dz2     :     0.062878  d :     0.329585
      dxz     :     0.076978
      dyz     :     0.068903
      dx2y2   :     0.063070
      dxy     :     0.057757

 21 F s       :     3.757936  s :     3.757936
      pz      :     1.696663  p :     5.323295
      px      :     1.815840
      py      :     1.810791
      dz2     :     0.005758  d :     0.030905
      dxz     :     0.008819
      dyz     :     0.008321
      dx2y2   :     0.003355
      dxy     :     0.004653

 22 F s       :     3.761340  s :     3.761340
      pz      :     1.649356  p :     5.319815
      px      :     1.769338
      py      :     1.901121
      dz2     :     0.008159  d :     0.031215
      dxz     :     0.013252
      dyz     :     0.003830
      dx2y2   :     0.003406
      dxy     :     0.002569

 23 F s       :     3.761443  s :     3.761443
      pz      :     1.860799  p :     5.320015
      px      :     1.895452
      py      :     1.563765
      dz2     :     0.003914  d :     0.031219
      dxz     :     0.001344
      dyz     :     0.008065
      dx2y2   :     0.010821
      dxy     :     0.007076

 24 C s       :     2.864474  s :     2.864474
      pz      :     0.951827  p :     2.822080
      px      :     1.028472
      py      :     0.841781
      dz2     :     0.030853  d :     0.178594
      dxz     :     0.028987
      dyz     :     0.039132
      dx2y2   :     0.039198
      dxy     :     0.040424

 25 F s       :     3.736463  s :     3.736463
      pz      :     1.804007  p :     5.322417
      px      :     1.878345
      py      :     1.640064
      dz2     :     0.005238  d :     0.034764
      dxz     :     0.003518
      dyz     :     0.010577
      dx2y2   :     0.008202
      dxy     :     0.007228

 26 C s       :     2.920267  s :     2.920267
      pz      :     1.058210  p :     3.143319
      px      :     1.042109
      py      :     1.042999
      dz2     :     0.011114  d :     0.079379
      dxz     :     0.015125
      dyz     :     0.015093
      dx2y2   :     0.017904
      dxy     :     0.020142

 27 C s       :     2.983430  s :     2.983430
      pz      :     1.123538  p :     3.280122
      px      :     1.056072
      py      :     1.100512
      dz2     :     0.006549  d :     0.079136
      dxz     :     0.014176
      dyz     :     0.015641
      dx2y2   :     0.025179
      dxy     :     0.017591

 28 S s       :     5.531441  s :     5.531441
      pz      :     3.347597  p :     9.896446
      px      :     3.243387
      py      :     3.305461
      dz2     :     0.021638  d :     0.130935
      dxz     :     0.021960
      dyz     :     0.025981
      dx2y2   :     0.043365
      dxy     :     0.017990

 29 N s       :     3.058968  s :     3.058968
      pz      :     1.260559  p :     3.864860
      px      :     1.444417
      py      :     1.159884
      dz2     :     0.022419  d :     0.102927
      dxz     :     0.014758
      dyz     :     0.029053
      dx2y2   :     0.018817
      dxy     :     0.017879

 30 C s       :     2.970713  s :     2.970713
      pz      :     1.099626  p :     3.197836
      px      :     1.156443
      py      :     0.941767
      dz2     :     0.005160  d :     0.091003
      dxz     :     0.020055
      dyz     :     0.028912
      dx2y2   :     0.022237
      dxy     :     0.014638

 31 C s       :     2.805380  s :     2.805380
      pz      :     0.950415  p :     2.770099
      px      :     0.892739
      py      :     0.926945
      dz2     :     0.059132  d :     0.283258
      dxz     :     0.038170
      dyz     :     0.097768
      dx2y2   :     0.036380
      dxy     :     0.051809

 32 O s       :     3.585280  s :     3.585280
      pz      :     1.427081  p :     4.688352
      px      :     1.480173
      py      :     1.781098
      dz2     :     0.018660  d :     0.050191
      dxz     :     0.017918
      dyz     :     0.007477
      dx2y2   :     0.003715
      dxy     :     0.002421

 33 H s       :     0.847480  s :     0.847480

 34 H s       :     0.860613  s :     0.860613

 35 H s       :     0.849395  s :     0.849395

 36 H s       :     0.857492  s :     0.857492

 37 H s       :     0.862335  s :     0.862335

 38 H s       :     0.852432  s :     0.852432

 39 H s       :     0.817768  s :     0.817768

 40 H s       :     0.728057  s :     0.728057

 41 H s       :     0.863825  s :     0.863825

 42 H s       :     0.851256  s :     0.851256

 43 H s       :     0.842001  s :     0.842001

 44 H s       :     0.836725  s :     0.836725

 45 H s       :     0.864642  s :     0.864642

 46 H s       :     0.866031  s :     0.866031

 47 H s       :     0.837379  s :     0.837379



                      *****************************
                      * MAYER POPULATION ANALYSIS *
                      *****************************

  NA   - Mulliken gross atomic population
  ZA   - Total nuclear charge
  QA   - Mulliken gross atomic charge
  VA   - Mayer's total valence
  BVA  - Mayer's bonded valence
  FA   - Mayer's free valence

  ATOM       NA         ZA         QA         VA         BVA        FA
  0 C      6.3129     6.0000    -0.3129     3.7748     3.7748    -0.0000
  1 N      7.4888     7.0000    -0.4888     3.0496     3.0496    -0.0000
  2 C      5.4535     6.0000     0.5465     3.8705     3.8705    -0.0000
  3 O      8.5079     8.0000    -0.5079     2.0266     2.0266     0.0000
  4 C      5.7948     6.0000     0.2052     3.7055     3.7055     0.0000
  5 C      5.7126     6.0000     0.2874     3.8558     3.8558     0.0000
  6 C      6.2101     6.0000    -0.2101     3.8875     3.8875     0.0000
  7 C      6.0073     6.0000    -0.0073     3.8267     3.8267     0.0000
  8 N      7.4289     7.0000    -0.4289     3.3295     3.3295    -0.0000
  9 C      6.2551     6.0000    -0.2551     3.7412     3.7412     0.0000
 10 C      5.4222     6.0000     0.5778     3.8368     3.8368    -0.0000
 11 O      8.4195     8.0000    -0.4195     2.0985     2.0985    -0.0000
 12 N      7.6451     7.0000    -0.6451     2.9198     2.9198     0.0000
 13 C      5.7382     6.0000     0.2618     3.8224     3.8224    -0.0000
 14 N      7.4354     7.0000    -0.4354     2.9692     2.9692    -0.0000
 15 C      5.7889     6.0000     0.2111     4.0131     4.0131    -0.0000
 16 C      5.8564     6.0000     0.1436     3.9662     3.9662     0.0000
 17 C      6.1831     6.0000    -0.1831     3.9058     3.9058     0.0000
 18 C      6.1602     6.0000    -0.1602     3.9356     3.9356     0.0000
 19 C      6.1125     6.0000    -0.1125     3.8592     3.8592     0.0000
 20 C      5.0815     6.0000     0.9185     3.9135     3.9135    -0.0000
 21 F      9.3068     9.0000    -0.3068     1.0606     1.0606    -0.0000
 22 F      9.2995     9.0000    -0.2995     1.0548     1.0548    -0.0000
 23 F      9.2988     9.0000    -0.2988     1.0548     1.0548    -0.0000
 24 C      5.6086     6.0000     0.3914     3.8000     3.8000     0.0000
 25 F      9.3022     9.0000    -0.3022     1.0707     1.0707    -0.0000
 26 C      6.2584     6.0000    -0.2584     3.8252     3.8252    -0.0000
 27 C      6.4005     6.0000    -0.4005     3.7658     3.7658    -0.0000
 28 S     15.6640    16.0000     0.3360     2.5708     2.5708    -0.0000
 29 N      7.5068     7.0000    -0.5068     3.0796     3.0796    -0.0000
 30 C      6.3279     6.0000    -0.3279     3.7783     3.7783     0.0000
 31 C      5.3330     6.0000     0.6670     3.9595     3.9595    -0.0000
 32 O      8.5146     8.0000    -0.5146     2.0264     2.0264     0.0000
 33 H      0.8051     1.0000     0.1949     0.9353     0.9353    -0.0000
 34 H      0.8237     1.0000     0.1763     0.9280     0.9280     0.0000
 35 H      0.8086     1.0000     0.1914     0.9351     0.9351     0.0000
 36 H      0.8546     1.0000     0.1454     0.9426     0.9426    -0.0000
 37 H      0.8459     1.0000     0.1541     0.9373     0.9373     0.0000
 38 H      0.8210     1.0000     0.1790     0.9240     0.9240     0.0000
 39 H      0.7592     1.0000     0.2408     0.9291     0.9291     0.0000
 40 H      0.6485     1.0000     0.3515     0.8600     0.8600     0.0000
 41 H      0.8646     1.0000     0.1354     0.9400     0.9400    -0.0000
 42 H      0.8390     1.0000     0.1610     0.9424     0.9424     0.0000
 43 H      0.8321     1.0000     0.1679     0.9445     0.9445    -0.0000
 44 H      0.8135     1.0000     0.1865     0.9358     0.9358    -0.0000
 45 H      0.8260     1.0000     0.1740     0.9252     0.9252     0.0000
 46 H      0.8349     1.0000     0.1651     0.9307     0.9307    -0.0000
 47 H      0.7873     1.0000     0.2127     0.9365     0.9365    -0.0000

  Mayer bond orders larger than 0.100000
B(  0-C ,  1-N ) :   0.9205 B(  0-C , 33-H ) :   0.9238 B(  0-C , 34-H ) :   0.9411 
B(  0-C , 35-H ) :   0.9272 B(  1-N ,  2-C ) :   0.9759 B(  1-N , 31-C ) :   1.0335 
B(  2-C ,  3-O ) :   1.7326 B(  2-C ,  4-C ) :   1.1040 B(  4-C ,  5-C ) :   1.3668 
B(  4-C ,  8-N ) :   1.0382 B(  5-C ,  6-C ) :   1.3572 B(  5-C , 29-N ) :   0.9588 
B(  6-C ,  7-C ) :   1.4810 B(  6-C , 36-H ) :   0.9236 B(  7-C ,  8-N ) :   1.2081 
B(  7-C , 37-H ) :   0.9256 B(  8-N ,  9-C ) :   0.9354 B(  9-C , 10-C ) :   0.9336 
B(  9-C , 38-H ) :   0.9167 B(  9-C , 39-H ) :   0.8967 B( 10-C , 11-O ) :   1.8414 
B( 10-C , 12-N ) :   1.0176 B( 12-N , 13-C ) :   0.9467 B( 12-N , 40-H ) :   0.8053 
B( 13-C , 14-N ) :   1.4799 B( 13-C , 27-C ) :   0.1065 B( 13-C , 28-S ) :   1.1865 
B( 14-N , 15-C ) :   1.2899 B( 15-C , 16-C ) :   1.0575 B( 15-C , 27-C ) :   1.5147 
B( 16-C , 17-C ) :   1.4012 B( 16-C , 26-C ) :   1.3658 B( 17-C , 18-C ) :   1.4337 
B( 17-C , 41-H ) :   0.9195 B( 18-C , 19-C ) :   1.4043 B( 18-C , 42-H ) :   0.9177 
B( 19-C , 20-C ) :   0.9676 B( 19-C , 24-C ) :   1.3219 B( 20-C , 21-F ) :   0.9451 
B( 20-C , 22-F ) :   0.9688 B( 20-C , 23-F ) :   0.9737 B( 24-C , 25-F ) :   0.9476 
B( 24-C , 26-C ) :   1.3605 B( 26-C , 43-H ) :   0.9035 B( 27-C , 28-S ) :   1.1155 
B( 27-C , 44-H ) :   0.9005 B( 29-N , 30-C ) :   0.9447 B( 29-N , 31-C ) :   1.0598 
B( 30-C , 45-H ) :   0.9361 B( 30-C , 46-H ) :   0.9331 B( 30-C , 47-H ) :   0.9219 
B( 31-C , 32-O ) :   1.7872 

-------
TIMINGS
-------

Total SCF time: 0 days 0 hours 5 min 22 sec 

Total time                  ....     322.080 sec
Sum of individual times     ....     321.691 sec  ( 99.9%)

SCF preparation             ....       0.293 sec  (  0.1%)
Fock matrix formation       ....     319.315 sec  ( 99.1%)
  Startup                   ....       0.119 sec  (  0.0% of F)
  Split-RI-J                ....      43.719 sec  ( 13.7% of F)
  Chain of spheres X        ....     244.632 sec  ( 76.6% of F)
  XC integration            ....      29.595 sec  (  9.3% of F)
    XC Preparation          ....       0.000 sec  (  0.0% of XC)
    Basis function eval.    ....      11.157 sec  ( 37.7% of XC)
    Density eval.           ....       6.620 sec  ( 22.4% of XC)
    XC-Functional eval.     ....       1.412 sec  (  4.8% of XC)
    XC-Potential eval.      ....       8.244 sec  ( 27.9% of XC)
Diagonalization             ....       0.000 sec  (  0.0%)
Density matrix formation    ....       0.352 sec  (  0.1%)
Total Energy calculation    ....       0.081 sec  (  0.0%)
Population analysis         ....       0.062 sec  (  0.0%)
Orbital Transformation      ....       0.162 sec  (  0.1%)
Orbital Orthonormalization  ....       0.000 sec  (  0.0%)
DIIS solution               ....       0.861 sec  (  0.3%)
SOSCF solution              ....       0.565 sec  (  0.2%)
Finished LeanSCF after 322.2 sec

Maximum memory used throughout the entire LEANSCF-calculation: 77.0 MB

-------------------------   --------------------
FINAL SINGLE POINT ENERGY     -2067.202797105219
-------------------------   --------------------


------------------------------------------------------------------------------
                              ORCA PROPERTY CALCULATIONS
------------------------------------------------------------------------------

GBWName                                 ... /home/nmrbox/aojoawo/Documents/ERDOS/inputs/CHEMBL3937790.gbw
Number of atoms                         ...     48
Number of basis functions               ...    496
Max core memory                         ...   1024 MB

Electric properties:
Dipole moment                           ... YES
Quadrupole moment                       ...  NO
Static polarizability (Dipole/Dipole)   ...  NO
Static polarizability (Dipole/Quad.)    ...  NO
Static polarizability (Quad./Quad.)     ...  NO
Static polarizability (Velocity)        ...  NO

Atomic electric properties:
Dipole moment                           ...  NO
Quadrupole moment                       ...  NO
Static polarizability                   ...  NO

Choice of electric origin               ... Center of mass
Position of electric origin             ...     1.701153    -0.081722    -0.038849

General magnetic properties:
Magnetizability                         ...  NO

EPR properties:
g-Tensor (aka g-matrix)                 ...  NO
Zero-Field splitting spin-orbit         ...  NO
Zero-field splitting spin-spin          ...  NO
Hyperfine couplings                     ...  NO (   0 nuclei)
Quadrupole couplings                    ...  NO (   0 nuclei)
Contact density                         ...  NO (   0 nuclei)

NMR properties:
Chemical shifts                         ...  NO (   0 nuclei)
Spin-rotation constants                 ...  NO (   0 nuclei)
Spin-spin couplings                     ...  NO (   0 nuclei,    0 pairs)

Choice of magnetic origin               ... GIAO
Position of magnetic origin             ...     0.000000     0.000000     0.000000

Properties with geometric perturbations:
SCF Hessian                             ...  NO
IR spectrum                             ...  NO
VCD spectrum                            ...  NO
X-ray spectroscopy properties:
SCF XES/XAS/RIXS spectra                ...  NO


-------------
DIPOLE MOMENT
-------------

Method             : SCF
Type of density    : Electron Density
Multiplicity       :   1
Irrep              :   0
Energy             : -2067.2027971052189059 Eh
Relativity type    : 
Basis              : AO
                                X                 Y                 Z
Electronic contribution:     59.621164778       7.505128562       1.387104118
Nuclear contribution   :    -60.622677680      -6.564448750      -2.261560425
                        -----------------------------------------
Total Dipole Moment    :     -1.001512901       0.940679812      -0.874456307
                        -----------------------------------------
Magnitude (a.u.)       :      1.628674440
Magnitude (Debye)      :      4.139761435



--------------------
Rotational spectrum 
--------------------
 
Rotational constants in cm-1:             0.007857             0.001340             0.001291 
Rotational constants in MHz :           235.538089            40.178506            38.708757 

Dipole components along the rotational axes: 
x,y,z [a.u.] :    -0.951237    -0.521660    -1.214743 
x,y,z [Debye]:    -2.417852    -1.325954    -3.087630 

 

Dipole moment calculation done in   0.0 sec 

Maximum memory used throughout the entire PROP-calculation: 37.8 MB

--------------------------------
SUGGESTED CITATIONS FOR THIS RUN
--------------------------------

Below you find a list of papers that are relevant to this ORCA run
We neither can nor want to force you to cite these papers, but we appreciate if you do
You receive ORCA, which is the product of decades of hard work by many enthusiastic individuals, for free
The only thing we kindly ask in return is that you cite our papers,
We deeply appreciate it, if you show your appreciation for ORCA by not just citing the generic ORCA reference.

Please note that relegating all ORCA citations to the supporting information does *not* help us.
SI sections are not indexed - citations you put there will not count into any citation statistics
But we need these citations in order to attract the funding resources that allow us to do what we are doing

Therefore, if you are a happy ORCA user, please consider citing a few of the papers listed below in the main body of your paper

In addition to the list printed below, the program has created the file /home/nmrbox/aojoawo/Documents/ERDOS/inputs/CHEMBL3937790.bibtex that contains the list in bibtex format
You can import this file easily into all common literature databanks and citation aid programs


List of essential papers. We consider these as the minimum necessary citations

  1. Neese,F.
     Software update: the ORCA program system, version 5.0
     WIRES Comput. Molec. Sci., 2022 12(1)e1606
     doi.org/10.1002/wcms.1606

List of papers to cite with high priority. The work reported in these papers was absolutely
necessary for this run to complete.
Our perspective: the developers of density functionals and basis sets usually get cited in chemistry papers
Good! But without the algorithms to do something with them, the functionals or basis sets would not do anything.
Hence, in our opinion, the algorithm design and method developments papers are equally worthy of getting cited

  1. Neese,F.
     An improvement of the resolution of the identity approximation for the formation of the Coulomb matrix
     J. Comp. Chem., 2003 24(14)1740-1747
     doi.org/10.1002/jcc.10318
  2. Neese,F.; Wennmohs,F.; Hansen,A.; Becker,U.
     Efficient, approximate and parallel Hartree-Fock and hybrid DFT calculations. A 'chain-of-spheres' algorithm for the Hartree-Fock exchange
     Chem. Phys., 2009 356(1-3)98-109
     doi.org/10.1016/j.chemphys.2008.10.036
  3. Helmich-Paris,B.; de Souza,B.; Neese,F.; Izsák,R.
     An improved chain of spheres for exchange algorithm
     J. Chem. Phys., 2021 155 104109
     doi.org/doi: 10.1063/5.0058766.
  4. Neese,F.
     The SHARK Integral Generation and Digestion System
     J. Comp. Chem., 2022  1-16
     doi.org/10.1002/jcc.26942

List of suggested additional citations. These are papers that are important in the 'surrounding' of 
of this run, or papers that preceded the highly important papers. If you like your results we are grateful for a citation.

  1. Izsak,R.; Neese,F.
     An overlap fitted chain of spheres exchange method
     J. Chem. Phys., 2011 135 144105
     doi.org/10.1063/1.3646921
  2. Izsak,R.; Hansen,A.; Neese,F.
     The resolution of identity and chain of spheres approximations for the LPNO-CCSD singles Fock term
     Molec. Phys., 2012 110 2413-2417
     doi.org/10.1080/00268976.2012.687466
  3. Neese,F.
     The ORCA program system
     WIRES Comput. Molec. Sci., 2012 2(1)73-78
     doi.org/10.1002/wcms.81
  4. Izsak,R.; Neese,F.; Klopper,W.
     Robust fitting techniques in the chain of spheres approximation to the Fock exchange: The role of the complementary space
     J. Chem. Phys., 2013 139 
     doi.org/10.1063/1.4819264
  5. Neese,F.
     Software update: the ORCA program system, version 4.0
     WIRES Comput. Molec. Sci., 2018 8(1)1-6
     doi.org/10.1002/wcms.1327
  6. Neese,F.; Wennmohs,F.; Becker,U.; Riplinger,C.
     The ORCA quantum chemistry program package
     J. Chem. Phys., 2020 152 Art. No. L224108
     doi.org/10.1063/5.0004608

List of optional additional citations

  1. Neese,F.
     Approximate second-order SCF convergence for spin unrestricted wavefunctions
     Chem. Phys. Lett., 2000 325(1-3)93-98
     doi.org/10.1016/s0009-2614(00)00662-x

Timings for individual modules:

Sum of individual times          ...      335.328 sec (=   5.589 min)
Startup calculation              ...        8.911 sec (=   0.149 min)   2.7 %
SCF iterations                   ...      326.256 sec (=   5.438 min)  97.3 %
Property calculations            ...        0.161 sec (=   0.003 min)   0.0 %
                             ****ORCA TERMINATED NORMALLY****
TOTAL RUN TIME: 0 days 0 hours 5 minutes 36 seconds 363 msec
