
                                 *****************
                                 * O   R   C   A *
                                 *****************

                                            #,                                       
                                            ###                                      
                                            ####                                     
                                            #####                                    
                                            ######                                   
                                           ########,                                 
                                     ,,################,,,,,                         
                               ,,#################################,,                 
                          ,,##########################################,,             
                       ,#########################################, ''#####,          
                    ,#############################################,,   '####,        
                  ,##################################################,,,,####,       
                ,###########''''           ''''###############################       
              ,#####''   ,,,,##########,,,,          '''####'''          '####       
            ,##' ,,,,###########################,,,                        '##       
           ' ,,###''''                  '''############,,,                           
         ,,##''                                '''############,,,,        ,,,,,,###''
      ,#''                                            '''#######################'''  
     '                                                          ''''####''''         
             ,#######,   #######,   ,#######,      ##                                
            ,#'     '#,  ##    ##  ,#'     '#,    #''#        ,####,   ,####,        
            ##       ##  ##   ,#'  ##            #'  '#       #'       #'  '#        
            ##       ##  #######   ##           ,######,      #####,   #    #        
            '#,     ,#'  ##    ##  '#,     ,#' ,#      #,     #,   #   #,  ,#        
             '#######'   ##     ##  '#######'  #'      '#     '####' # '####'        



                #########################################################
                #                        -***-                          #
                #          Department of theory and spectroscopy        #
                #                                                       #
                #                      Frank Neese                      #
                #                                                       #
                #     Directorship, Architecture, Infrastructure        #
                #                    SHARK, DRIVERS                     #
                #        Core code/Algorithms in most modules           #
                #                                                       #
                #        Max Planck Institute fuer Kohlenforschung      #
                #                Kaiser Wilhelm Platz 1                 #
                #                 D-45470 Muelheim/Ruhr                 #
                #                      Germany                          #
                #                                                       #
                #                  All rights reserved                  #
                #                        -***-                          #
                #########################################################


                         Program Version 6.0.0  -   RELEASE  -


 With contributions from (in alphabetic order):
   Daniel Aravena         : Magnetic Suceptibility
   Michael Atanasov       : Ab Initio Ligand Field Theory (pilot matlab implementation)
   Alexander A. Auer      : GIAO ZORA, VPT2 properties, NMR spectrum
   Ute Becker             : All parallelization in ORCA, NUMFREQ, NUMCALC
   Giovanni Bistoni       : ED, misc. LED, open-shell LED, HFLD
   Martin Brehm           : Molecular dynamics
   Dmytro Bykov           : pre 5.0 version of the SCF Hessian
   Marcos Casanova-Páez   : Triplet and SCS-CIS(D). UHF-(DLPNO)-IP/EA/STEOM-CCSD. UHF-CVS-IP/STEOM-CCSD
   Vijay G. Chilkuri      : MRCI spin determinant printing, contributions to CSF-ICE
   Pauline Colinet        : FMM embedding
   Dipayan Datta          : RHF DLPNO-CCSD density
   Achintya Kumar Dutta   : EOM-CC, STEOM-CC
   Nicolas Foglia         : Exact transition moments, OPA infrastructure, MCD improvements
   Dmitry Ganyushin       : Spin-Orbit,Spin-Spin,Magnetic field MRCI
   Miquel Garcia          : C-PCM and meta-GGA Hessian, CCSD/C-PCM, Gaussian charge scheme
   Tiago L. C. Gouveia    : GS-ROHF, GS-ROCIS
   Yang Guo               : DLPNO-NEVPT2, F12-NEVPT2, CIM, IAO-localization
   Andreas Hansen         : Spin unrestricted coupled pair/coupled cluster methods
   Ingolf Harden          : AUTO-CI MPn and infrastructure 
   Benjamin Helmich-Paris : MC-RPA, TRAH-(SCF,CASSCF), AVAS, COSX integrals, SCF dyn. polar.
   Lee Huntington         : MR-EOM, pCC
   Robert Izsak           : Overlap fitted RIJCOSX, COSX-SCS-MP3, EOM
   Riya Kayal             : Wick's Theorem for AUTO-CI, AUTO-CI UHF-CCSDT
   Emily Kempfer          : AUTO-CI, RHF CISDT and CCSDT
   Christian Kollmar      : KDIIS, OOCD, Brueckner-CCSD(T), CCSD density, CASPT2, CASPT2-K, improved NEVPT2
   Axel Koslowski         : Symmetry handling
   Simone Kossmann        : Meta GGA functionals, TD-DFT gradient, OOMP2, (MP2 Hessian; deprecated post 5.0)
   Lucas Lang             : DCDCAS
   Marvin Lechner         : AUTO-CI (C++ implementation), FIC-MRCC
   Spencer Leger          : CASSCF response
   Dagmar Lenk            : GEPOL surface, SMD, ORCA-2-JSON
   Dimitrios Liakos       : Extrapolation schemes; Compound Job, initial MDCI parallelization
   Dimitrios Manganas     : Further ROCIS development; embedding schemes. LFT, Crystal Embedding
   Dimitrios Pantazis     : SARC Basis sets
   Anastasios Papadopoulos: AUTO-CI, single reference methods and gradients
   Taras Petrenko         : pre 6.0 DFT Hessian and TD-DFT gradient, (ASA, deprecated), ECA, 1-Electron XAS/XES, NRVS
   Peter Pinski           : DLPNO-MP2, DLPNO-MP2 Gradient
   Christoph Reimann      : Effective Core Potentials
   Marius Retegan         : Local ZFS, SOC
   Christoph Riplinger    : Optimizer, TS searches, QM/MM, DLPNO-CCSD(T), (RO)-DLPNO pert. Triples
   Michael Roemelt        : Original ROCIS implementation
   Masaaki Saitow         : Open-shell DLPNO-CCSD energy and density
   Barbara Sandhoefer     : DKH picture change effects
   Kantharuban Sivalingam : CASSCF convergence/infrastructure, NEVPT2 and variants, FIC-MRCI
   Bernardo de Souza      : ESD, SOC TD-DFT
   Georgi Stoychev        : AutoAux, RI-MP2 NMR, DLPNO-MP2 response, X2C
   Van Anh Tran           : RI-MP2 g-tensors
   Willem Van den Heuvel  : Paramagnetic NMR
   Zikuan Wang            : NOTCH, Electric field optimization 
   Frank Wennmohs         : Technical directorship and infrastructure
   Hang Xu                : AUTO-CI-Response properties 


 We gratefully acknowledge several colleagues who have allowed us to
 interface, adapt or use parts of their codes:
   Stefan Grimme, W. Hujo, H. Kruse, P. Pracht,  : VdW corrections, initial TS optimization,
                  C. Bannwarth, S. Ehlert,         DFT functionals, gCP, sTDA/sTD-DF
                  L. Wittmann, M. Mueller
   Ed Valeev, F. Pavosevic, A. Kumar             : LibInt (2-el integral package), F12 methods
   Garnet Chan, S. Sharma, J. Yang, R. Olivares  : DMRG
   Ulf Ekstrom                                   : XCFun DFT Library
   Mihaly Kallay                                 : mrcc  (arbitrary order and MRCC methods)
   Frank Weinhold                                : gennbo (NPA and NBO analysis)
   Simon Mueller                                 : openCOSMO-RS
   Christopher J. Cramer and Donald G. Truhlar   : smd solvation model
   Lars Goerigk                                  : TD-DFT with DH, B97 family of functionals
   V. Asgeirsson, H. Jonsson                     : NEB implementation
   FAccTs GmbH                                   : IRC, NEB, NEB-TS, DLPNO-Multilevel, CI-OPT
                                                   MM, QMMM, 2- and 3-layer-ONIOM, Crystal-QMMM,
                                                   LR-CPCM, SF, NACMEs, symmetry and pop. for TD-DFT,
                                                   nearIR, NL-DFT gradient (VV10), updates on ESD,
                                                   ML-optimized integration grids, MBIS, APM,
                                                   GOAT, DOCKER, SOLVATOR, interface openCOSMO-RS
   S Lehtola, MJT Oliveira, MAL Marques          : LibXC Library
   Liviu Ungur et al                             : ANISO software


 Your calculation uses the libint2 library for the computation of 2-el integrals
 For citations please refer to: http://libint.valeyev.net

 Your ORCA version has been built with support for libXC version: 6.2.2
 For citations please refer to: https://libxc.gitlab.io

 This ORCA versions uses:
   CBLAS   interface :  Fast vector & matrix operations
   LAPACKE interface :  Fast linear algebra routines
   SCALAPACK package :  Parallel linear algebra routines
   Shared memory     :  Shared parallel matrices
   BLAS/LAPACK       :  OpenBLAS 0.3.27  USE64BITINT DYNAMIC_ARCH NO_AFFINITY SkylakeX SINGLE_THREADED
        Core in use  :  SkylakeX
   Copyright (c) 2011-2014, The OpenBLAS Project


Warning: RI is on but no J-basis has been assigned. Assigning Def2/J (nothing to worry about!)
================================================================================

----- Orbital basis set information -----
Your calculation utilizes the basis: 6-31G*
   H-He, Li-Ne : W. J. Hehre, R. Ditchfield and J.A. Pople, J. Chem. Phys. 56, 2257 (1972).
                 Note: He and Ne are unpublished basis sets taken from the Gaussian program.
                 Note: Li and B from J. D. Dill and J. A. Pople, J. Chem. Phys. 62, 2921 (1975).
   Na - Ar     : M. M. Francl, W. J. Pietro, W. J. Hehre, J. S. Binkley, M. S. Gordon, 
                 D. J. DeFrees and J. A. Pople, J. Chem. Phys. 77, 3654 (1982).
   K - Zn      : V. A. Rassolov, J. A. Pople, M. A. Ratner, and T. L. Windus, J. Chem. Phys. 109, 1223 (1998).

----- AuxJ basis set information -----
Your calculation utilizes the auxiliary basis: def2/J
   F. Weigend, Phys. Chem. Chem. Phys. 8, 1057 (2006).

================================================================================
                                        WARNINGS
                       Please study these warnings very carefully!
================================================================================


================================================================================
                                       INPUT FILE
================================================================================
NAME = /home/nmrbox/aojoawo/Documents/ERDOS/inputs/CHEMBL4247847.inp
|  1> ! B3LYP 6-31G* SP
|  2> 
|  3> * xyz 0 1
|  4> C -5.3585 -0.0097 -1.1990
|  5> C -4.4831 -0.1251 0.0536
|  6> N -3.0915 -0.3677 -0.3388
|  7> C -1.9760 0.2172 0.3481
|  8> O -2.1677 1.0297 1.2940
|  9> N -0.6404 -0.1256 -0.0470
| 10> C 0.5435 0.4954 0.5592
| 11> C 1.7364 -0.4563 0.5666
| 12> C 1.5414 -1.8479 0.6656
| 13> C 2.6313 -2.7200 0.7331
| 14> C 3.9441 -2.2237 0.7170
| 15> C 5.1175 -3.1627 0.8401
| 16> F 4.8309 -4.3823 0.2515
| 17> F 5.4015 -3.3636 2.1779
| 18> F 6.2341 -2.6333 0.2163
| 19> C 4.1440 -0.8347 0.6957
| 20> C 3.0549 0.0383 0.6287
| 21> C 0.8307 1.7943 -0.1602
| 22> N 0.7466 2.9660 0.5302
| 23> C 0.9856 4.1686 -0.0573
| 24> C 1.3276 4.2308 -1.4091
| 25> C 1.4197 3.0488 -2.1448
| 26> C 1.1704 1.8218 -1.5263
| 27> F 1.2687 0.6764 -2.2472
| 28> C -4.9702 -1.2497 0.9799
| 29> F -4.1738 -1.3015 2.1099
| 30> F -4.9080 -2.4718 0.3326
| 31> F -6.2758 -1.0118 1.3722
| 32> H -5.3431 -0.9564 -1.7804
| 33> H -6.4072 0.2255 -0.9189
| 34> H -4.9801 0.8100 -1.8463
| 35> H -4.5616 0.8402 0.6009
| 36> H -2.8973 -1.0953 -1.0640
| 37> H -0.5193 -0.7190 -0.8993
| 38> H 0.3278 0.7189 1.6276
| 39> H 0.5443 -2.2673 0.7026
| 40> H 2.4464 -3.7842 0.8095
| 41> H 5.1440 -0.4218 0.7420
| 42> H 3.2484 1.1033 0.6332
| 43> H 0.9094 5.0766 0.5256
| 44> H 1.5192 5.1855 -1.8814
| 45> H 1.6850 3.0844 -3.1936
| 46> *
| 47> 
| 48>                          ****END OF INPUT****
================================================================================

                       ****************************
                       * Single Point Calculation *
                       ****************************

---------------------------------
CARTESIAN COORDINATES (ANGSTROEM)
---------------------------------
  C     -5.358500   -0.009700   -1.199000
  C     -4.483100   -0.125100    0.053600
  N     -3.091500   -0.367700   -0.338800
  C     -1.976000    0.217200    0.348100
  O     -2.167700    1.029700    1.294000
  N     -0.640400   -0.125600   -0.047000
  C      0.543500    0.495400    0.559200
  C      1.736400   -0.456300    0.566600
  C      1.541400   -1.847900    0.665600
  C      2.631300   -2.720000    0.733100
  C      3.944100   -2.223700    0.717000
  C      5.117500   -3.162700    0.840100
  F      4.830900   -4.382300    0.251500
  F      5.401500   -3.363600    2.177900
  F      6.234100   -2.633300    0.216300
  C      4.144000   -0.834700    0.695700
  C      3.054900    0.038300    0.628700
  C      0.830700    1.794300   -0.160200
  N      0.746600    2.966000    0.530200
  C      0.985600    4.168600   -0.057300
  C      1.327600    4.230800   -1.409100
  C      1.419700    3.048800   -2.144800
  C      1.170400    1.821800   -1.526300
  F      1.268700    0.676400   -2.247200
  C     -4.970200   -1.249700    0.979900
  F     -4.173800   -1.301500    2.109900
  F     -4.908000   -2.471800    0.332600
  F     -6.275800   -1.011800    1.372200
  H     -5.343100   -0.956400   -1.780400
  H     -6.407200    0.225500   -0.918900
  H     -4.980100    0.810000   -1.846300
  H     -4.561600    0.840200    0.600900
  H     -2.897300   -1.095300   -1.064000
  H     -0.519300   -0.719000   -0.899300
  H      0.327800    0.718900    1.627600
  H      0.544300   -2.267300    0.702600
  H      2.446400   -3.784200    0.809500
  H      5.144000   -0.421800    0.742000
  H      3.248400    1.103300    0.633200
  H      0.909400    5.076600    0.525600
  H      1.519200    5.185500   -1.881400
  H      1.685000    3.084400   -3.193600

----------------------------
CARTESIAN COORDINATES (A.U.)
----------------------------
  NO LB      ZA    FRAG     MASS         X           Y           Z
   0 C     6.0000    0    12.011  -10.126097   -0.018330   -2.265782
   1 C     6.0000    0    12.011   -8.471831   -0.236405    0.101289
   2 N     7.0000    0    14.007   -5.842088   -0.694852   -0.640239
   3 C     6.0000    0    12.011   -3.734099    0.410449    0.657814
   4 O     8.0000    0    15.999   -4.096359    1.945851    2.445306
   5 N     7.0000    0    14.007   -1.210181   -0.237350   -0.088817
   6 C     6.0000    0    12.011    1.027066    0.936170    1.056735
   7 C     6.0000    0    12.011    3.281320   -0.862282    1.070719
   8 C     6.0000    0    12.011    2.912824   -3.492025    1.257802
   9 C     6.0000    0    12.011    4.972436   -5.140055    1.385358
  10 C     6.0000    0    12.011    7.453269   -4.202184    1.354934
  11 C     6.0000    0    12.011    9.670673   -5.976637    1.587559
  12 F     9.0000    0    18.998    9.129078   -8.281347    0.475266
  13 F     9.0000    0    18.998   10.207356   -6.356283    4.115635
  14 F     9.0000    0    18.998   11.780742   -4.976216    0.408748
  15 C     6.0000    0    12.011    7.831025   -1.577354    1.314682
  16 C     6.0000    0    12.011    5.772924    0.072377    1.188071
  17 C     6.0000    0    12.011    1.569795    3.390736   -0.302734
  18 N     7.0000    0    14.007    1.410870    5.604928    1.001933
  19 C     6.0000    0    12.011    1.862514    7.877512   -0.108281
  20 C     6.0000    0    12.011    2.508800    7.995053   -2.662813
  21 C     6.0000    0    12.011    2.682844    5.761397   -4.053085
  22 C     6.0000    0    12.011    2.211735    3.442703   -2.884289
  23 F     9.0000    0    18.998    2.397496    1.278211   -4.246593
  24 C     6.0000    0    12.011   -9.392317   -2.361591    1.851743
  25 F     9.0000    0    18.998   -7.887339   -2.459479    3.987133
  26 F     9.0000    0    18.998   -9.274776   -4.671025    0.628523
  27 F     9.0000    0    18.998  -11.859543   -1.912025    2.593082
  28 H     1.0000    0     1.008  -10.096996   -1.807334   -3.364468
  29 H     1.0000    0     1.008  -12.107853    0.426133   -1.736469
  30 H     1.0000    0     1.008   -9.411025    1.530678   -3.489001
  31 H     1.0000    0     1.008   -8.620175    1.587748    1.135536
  32 H     1.0000    0     1.008   -5.475104   -2.069817   -2.010669
  33 H     1.0000    0     1.008   -0.981335   -1.358713   -1.699431
  34 H     1.0000    0     1.008    0.619452    1.358524    3.075718
  35 H     1.0000    0     1.008    1.028578   -4.284576    1.327722
  36 H     1.0000    0     1.008    4.623026   -7.151102    1.529733
  37 H     1.0000    0     1.008    9.720751   -0.797086    1.402177
  38 H     1.0000    0     1.008    6.138586    2.084935    1.196575
  39 H     1.0000    0     1.008    1.718517    9.593384    0.993240
  40 H     1.0000    0     1.008    2.870872    9.799175   -3.555331
  41 H     1.0000    0     1.008    3.184189    5.828671   -6.035029

--------------------------------
INTERNAL COORDINATES (ANGSTROEM)
--------------------------------
 C      0   0   0     0.000000000000     0.00000000     0.00000000
 C      1   0   0     1.532530286813     0.00000000     0.00000000
 N      2   1   0     1.466077446795   109.62672353     0.00000000
 C      3   2   1     1.434670648616   122.84855547   141.88510733
 O      4   3   2     1.261598965599   120.22465528   356.47386263
 N      4   3   2     1.434379032892   119.64804155   176.53347863
 C      6   4   3     1.467902806728   122.42029252   176.29427700
 C      7   6   4     1.526039992923   111.63099636   149.76400583
 C      8   7   6     1.408679012408   120.54478118   329.23059222
 C      9   8   7     1.397496572447   120.79140892   182.88311172
 C     10   9   8     1.403572848127   120.54680211     0.64342809
 C     11  10   9     1.507893288665   120.44529527   177.78160673
 F     12  11  10     1.384201459326   110.66093727    32.66028929
 F     12  11  10     1.382290002134   109.23208156   272.62172777
 F     12  11  10     1.384263833234   110.65617241   152.58895370
 C     11  10   9     1.403472372368   118.90419022     2.97339108
 C     16  11  10     1.397410752070   120.53102452   357.05161523
 C      7   6   4     1.512336407682   108.66686370   274.94955468
 N     18   7   6     1.362573249407   119.06556072   116.36685864
 C     19  18   7     1.359604357892   122.06088811   180.32549158
 C     20  19  18     1.395777947956   120.06519162     0.09318565
 C     21  20  19     1.395299573568   119.28012659     0.02586049
 C     22  21  20     1.396503397776   119.93390541     0.00000000
 F     23  22  21     1.356945415262   119.56570341   180.33161991
 C      2   1   3     1.536236720040   111.52067293   237.99241603
 F     25   2   1     1.383414688371   109.71816508   181.31846121
 F     25   2   1     1.384339026395   110.49153419    61.30152253
 F     25   2   1     1.383866706009   110.13446123   300.73812942
 H      1   2   3     1.111082359684   110.83120159    61.97319157
 H      1   2   3     1.110651493494   110.43641622   182.86538790
 H      1   2   3     1.110896907908   109.70897262   302.04299251
 H      2   1   3     1.112431404627   107.24574400   119.41749100
 H      3   2   1     1.045480961089   118.49851040   313.39585860
 H      6   4   3     1.045563991346   117.90569157     6.47400895
 H      7   6   4     1.112635295144   108.97622881    33.27894386
 H      9   8   7     1.082346418666   120.84523427     2.18271364
 H     10   9   8     1.082841913670   118.91676483   179.94858765
 H     16  11  10     1.082880464317   120.54721123   176.36928985
 H     17  16  11     1.082445148726   118.36830010   178.85497660
 H     20  19  18     1.081685189877   119.81857010   180.05848127
 H     21  20  19     1.082233773267   120.35477250   180.02336188
 H     22  21  20     1.082419923135   119.94775646   180.05536709

---------------------------
INTERNAL COORDINATES (A.U.)
---------------------------
 C      0   0   0     0.000000000000     0.00000000     0.00000000
 C      1   0   0     2.896062534017     0.00000000     0.00000000
 N      2   1   0     2.770484865560   109.62672353     0.00000000
 C      3   2   1     2.711134618259   122.84855547   141.88510733
 O      4   3   2     2.384076535820   120.22465528   356.47386263
 N      4   3   2     2.710583544405   119.64804155   176.53347863
 C      6   4   3     2.773934295930   122.42029252   176.29427700
 C      7   6   4     2.883797656035   111.63099636   149.76400583
 C      8   7   6     2.662017544055   120.54478118   329.23059222
 C      9   8   7     2.640885795018   120.79140892   182.88311172
 C     10   9   8     2.652368291968   120.54680211     0.64342809
 C     11  10   9     2.849505354754   120.44529527   177.78160673
 F     12  11  10     2.615761672300   110.66093727    32.66028929
 F     12  11  10     2.612149541691   109.23208156   272.62172777
 F     12  11  10     2.615879541905   110.65617241   152.58895370
 C     11  10   9     2.652178420300   118.90419022     2.97339108
 C     16  11  10     2.640723618009   120.53102452   357.05161523
 C      7   6   4     2.857901632877   108.66686370   274.94955468
 N     18   7   6     2.574890278787   119.06556072   116.36685864
 C     19  18   7     2.569279886902   122.06088811   180.32549158
 C     20  19  18     2.637638065403   120.06519162     0.09318565
 C     21  20  19     2.636734068821   119.28012659     0.02586049
 C     22  21  20     2.639008966887   119.93390541     0.00000000
 F     23  22  21     2.564255213525   119.56570341   180.33161991
 C      2   1   3     2.903066677750   111.52067293   237.99241603
 F     25   2   1     2.614274890665   109.71816508   181.31846121
 F     25   2   1     2.616021636386   110.49153419    61.30152253
 F     25   2   1     2.615129080209   110.13446123   300.73812942
 H      1   2   3     2.099641372033   110.83120159    61.97319157
 H      1   2   3     2.098827152934   110.43641622   182.86538790
 H      1   2   3     2.099290918966   109.70897262   302.04299251
 H      2   1   3     2.102190697518   107.24574400   119.41749100
 H      3   2   1     1.975672694687   118.49851040   313.39585860
 H      6   4   3     1.975829599134   117.90569157     6.47400895
 H      7   6   4     2.102575994757   108.97622881    33.27894386
 H      9   8   7     2.045338313310   120.84523427     2.18271364
 H     10   9   8     2.046274663167   118.91676483   179.94858765
 H     16  11  10     2.046347513333   120.54721123   176.36928985
 H     17  16  11     2.045524886083   118.36830010   178.85497660
 H     20  19  18     2.044088771987   119.81857010   180.05848127
 H     21  20  19     2.045125444355   120.35477250   180.02336188
 H     22  21  20     2.045477216626   119.94775646   180.05536709

---------------------
BASIS SET INFORMATION
---------------------
There are 5 groups of distinct atoms

 Group   1 Type C   : 10s4p1d contracted to 3s2p1d pattern {631/31/1}
 Group   2 Type N   : 10s4p1d contracted to 3s2p1d pattern {631/31/1}
 Group   3 Type O   : 10s4p1d contracted to 3s2p1d pattern {631/31/1}
 Group   4 Type F   : 10s4p1d contracted to 3s2p1d pattern {631/31/1}
 Group   5 Type H   : 4s contracted to 2s pattern {31}

Atom   0C    basis set group =>   1
Atom   1C    basis set group =>   1
Atom   2N    basis set group =>   2
Atom   3C    basis set group =>   1
Atom   4O    basis set group =>   3
Atom   5N    basis set group =>   2
Atom   6C    basis set group =>   1
Atom   7C    basis set group =>   1
Atom   8C    basis set group =>   1
Atom   9C    basis set group =>   1
Atom  10C    basis set group =>   1
Atom  11C    basis set group =>   1
Atom  12F    basis set group =>   4
Atom  13F    basis set group =>   4
Atom  14F    basis set group =>   4
Atom  15C    basis set group =>   1
Atom  16C    basis set group =>   1
Atom  17C    basis set group =>   1
Atom  18N    basis set group =>   2
Atom  19C    basis set group =>   1
Atom  20C    basis set group =>   1
Atom  21C    basis set group =>   1
Atom  22C    basis set group =>   1
Atom  23F    basis set group =>   4
Atom  24C    basis set group =>   1
Atom  25F    basis set group =>   4
Atom  26F    basis set group =>   4
Atom  27F    basis set group =>   4
Atom  28H    basis set group =>   5
Atom  29H    basis set group =>   5
Atom  30H    basis set group =>   5
Atom  31H    basis set group =>   5
Atom  32H    basis set group =>   5
Atom  33H    basis set group =>   5
Atom  34H    basis set group =>   5
Atom  35H    basis set group =>   5
Atom  36H    basis set group =>   5
Atom  37H    basis set group =>   5
Atom  38H    basis set group =>   5
Atom  39H    basis set group =>   5
Atom  40H    basis set group =>   5
Atom  41H    basis set group =>   5
---------------------------------
AUXILIARY/J BASIS SET INFORMATION
---------------------------------
There are 5 groups of distinct atoms

 Group   1 Type C   : 12s5p4d2f1g contracted to 6s4p3d1f1g pattern {711111/2111/211/2/1}
 Group   2 Type N   : 12s5p4d2f1g contracted to 6s4p3d1f1g pattern {711111/2111/211/2/1}
 Group   3 Type O   : 12s5p4d2f1g contracted to 6s4p3d1f1g pattern {711111/2111/211/2/1}
 Group   4 Type F   : 12s5p4d2f1g contracted to 6s4p3d1f1g pattern {711111/2111/211/2/1}
 Group   5 Type H   : 5s2p1d contracted to 3s1p1d pattern {311/2/1}

Atom   0C    basis set group =>   1
Atom   1C    basis set group =>   1
Atom   2N    basis set group =>   2
Atom   3C    basis set group =>   1
Atom   4O    basis set group =>   3
Atom   5N    basis set group =>   2
Atom   6C    basis set group =>   1
Atom   7C    basis set group =>   1
Atom   8C    basis set group =>   1
Atom   9C    basis set group =>   1
Atom  10C    basis set group =>   1
Atom  11C    basis set group =>   1
Atom  12F    basis set group =>   4
Atom  13F    basis set group =>   4
Atom  14F    basis set group =>   4
Atom  15C    basis set group =>   1
Atom  16C    basis set group =>   1
Atom  17C    basis set group =>   1
Atom  18N    basis set group =>   2
Atom  19C    basis set group =>   1
Atom  20C    basis set group =>   1
Atom  21C    basis set group =>   1
Atom  22C    basis set group =>   1
Atom  23F    basis set group =>   4
Atom  24C    basis set group =>   1
Atom  25F    basis set group =>   4
Atom  26F    basis set group =>   4
Atom  27F    basis set group =>   4
Atom  28H    basis set group =>   5
Atom  29H    basis set group =>   5
Atom  30H    basis set group =>   5
Atom  31H    basis set group =>   5
Atom  32H    basis set group =>   5
Atom  33H    basis set group =>   5
Atom  34H    basis set group =>   5
Atom  35H    basis set group =>   5
Atom  36H    basis set group =>   5
Atom  37H    basis set group =>   5
Atom  38H    basis set group =>   5
Atom  39H    basis set group =>   5
Atom  40H    basis set group =>   5
Atom  41H    basis set group =>   5
------------------------------------------------------------------------------
                             ORCA STARTUP CALCULATIONS
                           -- RI-GTO INTEGRALS CHOSEN --
------------------------------------------------------------------------------
------------------------------------------------------------------------------
                   ___                                                        
                  /   \      - P O W E R E D   B Y -                         
                 /     \                                                     
                 |  |  |   _    _      __       _____    __    __             
                 |  |  |  | |  | |    /  \     |  _  \  |  |  /  |          
                  \  \/   | |  | |   /    \    | | | |  |  | /  /          
                 / \  \   | |__| |  /  /\  \   | |_| |  |  |/  /          
                |  |  |   |  __  | /  /__\  \  |    /   |      \           
                |  |  |   | |  | | |   __   |  |    \   |  |\   \          
                \     /   | |  | | |  |  |  |  | |\  \  |  | \   \       
                 \___/    |_|  |_| |__|  |__|  |_| \__\ |__|  \__/        
                                                                              
                      - O R C A' S   B I G   F R I E N D -                    
                                      &                                       
                       - I N T E G R A L  F E E D E R -                       
                                                                              
 v1 FN, 2020, v2 2021, v3 2022-2024                                           
------------------------------------------------------------------------------


----------------------
SHARK INTEGRAL PACKAGE
----------------------

Number of atoms                             ...     42
Number of basis functions                   ...    420
Number of shells                            ...    196
Maximum angular momentum                    ...      2
Integral batch strategy                     ... SHARK/LIBINT Hybrid
RI-J (if used) integral strategy            ... SPLIT-RIJ (Revised 2003 algorithm where possible)
Printlevel                                  ...      1
Contraction scheme used                     ... SEGMENTED contraction
Prescreening option                         ... SCHWARTZ
   Thresh                                   ... 1.000e-10
   Tcut                                     ... 1.000e-11
   Tpresel                                  ... 1.000e-11 
Coulomb Range Separation                    ... NOT USED
Exchange Range Separation                   ... NOT USED
Multipole approximations                    ... NOT USED
Finite Nucleus Model                        ... NOT USED
CABS basis                                  ... NOT available
Auxiliary Coulomb fitting basis             ... AVAILABLE
   # of basis functions in Aux-J            ...   1526
   # of shells in Aux-J                     ...    490
   Maximum angular momentum in Aux-J        ...      4
Auxiliary J/K fitting basis                 ... NOT available
Auxiliary Correlation fitting basis         ... NOT available
Auxiliary 'external' fitting basis          ... NOT available

Checking pre-screening integrals            ... done (  0.0 sec) Dimension = 196
Check shell pair data                       ... done (  0.0 sec)
Shell pair information
Shell pair cut-off parameter TPreSel        ...   1.0e-11
Total number of shell pairs                 ...     19306
Shell pairs after pre-screening             ...     10981
Total number of primitive shell pairs       ...    114156
Primitive shell pairs kept                  ...     34418
          la=0 lb=0:   3407 shell pairs
          la=1 lb=0:   3840 shell pairs
          la=1 lb=1:   1089 shell pairs
          la=2 lb=0:   1547 shell pairs
          la=2 lb=1:    908 shell pairs
          la=2 lb=2:    190 shell pairs

Calculating one electron integrals          ... done (  0.1 sec)
Calculating RI/J V-Matrix + Cholesky decomp.... done (  0.3 sec)
Calculating Nuclear repulsion               ... done (  0.0 sec) ENN=   2641.302986727737 Eh

Diagonalization of the overlap matrix:
Smallest eigenvalue                        ... 4.379e-04
Time for diagonalization                   ...    0.023 sec
Threshold for overlap eigenvalues          ... 1.000e-07
Number of eigenvalues below threshold      ... 0
Time for construction of square roots      ...    0.026 sec
Total time needed                          ...    0.059 sec

-------------------
DFT GRID GENERATION
-------------------

General Integration Accuracy     IntAcc      ... 4.388
Radial Grid Type                 RadialGrid  ... OptM3 with GC (2021)
Angular Grid (max. ang.)         AngularGrid ... 4 (Lebedev-302)
Angular grid pruning method      GridPruning ... 4 (adaptive)
Weight generation scheme         WeightScheme... mBecke (2022)
Basis function cutoff            BFCut       ... 1.0000e-10
Integration weight cutoff        WCut        ... 1.0000e-14
Partially contracted basis set               ... off
Rotationally invariant grid construction     ... off
Angular grids for H and He will be reduced by one unit

Total number of grid points                  ...   212797
Total number of batches                      ...     3344
Average number of points per batch           ...       63
Average number of grid points per atom       ...     5067

--------------------
COSX GRID GENERATION
--------------------

GRIDX 1
-------
General Integration Accuracy     IntAcc      ... 3.816
Radial Grid Type                 RadialGrid  ... OptM3 with GC (2021)
Angular Grid (max. ang.)         AngularGrid ... 1 (Lebedev-50)
Angular grid pruning method      GridPruning ... 4 (adaptive)
Weight generation scheme         WeightScheme... mBecke (2022)
Basis function cutoff            BFCut       ... 1.0000e-10
Integration weight cutoff        WCut        ... 1.0000e-14
Partially contracted basis set               ... on
Rotationally invariant grid construction     ... off
Angular grids for H and He will be reduced by one unit

Total number of grid points                  ...    26978
Total number of batches                      ...      231
Average number of points per batch           ...      116
Average number of grid points per atom       ...      642
UseSFitting                                  ... on

GRIDX 2
-------
General Integration Accuracy     IntAcc      ... 4.020
Radial Grid Type                 RadialGrid  ... OptM3 with GC (2021)
Angular Grid (max. ang.)         AngularGrid ... 2 (Lebedev-110)
Angular grid pruning method      GridPruning ... 4 (adaptive)
Weight generation scheme         WeightScheme... mBecke (2022)
Basis function cutoff            BFCut       ... 1.0000e-10
Integration weight cutoff        WCut        ... 1.0000e-14
Partially contracted basis set               ... on
Rotationally invariant grid construction     ... off
Angular grids for H and He will be reduced by one unit

Total number of grid points                  ...    59931
Total number of batches                      ...      489
Average number of points per batch           ...      122
Average number of grid points per atom       ...     1427
UseSFitting                                  ... on

GRIDX 3
-------
General Integration Accuracy     IntAcc      ... 4.338
Radial Grid Type                 RadialGrid  ... OptM3 with GC (2021)
Angular Grid (max. ang.)         AngularGrid ... 3 (Lebedev-194)
Angular grid pruning method      GridPruning ... 4 (adaptive)
Weight generation scheme         WeightScheme... mBecke (2022)
Basis function cutoff            BFCut       ... 1.0000e-10
Integration weight cutoff        WCut        ... 1.0000e-14
Partially contracted basis set               ... on
Rotationally invariant grid construction     ... off
Angular grids for H and He will be reduced by one unit

Total number of grid points                  ...   131527
Total number of batches                      ...     1049
Average number of points per batch           ...      125
Average number of grid points per atom       ...     3132
UseSFitting                                  ... on
Initializing property integral containers    ... done (  0.0 sec)

SHARK setup successfully completed in   7.8 seconds

Maximum memory used throughout the entire STARTUP-calculation: 89.4 MB
-------------------------------------------------------------------------------
                                 ORCA GUESS
                   Start orbitals & Density for SCF / CASSCF
-------------------------------------------------------------------------------

------------
SCF SETTINGS
------------
Hamiltonian:
 Density Functional     Method          .... DFT(GTOs)
 Exchange Functional    Exchange        .... B88
   X-Alpha parameter    XAlpha          ....  0.666667
   Becke's b parameter  XBeta           ....  0.004200
 Correlation Functional Correlation     .... LYP
 LDA part of GGA corr.  LDAOpt          .... VWN-5
 Gradients option       PostSCFGGA      .... off
 Hybrid DFT is turned on
   Fraction HF Exchange ScalHFX         ....  0.200000
   Scaling of DF-GGA-X  ScalDFX         ....  0.720000
   Scaling of DF-GGA-C  ScalDFC         ....  0.810000
   Scaling of DF-LDA-C  ScalLDAC        ....  1.000000
   Perturbative correction              ....  0.000000
   NL short-range parameter             ....  4.800000
 RI-approximation to the Coulomb term is turned on
   Number of AuxJ basis functions       .... 1526
   RIJ-COSX (HFX calculated with COS-X)).... on


General Settings:
 Integral files         IntName         .... /home/nmrbox/aojoawo/Documents/ERDOS/inputs/CHEMBL4247847
 Hartree-Fock type      HFTyp           .... RHF
 Total Charge           Charge          ....    0
 Multiplicity           Mult            ....    1
 Number of Electrons    NEL             ....  208
 Basis Dimension        Dim             ....  420
 Nuclear Repulsion      ENuc            ....   2641.3029867277 Eh

Convergence Acceleration:
 AO-DIIS                CNVDIIS         .... on
   Start iteration      DIISMaxIt       ....    12
   Startup error        DIISStart       ....  0.200000
   # of expansion vecs  DIISMaxEq       ....     5
   Bias factor          DIISBfac        ....   1.050
   Max. coefficient     DIISMaxC        ....  10.000
 MO-DIIS                CNVKDIIS        .... off
 Trust-Rad. Augm. Hess. CNVTRAH         .... auto
   Auto Start mean grad. ratio tolernc. ....  1.125000
   Auto Start start iteration           ....    50
   Auto Start num. interpolation iter.  ....    10
   Max. Number of Micro iterations      ....    24
   Max. Number of Macro iterations      .... Maxiter - #DIIS iter
   Number of Davidson start vectors     ....     2
   Converg. threshold    (grad. norm)   ....   5.000e-05
   Grad. Scal. Fac. for Micro threshold ....   0.100
   Minimum threshold for Micro iter.    ....   1.000e-02
   NR start threshold (gradient norm)   ....   1.000e-04
   Initial trust radius                 ....   0.400
   Minimum AH scaling param. (alpha)    ....   1.000
   Maximum AH scaling param. (alpha)    .... 1000.000
   Quad. conv. algorithm                .... NR
   White noise on init. David. guess    .... on
   Maximum white noise                  ....   0.010
   Pseudo random numbers                .... off
   Inactive MOs                         .... canonical
   Orbital update algorithm             .... Taylor
   Preconditioner                       .... Diag
   Full preconditioner red. dimension   ....   250
 SOSCF                  CNVSOSCF        .... on
   Start iteration      SOSCFMaxIt      ....   150
   Startup grad/error   SOSCFStart      ....  0.003300
   Hessian update       SOSCFHessUp     .... L-BFGS
 Level Shifting         CNVShift        .... on
   Level shift para.    LevelShift      ....    0.2500
   Turn off err/grad.   ShiftErr        ....    0.0010
 Zerner damping         CNVZerner       .... off
 Static damping         CNVDamp         .... on
   Fraction old density DampFac         ....    0.7000
   Max. Damping (<1)    DampMax         ....    0.9800
   Min. Damping (>=0)   DampMin         ....    0.0000
   Turn off err/grad.   DampErr         ....    0.1000

SCF Procedure:
 Maximum # iterations   MaxIter         ....   125
 SCF integral mode      SCFMode         .... Direct
   Integral package                     .... SHARK and LIBINT hybrid scheme
 Reset frequency        DirectResetFreq ....    20
 Integral Threshold     Thresh          ....  1.000e-10 Eh
 Primitive CutOff       TCut            ....  1.000e-11 Eh

Convergence Tolerance:
 Convergence Check Mode ConvCheckMode   .... Total+1el-Energy
 Convergence forced     ConvForced      .... 0
 Energy Change          TolE            ....  1.000e-06 Eh
 1-El. energy change                    ....  1.000e-03 Eh
 Orbital Gradient       TolG            ....  5.000e-05
 Orbital Rotation angle TolX            ....  5.000e-05
 DIIS Error             TolErr          ....  1.000e-06

------------------------------
INITIAL GUESS: MODEL POTENTIAL
------------------------------
Loading Hartree-Fock densities                     ... done
Calculating cut-offs                               ... done
Initializing the effective Hamiltonian             ... done
Setting up the integral package (SHARK)            ... done
Starting the Coulomb interaction                   ... done (   1.7 sec)
Making the grid                                    ... done (   0.9 sec)
Mapping shells                                     ... done
Starting the XC term evaluation                    ... done (   0.8 sec)
  promolecular density results
     # of electrons  =    208.000329099
     EX              =   -189.752258878
     EC              =     -7.370140375
     EX+EC           =   -197.122399253
Transforming the Hamiltonian                       ... done (   0.0 sec)
Diagonalizing the Hamiltonian                      ... done (   0.0 sec)
Back transforming the eigenvectors                 ... done (   0.0 sec)
Now organizing SCF variables                       ... done
                      ------------------
                      INITIAL GUESS DONE (   3.5 sec)
                      ------------------
             **** ENERGY FILE WAS UPDATED (/home/nmrbox/aojoawo/Documents/ERDOS/inputs/CHEMBL4247847.en.tmp) ****
Finished Guess after   4.2 sec
Maximum memory used throughout the entire GUESS-calculation: 47.7 MB

-------------------------------------------------------------------------------------------
                                      ORCA LEAN-SCF
                              memory conserving SCF solver
-------------------------------------------------------------------------------------------

----------------------------------------D-I-I-S--------------------------------------------
Iteration    Energy (Eh)           Delta-E    RMSDP     MaxDP     DIISErr   Damp  Time(sec)
-------------------------------------------------------------------------------------------
               ***  Starting incremental Fock matrix formation  ***
    1    -1593.1701154225793289     0.00e+00  2.15e-03  1.03e-01  2.86e-01  0.700  36.1
    2    -1593.4775649672246800    -3.07e-01  1.36e-03  5.33e-02  9.54e-02  0.700  16.3
                               ***Turning on AO-DIIS***
    3    -1593.5876061496383045    -1.10e-01  5.23e-04  1.57e-02  3.63e-02  0.700  15.9
    4    -1593.6574381915488630    -6.98e-02  8.39e-04  2.08e-02  1.56e-02  0.000  14.3
    5    -1593.8140923824284982    -1.57e-01  2.07e-04  7.15e-03  6.78e-03  0.000  15.4
                              *** Initializing SOSCF ***
---------------------------------------S-O-S-C-F--------------------------------------
Iteration    Energy (Eh)           Delta-E    RMSDP     MaxDP     MaxGrad    Time(sec)
--------------------------------------------------------------------------------------
    6    -1593.8150011846137204    -9.09e-04  6.64e-05  2.35e-03  2.10e-03    13.8
               *** Restarting incremental Fock matrix formation ***
    7    -1593.8150385742992512    -3.74e-05  5.65e-05  2.86e-03  5.46e-04    36.2
    8    -1593.8150075772055061     3.10e-05  3.43e-05  2.10e-03  1.36e-03    20.9
    9    -1593.8150533975976941    -4.58e-05  6.16e-06  2.72e-04  5.14e-05    18.6
   10    -1593.8150529647473377     4.33e-07  3.97e-06  2.08e-04  9.45e-05    14.5
                 **** Energy Check signals convergence ****

               *****************************************************
               *                     SUCCESS                       *
               *           SCF CONVERGED AFTER  10 CYCLES          *
               *****************************************************

Recomputing exchange energy using gridx3       ... done (   64.181 sec)
Old exchange energy                            :    -38.297082628 Eh
New exchange energy                            :    -38.297072349 Eh
Exchange energy change after final integration :      0.000010279 Eh
Total energy after final integration           :  -1593.815042686 Eh
             **** ENERGY FILE WAS UPDATED (/home/nmrbox/aojoawo/Documents/ERDOS/inputs/CHEMBL4247847.en.tmp) ****

----------------
TOTAL SCF ENERGY
----------------

Total Energy       :      -1593.81504268607887 Eh          -43369.91220 eV

Components:
Nuclear Repulsion  :       2641.30298672773733 Eh           71873.50825 eV
Electronic Energy  :      -4235.11803969248467 Eh         -115243.42072 eV
One Electron Energy:      -7447.75553394043982 Eh         -202663.73130 eV
Two Electron Energy:       3212.63749424795515 Eh           87420.31058 eV

Virial components:
Potential Energy   :      -3177.84550352103133 Eh          -86473.57238 eV
Kinetic Energy     :       1584.03046083495246 Eh           43103.66019 eV
Virial Ratio       :          2.00617701622099

DFT components:
N(Alpha)           :      103.999835507681 electrons
N(Beta)            :      103.999835507681 electrons
N(Total)           :      207.999671015363 electrons
E(X)               :     -152.323758311786 Eh       
E(C)               :       -8.652293390624 Eh       
E(XC)              :     -160.976051702410 Eh       

---------------
SCF CONVERGENCE
---------------

  Last Energy change         ...   -4.3285e-07  Tolerance :   1.0000e-06
  Last MAX-Density change    ...    2.0774e-04  Tolerance :   1.0000e-05
  Last RMS-Density change    ...    3.9736e-06  Tolerance :   1.0000e-06
  Last DIIS Error            ...    2.0974e-03  Tolerance :   1.0000e-06
  Last Orbital Gradient      ...    9.4538e-05  Tolerance :   5.0000e-05
  Last Orbital Rotation      ...    1.0444e-04  Tolerance :   5.0000e-05


----------------
ORBITAL ENERGIES
----------------

  NO   OCC          E(Eh)            E(eV) 
   0   2.0000     -24.722398      -672.7306 
   1   2.0000     -24.721824      -672.7150 
   2   2.0000     -24.719244      -672.6448 
   3   2.0000     -24.717229      -672.5900 
   4   2.0000     -24.717119      -672.5870 
   5   2.0000     -24.712965      -672.4740 
   6   2.0000     -24.711354      -672.4301 
   7   2.0000     -19.103228      -519.8253 
   8   2.0000     -14.367779      -390.9671 
   9   2.0000     -14.365293      -390.8995 
  10   2.0000     -14.339546      -390.1989 
  11   2.0000     -10.431950      -283.8678 
  12   2.0000     -10.428188      -283.7654 
  13   2.0000     -10.322031      -280.8767 
  14   2.0000     -10.286912      -279.9211 
  15   2.0000     -10.251257      -278.9509 
  16   2.0000     -10.244352      -278.7630 
  17   2.0000     -10.240438      -278.6565 
  18   2.0000     -10.227136      -278.2945 
  19   2.0000     -10.214322      -277.9458 
  20   2.0000     -10.214185      -277.9421 
  21   2.0000     -10.211799      -277.8772 
  22   2.0000     -10.206156      -277.7236 
  23   2.0000     -10.202644      -277.6281 
  24   2.0000     -10.202590      -277.6266 
  25   2.0000     -10.198125      -277.5051 
  26   2.0000     -10.197607      -277.4910 
  27   2.0000     -10.194537      -277.4075 
  28   2.0000      -1.277540       -34.7636 
  29   2.0000      -1.276754       -34.7422 
  30   2.0000      -1.234449       -33.5911 
  31   2.0000      -1.206130       -32.8205 
  32   2.0000      -1.202524       -32.7223 
  33   2.0000      -1.200832       -32.6763 
  34   2.0000      -1.199083       -32.6287 
  35   2.0000      -1.020467       -27.7683 
  36   2.0000      -0.945871       -25.7385 
  37   2.0000      -0.919833       -25.0299 
  38   2.0000      -0.913728       -24.8638 
  39   2.0000      -0.870014       -23.6743 
  40   2.0000      -0.811764       -22.0892 
  41   2.0000      -0.804548       -21.8929 
  42   2.0000      -0.782025       -21.2800 
  43   2.0000      -0.775076       -21.0909 
  44   2.0000      -0.759134       -20.6571 
  45   2.0000      -0.720846       -19.6152 
  46   2.0000      -0.700518       -19.0621 
  47   2.0000      -0.678886       -18.4734 
  48   2.0000      -0.646821       -17.6009 
  49   2.0000      -0.640903       -17.4399 
  50   2.0000      -0.628885       -17.1128 
  51   2.0000      -0.622721       -16.9451 
  52   2.0000      -0.605376       -16.4731 
  53   2.0000      -0.591803       -16.1038 
  54   2.0000      -0.572335       -15.5740 
  55   2.0000      -0.567577       -15.4445 
  56   2.0000      -0.566464       -15.4143 
  57   2.0000      -0.564099       -15.3499 
  58   2.0000      -0.560413       -15.2496 
  59   2.0000      -0.556582       -15.1454 
  60   2.0000      -0.549009       -14.9393 
  61   2.0000      -0.543170       -14.7804 
  62   2.0000      -0.518163       -14.0999 
  63   2.0000      -0.516224       -14.0472 
  64   2.0000      -0.500636       -13.6230 
  65   2.0000      -0.480748       -13.0818 
  66   2.0000      -0.475027       -12.9261 
  67   2.0000      -0.473805       -12.8929 
  68   2.0000      -0.463445       -12.6110 
  69   2.0000      -0.451618       -12.2891 
  70   2.0000      -0.448754       -12.2112 
  71   2.0000      -0.445984       -12.1358 
  72   2.0000      -0.444699       -12.1009 
  73   2.0000      -0.443547       -12.0695 
  74   2.0000      -0.441785       -12.0216 
  75   2.0000      -0.436113       -11.8672 
  76   2.0000      -0.431679       -11.7466 
  77   2.0000      -0.427532       -11.6337 
  78   2.0000      -0.419047       -11.4029 
  79   2.0000      -0.417938       -11.3727 
  80   2.0000      -0.415143       -11.2966 
  81   2.0000      -0.412898       -11.2355 
  82   2.0000      -0.408069       -11.1041 
  83   2.0000      -0.405567       -11.0360 
  84   2.0000      -0.403893       -10.9905 
  85   2.0000      -0.397788       -10.8244 
  86   2.0000      -0.395513       -10.7625 
  87   2.0000      -0.393214       -10.6999 
  88   2.0000      -0.390553       -10.6275 
  89   2.0000      -0.386722       -10.5232 
  90   2.0000      -0.381351       -10.3771 
  91   2.0000      -0.375962       -10.2304 
  92   2.0000      -0.366889        -9.9835 
  93   2.0000      -0.362728        -9.8703 
  94   2.0000      -0.356917        -9.7122 
  95   2.0000      -0.353226        -9.6118 
  96   2.0000      -0.291743        -7.9387 
  97   2.0000      -0.275243        -7.4897 
  98   2.0000      -0.265877        -7.2349 
  99   2.0000      -0.262760        -7.1501 
 100   2.0000      -0.260836        -7.0977 
 101   2.0000      -0.256827        -6.9886 
 102   2.0000      -0.251466        -6.8427 
 103   2.0000      -0.242297        -6.5932 
 104   0.0000      -0.036652        -0.9973 
 105   0.0000      -0.029384        -0.7996 
 106   0.0000      -0.022019        -0.5992 
 107   0.0000      -0.015005        -0.4083 
 108   0.0000       0.040055         1.0899 
 109   0.0000       0.050199         1.3660 
 110   0.0000       0.084161         2.2901 
 111   0.0000       0.090648         2.4666 
 112   0.0000       0.096039         2.6133 
 113   0.0000       0.101994         2.7754 
 114   0.0000       0.106257         2.8914 
*Only the first 10 virtual orbitals were printed.

                    ********************************
                    * MULLIKEN POPULATION ANALYSIS *
                    ********************************

-----------------------
MULLIKEN ATOMIC CHARGES
-----------------------
   0 C :   -0.469871
   1 C :   -0.064980
   2 N :   -0.639181
   3 C :    0.736196
   4 O :   -0.492693
   5 N :   -0.650472
   6 C :   -0.036384
   7 C :    0.107430
   8 C :   -0.174687
   9 C :   -0.158895
  10 C :   -0.011954
  11 C :    0.894275
  12 F :   -0.306384
  13 F :   -0.296191
  14 F :   -0.306343
  15 C :   -0.161976
  16 C :   -0.170395
  17 C :    0.181736
  18 N :   -0.394006
  19 C :    0.008564
  20 C :   -0.125093
  21 C :   -0.175734
  22 C :    0.375452
  23 F :   -0.315477
  24 C :    0.940396
  25 F :   -0.294507
  26 F :   -0.311655
  27 F :   -0.305113
  28 H :    0.152731
  29 H :    0.171339
  30 H :    0.168694
  31 H :    0.207085
  32 H :    0.319232
  33 H :    0.319644
  34 H :    0.221881
  35 H :    0.142423
  36 H :    0.153075
  37 H :    0.153913
  38 H :    0.149824
  39 H :    0.156845
  40 H :    0.144357
  41 H :    0.156896
Sum of atomic charges:   -0.0000000

--------------------------------
MULLIKEN REDUCED ORBITAL CHARGES
--------------------------------
  0 C s       :     3.315547  s :     3.315547
      pz      :     0.990913  p :     3.121098
      px      :     1.047788
      py      :     1.082396
      dz2     :     0.003925  d :     0.033226
      dxz     :     0.006635
      dyz     :     0.010826
      dx2y2   :     0.008985
      dxy     :     0.002854

  1 C s       :     3.220666  s :     3.220666
      pz      :     0.959785  p :     2.786215
      px      :     0.788324
      py      :     1.038107
      dz2     :     0.007214  d :     0.058099
      dxz     :     0.013639
      dyz     :     0.013158
      dx2y2   :     0.014455
      dxy     :     0.009633

  2 N s       :     3.584991  s :     3.584991
      pz      :     1.443890  p :     4.025915
      px      :     1.102017
      py      :     1.480007
      dz2     :     0.002703  d :     0.028275
      dxz     :     0.006935
      dyz     :     0.006567
      dx2y2   :     0.006798
      dxy     :     0.005272

  3 C s       :     2.893117  s :     2.893117
      pz      :     0.762330  p :     2.254722
      px      :     0.713134
      py      :     0.779257
      dz2     :     0.023048  d :     0.115966
      dxz     :     0.032104
      dyz     :     0.013912
      dx2y2   :     0.019205
      dxy     :     0.027696

  4 O s       :     3.887415  s :     3.887415
      pz      :     1.393396  p :     4.579785
      px      :     1.760690
      py      :     1.425698
      dz2     :     0.007930  d :     0.025494
      dxz     :     0.003670
      dyz     :     0.007359
      dx2y2   :     0.003759
      dxy     :     0.002775

  5 N s       :     3.590662  s :     3.590662
      pz      :     1.379564  p :     4.031162
      px      :     1.111757
      py      :     1.539842
      dz2     :     0.005777  d :     0.028648
      dxz     :     0.004784
      dyz     :     0.005933
      dx2y2   :     0.006451
      dxy     :     0.005703

  6 C s       :     3.202789  s :     3.202789
      pz      :     1.046025  p :     2.774958
      px      :     0.822991
      py      :     0.905942
      dz2     :     0.012184  d :     0.058637
      dxz     :     0.010199
      dyz     :     0.008407
      dx2y2   :     0.010925
      dxy     :     0.016923

  7 C s       :     3.156631  s :     3.156631
      pz      :     0.953942  p :     2.696706
      px      :     0.873094
      py      :     0.869670
      dz2     :     0.003067  d :     0.039233
      dxz     :     0.005569
      dyz     :     0.005904
      dx2y2   :     0.011714
      dxy     :     0.012980

  8 C s       :     3.211455  s :     3.211455
      pz      :     0.999376  p :     2.927730
      px      :     0.974349
      py      :     0.954004
      dz2     :     0.003458  d :     0.035501
      dxz     :     0.002497
      dyz     :     0.005273
      dx2y2   :     0.012234
      dxy     :     0.012039

  9 C s       :     3.205731  s :     3.205731
      pz      :     0.975052  p :     2.916994
      px      :     0.944190
      py      :     0.997752
      dz2     :     0.003457  d :     0.036170
      dxz     :     0.006496
      dyz     :     0.002163
      dx2y2   :     0.013987
      dxy     :     0.010067

 10 C s       :     3.158129  s :     3.158129
      pz      :     1.019529  p :     2.815761
      px      :     0.898394
      py      :     0.897839
      dz2     :     0.003365  d :     0.038065
      dxz     :     0.004552
      dyz     :     0.005194
      dx2y2   :     0.010550
      dxy     :     0.014404

 11 C s       :     2.804881  s :     2.804881
      pz      :     0.628842  p :     2.162854
      px      :     0.800673
      py      :     0.733339
      dz2     :     0.033295  d :     0.137990
      dxz     :     0.025991
      dyz     :     0.027136
      dx2y2   :     0.023864
      dxy     :     0.027705

 12 F s       :     3.980107  s :     3.980107
      pz      :     1.828322  p :     5.309984
      px      :     1.894051
      py      :     1.587611
      dz2     :     0.002173  d :     0.016293
      dxz     :     0.001018
      dyz     :     0.005017
      dx2y2   :     0.004413
      dxy     :     0.003672

 13 F s       :     3.976366  s :     3.976366
      pz      :     1.509702  p :     5.303475
      px      :     1.894970
      py      :     1.898803
      dz2     :     0.007755  d :     0.016350
      dxz     :     0.003958
      dyz     :     0.003659
      dx2y2   :     0.000389
      dxy     :     0.000590

 14 F s       :     3.980137  s :     3.980137
      pz      :     1.819058  p :     5.309909
      px      :     1.642576
      py      :     1.848275
      dz2     :     0.002201  d :     0.016296
      dxz     :     0.004576
      dyz     :     0.001690
      dx2y2   :     0.003701
      dxy     :     0.004128

 15 C s       :     3.206899  s :     3.206899
      pz      :     0.975039  p :     2.918918
      px      :     0.996258
      py      :     0.947621
      dz2     :     0.003492  d :     0.036159
      dxz     :     0.002602
      dyz     :     0.006022
      dx2y2   :     0.012549
      dxy     :     0.011493

 16 C s       :     3.203477  s :     3.203477
      pz      :     0.998416  p :     2.931450
      px      :     0.944618
      py      :     0.988417
      dz2     :     0.003481  d :     0.035468
      dxz     :     0.005667
      dyz     :     0.002070
      dx2y2   :     0.013954
      dxy     :     0.010296

 17 C s       :     3.099928  s :     3.099928
      pz      :     0.867634  p :     2.662048
      px      :     0.965774
      py      :     0.828639
      dz2     :     0.015360  d :     0.056289
      dxz     :     0.006719
      dyz     :     0.017050
      dx2y2   :     0.009341
      dxy     :     0.007819

 18 N s       :     3.704474  s :     3.704474
      pz      :     1.543269  p :     3.653619
      px      :     1.136439
      py      :     0.973912
      dz2     :     0.005154  d :     0.035912
      dxz     :     0.005261
      dyz     :     0.013372
      dx2y2   :     0.005038
      dxy     :     0.007087

 19 C s       :     3.142350  s :     3.142350
      pz      :     0.946660  p :     2.796229
      px      :     0.951985
      py      :     0.897584
      dz2     :     0.012132  d :     0.052857
      dxz     :     0.005719
      dyz     :     0.019590
      dx2y2   :     0.009599
      dxy     :     0.005817

 20 C s       :     3.194326  s :     3.194326
      pz      :     0.935213  p :     2.895407
      px      :     0.985202
      py      :     0.974992
      dz2     :     0.008552  d :     0.035360
      dxz     :     0.004950
      dyz     :     0.011956
      dx2y2   :     0.006050
      dxy     :     0.003851

 21 C s       :     3.197602  s :     3.197602
      pz      :     0.986231  p :     2.943246
      px      :     0.998662
      py      :     0.958352
      dz2     :     0.010468  d :     0.034886
      dxz     :     0.003221
      dyz     :     0.009101
      dx2y2   :     0.005525
      dxy     :     0.006570

 22 C s       :     3.105012  s :     3.105012
      pz      :     0.798813  p :     2.448536
      px      :     0.993136
      py      :     0.656586
      dz2     :     0.015456  d :     0.071001
      dxz     :     0.007880
      dyz     :     0.023500
      dx2y2   :     0.011766
      dxy     :     0.012399

 23 F s       :     3.975457  s :     3.975457
      pz      :     1.801838  p :     5.322892
      px      :     1.897270
      py      :     1.623784
      dz2     :     0.002648  d :     0.017128
      dxz     :     0.001411
      dyz     :     0.005742
      dx2y2   :     0.003905
      dxy     :     0.003422

 24 C s       :     2.837572  s :     2.837572
      pz      :     0.711306  p :     2.086750
      px      :     0.623559
      py      :     0.751884
      dz2     :     0.023504  d :     0.135282
      dxz     :     0.030248
      dyz     :     0.028323
      dx2y2   :     0.032477
      dxy     :     0.020729

 25 F s       :     3.979276  s :     3.979276
      pz      :     1.624455  p :     5.298629
      px      :     1.764453
      py      :     1.909720
      dz2     :     0.004544  d :     0.016602
      dxz     :     0.006288
      dyz     :     0.002723
      dx2y2   :     0.001781
      dxy     :     0.001265

 26 F s       :     3.977271  s :     3.977271
      pz      :     1.821084  p :     5.318174
      px      :     1.906751
      py      :     1.590339
      dz2     :     0.002112  d :     0.016209
      dxz     :     0.000881
      dyz     :     0.005608
      dx2y2   :     0.004723
      dxy     :     0.002885

 27 F s       :     3.979001  s :     3.979001
      pz      :     1.874159  p :     5.309769
      px      :     1.537259
      py      :     1.898351
      dz2     :     0.002147  d :     0.016343
      dxz     :     0.004452
      dyz     :     0.000662
      dx2y2   :     0.005318
      dxy     :     0.003764

 28 H s       :     0.847269  s :     0.847269

 29 H s       :     0.828661  s :     0.828661

 30 H s       :     0.831306  s :     0.831306

 31 H s       :     0.792915  s :     0.792915

 32 H s       :     0.680768  s :     0.680768

 33 H s       :     0.680356  s :     0.680356

 34 H s       :     0.778119  s :     0.778119

 35 H s       :     0.857577  s :     0.857577

 36 H s       :     0.846925  s :     0.846925

 37 H s       :     0.846087  s :     0.846087

 38 H s       :     0.850176  s :     0.850176

 39 H s       :     0.843155  s :     0.843155

 40 H s       :     0.855643  s :     0.855643

 41 H s       :     0.843104  s :     0.843104



                     *******************************
                     * LOEWDIN POPULATION ANALYSIS *
                     *******************************

----------------------
LOEWDIN ATOMIC CHARGES
----------------------
   0 C :   -0.361158
   1 C :   -0.092095
   2 N :   -0.251811
   3 C :    0.164930
   4 O :   -0.316345
   5 N :   -0.247347
   6 C :   -0.044578
   7 C :   -0.009140
   8 C :   -0.133194
   9 C :   -0.110051
  10 C :   -0.071687
  11 C :    0.309688
  12 F :   -0.114409
  13 F :   -0.113742
  14 F :   -0.114411
  15 C :   -0.108986
  16 C :   -0.128186
  17 C :    0.001691
  18 N :   -0.116378
  19 C :   -0.073702
  20 C :   -0.137619
  21 C :   -0.133142
  22 C :    0.101857
  23 F :   -0.101964
  24 C :    0.300204
  25 F :   -0.107703
  26 F :   -0.122370
  27 F :   -0.115886
  28 H :    0.128019
  29 H :    0.140428
  30 H :    0.139256
  31 H :    0.167765
  32 H :    0.247691
  33 H :    0.246933
  34 H :    0.177705
  35 H :    0.139644
  36 H :    0.143794
  37 H :    0.144419
  38 H :    0.142934
  39 H :    0.139481
  40 H :    0.140676
  41 H :    0.148789

-------------------------------
LOEWDIN REDUCED ORBITAL CHARGES
-------------------------------
  0 C s       :     2.986882  s :     2.986882
      pz      :     1.069301  p :     3.308796
      px      :     1.107040
      py      :     1.132455
      dz2     :     0.008826  d :     0.065480
      dxz     :     0.014177
      dyz     :     0.020789
      dx2y2   :     0.016551
      dxy     :     0.005138

  1 C s       :     2.905524  s :     2.905524
      pz      :     1.057615  p :     3.057817
      px      :     0.920109
      py      :     1.080094
      dz2     :     0.015598  d :     0.128754
      dxz     :     0.032141
      dyz     :     0.028303
      dx2y2   :     0.031896
      dxy     :     0.020816

  2 N s       :     3.155240  s :     3.155240
      pz      :     1.421360  p :     4.029057
      px      :     1.143027
      py      :     1.464670
      dz2     :     0.007093  d :     0.067513
      dxz     :     0.017992
      dyz     :     0.011323
      dx2y2   :     0.017091
      dxy     :     0.014015

  3 C s       :     2.838242  s :     2.838242
      pz      :     0.917137  p :     2.731865
      px      :     0.916411
      py      :     0.898316
      dz2     :     0.049132  d :     0.264963
      dxz     :     0.075249
      dyz     :     0.033888
      dx2y2   :     0.043008
      dxy     :     0.063685

  4 O s       :     3.591004  s :     3.591004
      pz      :     1.449653  p :     4.675466
      px      :     1.761028
      py      :     1.464785
      dz2     :     0.012678  d :     0.049875
      dxz     :     0.006378
      dyz     :     0.019102
      dx2y2   :     0.006967
      dxy     :     0.004751

  5 N s       :     3.158123  s :     3.158123
      pz      :     1.378082  p :     4.021330
      px      :     1.142422
      py      :     1.500826
      dz2     :     0.012925  d :     0.067894
      dxz     :     0.013798
      dyz     :     0.010221
      dx2y2   :     0.016705
      dxy     :     0.014245

  6 C s       :     2.881078  s :     2.881078
      pz      :     1.087260  p :     3.034253
      px      :     0.941414
      py      :     1.005579
      dz2     :     0.024986  d :     0.129247
      dxz     :     0.021918
      dyz     :     0.019169
      dx2y2   :     0.024381
      dxy     :     0.038793

  7 C s       :     2.885832  s :     2.885832
      pz      :     0.945666  p :     3.025371
      px      :     1.033819
      py      :     1.045887
      dz2     :     0.006292  d :     0.097937
      dxz     :     0.011364
      dyz     :     0.012201
      dx2y2   :     0.032129
      dxy     :     0.035951

  8 C s       :     2.917310  s :     2.917310
      pz      :     0.994178  p :     3.132674
      px      :     1.079617
      py      :     1.058878
      dz2     :     0.006212  d :     0.083211
      dxz     :     0.004535
      dyz     :     0.011170
      dx2y2   :     0.030893
      dxy     :     0.030400

  9 C s       :     2.917102  s :     2.917102
      pz      :     0.966738  p :     3.108125
      px      :     1.057189
      py      :     1.084198
      dz2     :     0.006162  d :     0.084824
      dxz     :     0.013931
      dyz     :     0.003559
      dx2y2   :     0.034416
      dxy     :     0.026757

 10 C s       :     2.887536  s :     2.887536
      pz      :     1.005100  p :     3.087325
      px      :     1.033002
      py      :     1.049223
      dz2     :     0.007026  d :     0.096825
      dxz     :     0.009032
      dyz     :     0.010555
      dx2y2   :     0.030219
      dxy     :     0.039993

 11 C s       :     2.850416  s :     2.850416
      pz      :     0.775387  p :     2.510598
      px      :     0.891436
      py      :     0.843775
      dz2     :     0.083584  d :     0.329297
      dxz     :     0.059404
      dyz     :     0.063451
      dx2y2   :     0.052841
      dxy     :     0.070017

 12 F s       :     3.759194  s :     3.759194
      pz      :     1.830158  p :     5.324259
      px      :     1.888946
      py      :     1.605154
      dz2     :     0.003749  d :     0.030956
      dxz     :     0.001781
      dyz     :     0.009558
      dx2y2   :     0.009493
      dxy     :     0.006375

 13 F s       :     3.761721  s :     3.761721
      pz      :     1.534414  p :     5.320745
      px      :     1.890955
      py      :     1.895376
      dz2     :     0.015839  d :     0.031276
      dxz     :     0.007478
      dyz     :     0.006457
      dx2y2   :     0.000504
      dxy     :     0.000998

 14 F s       :     3.759233  s :     3.759233
      pz      :     1.821485  p :     5.324221
      px      :     1.656294
      py      :     1.846442
      dz2     :     0.003734  d :     0.030957
      dxz     :     0.008775
      dyz     :     0.003124
      dx2y2   :     0.007570
      dxy     :     0.007754

 15 C s       :     2.916721  s :     2.916721
      pz      :     0.966297  p :     3.107547
      px      :     1.084251
      py      :     1.056999
      dz2     :     0.006199  d :     0.084719
      dxz     :     0.004676
      dyz     :     0.012726
      dx2y2   :     0.031612
      dxy     :     0.029506

 16 C s       :     2.916984  s :     2.916984
      pz      :     0.992028  p :     3.128281
      px      :     1.055545
      py      :     1.080707
      dz2     :     0.006214  d :     0.082922
      dxz     :     0.012121
      dyz     :     0.003427
      dx2y2   :     0.034022
      dxy     :     0.027137

 17 C s       :     2.882680  s :     2.882680
      pz      :     1.026637  p :     2.979851
      px      :     0.952912
      py      :     1.000302
      dz2     :     0.039827  d :     0.135778
      dxz     :     0.014453
      dyz     :     0.044265
      dx2y2   :     0.022182
      dxy     :     0.015052

 18 N s       :     3.246900  s :     3.246900
      pz      :     1.552494  p :     3.789402
      px      :     1.128760
      py      :     1.108148
      dz2     :     0.009999  d :     0.080076
      dxz     :     0.006084
      dyz     :     0.031656
      dx2y2   :     0.015067
      dxy     :     0.017269

 19 C s       :     2.915163  s :     2.915163
      pz      :     1.052759  p :     3.036882
      px      :     0.955430
      py      :     1.028694
      dz2     :     0.032056  d :     0.121657
      dxz     :     0.012914
      dyz     :     0.045460
      dx2y2   :     0.020065
      dxy     :     0.011162

 20 C s       :     2.926436  s :     2.926436
      pz      :     1.070705  p :     3.126376
      px      :     0.985564
      py      :     1.070107
      dz2     :     0.023402  d :     0.084806
      dxz     :     0.011263
      dyz     :     0.030408
      dx2y2   :     0.012109
      dxy     :     0.007625

 21 C s       :     2.923437  s :     2.923437
      pz      :     1.076160  p :     3.127357
      px      :     0.990208
      py      :     1.060989
      dz2     :     0.022037  d :     0.082348
      dxz     :     0.005172
      dyz     :     0.025273
      dx2y2   :     0.015214
      dxy     :     0.014652

 22 C s       :     2.873440  s :     2.873440
      pz      :     0.990584  p :     2.847217
      px      :     0.994022
      py      :     0.862612
      dz2     :     0.041782  d :     0.177486
      dxz     :     0.017523
      dyz     :     0.060546
      dx2y2   :     0.030906
      dxy     :     0.026728

 23 F s       :     3.735446  s :     3.735446
      pz      :     1.804471  p :     5.331658
      px      :     1.891146
      py      :     1.636042
      dz2     :     0.005233  d :     0.034860
      dxz     :     0.002747
      dyz     :     0.011935
      dx2y2   :     0.007912
      dxy     :     0.007032

 24 C s       :     2.864985  s :     2.864985
      pz      :     0.845365  p :     2.509750
      px      :     0.782122
      py      :     0.882262
      dz2     :     0.051989  d :     0.325062
      dxz     :     0.074170
      dyz     :     0.071892
      dx2y2   :     0.080927
      dxy     :     0.046084

 25 F s       :     3.758805  s :     3.758805
      pz      :     1.641153  p :     5.317274
      px      :     1.770317
      py      :     1.905804
      dz2     :     0.008620  d :     0.031625
      dxz     :     0.012829
      dyz     :     0.004753
      dx2y2   :     0.003290
      dxy     :     0.002133

 26 F s       :     3.759523  s :     3.759523
      pz      :     1.821633  p :     5.331729
      px      :     1.901804
      py      :     1.608292
      dz2     :     0.004147  d :     0.031118
      dxz     :     0.001560
      dyz     :     0.011103
      dx2y2   :     0.009980
      dxy     :     0.004328

 27 F s       :     3.758728  s :     3.758728
      pz      :     1.872447  p :     5.325953
      px      :     1.559075
      py      :     1.894432
      dz2     :     0.003829  d :     0.031205
      dxz     :     0.008461
      dyz     :     0.001130
      dx2y2   :     0.011243
      dxy     :     0.006541

 28 H s       :     0.871981  s :     0.871981

 29 H s       :     0.859572  s :     0.859572

 30 H s       :     0.860744  s :     0.860744

 31 H s       :     0.832235  s :     0.832235

 32 H s       :     0.752309  s :     0.752309

 33 H s       :     0.753067  s :     0.753067

 34 H s       :     0.822295  s :     0.822295

 35 H s       :     0.860356  s :     0.860356

 36 H s       :     0.856206  s :     0.856206

 37 H s       :     0.855581  s :     0.855581

 38 H s       :     0.857066  s :     0.857066

 39 H s       :     0.860519  s :     0.860519

 40 H s       :     0.859324  s :     0.859324

 41 H s       :     0.851211  s :     0.851211



                      *****************************
                      * MAYER POPULATION ANALYSIS *
                      *****************************

  NA   - Mulliken gross atomic population
  ZA   - Total nuclear charge
  QA   - Mulliken gross atomic charge
  VA   - Mayer's total valence
  BVA  - Mayer's bonded valence
  FA   - Mayer's free valence

  ATOM       NA         ZA         QA         VA         BVA        FA
  0 C      6.4699     6.0000    -0.4699     3.8210     3.8210    -0.0000
  1 C      6.0650     6.0000    -0.0650     3.8398     3.8398    -0.0000
  2 N      7.6392     7.0000    -0.6392     2.8789     2.8789    -0.0000
  3 C      5.2638     6.0000     0.7362     3.9004     3.9004     0.0000
  4 O      8.4927     8.0000    -0.4927     2.0494     2.0494    -0.0000
  5 N      7.6505     7.0000    -0.6505     2.8911     2.8911     0.0000
  6 C      6.0364     6.0000    -0.0364     3.7755     3.7755    -0.0000
  7 C      5.8926     6.0000     0.1074     3.9590     3.9590    -0.0000
  8 C      6.1747     6.0000    -0.1747     3.9018     3.9018     0.0000
  9 C      6.1589     6.0000    -0.1589     3.9250     3.9250     0.0000
 10 C      6.0120     6.0000    -0.0120     3.9619     3.9619     0.0000
 11 C      5.1057     6.0000     0.8943     3.9144     3.9144    -0.0000
 12 F      9.3064     9.0000    -0.3064     1.0533     1.0533    -0.0000
 13 F      9.2962     9.0000    -0.2962     1.0566     1.0566    -0.0000
 14 F      9.3063     9.0000    -0.3063     1.0533     1.0533    -0.0000
 15 C      6.1620     6.0000    -0.1620     3.9297     3.9297    -0.0000
 16 C      6.1704     6.0000    -0.1704     3.9064     3.9064    -0.0000
 17 C      5.8183     6.0000     0.1817     3.8021     3.8021     0.0000
 18 N      7.3940     7.0000    -0.3940     2.9909     2.9909    -0.0000
 19 C      5.9914     6.0000     0.0086     3.9136     3.9136    -0.0000
 20 C      6.1251     6.0000    -0.1251     3.9056     3.9056    -0.0000
 21 C      6.1757     6.0000    -0.1757     3.8878     3.8878    -0.0000
 22 C      5.6245     6.0000     0.3755     3.7754     3.7754    -0.0000
 23 F      9.3155     9.0000    -0.3155     1.0491     1.0491    -0.0000
 24 C      5.0596     6.0000     0.9404     3.8486     3.8486     0.0000
 25 F      9.2945     9.0000    -0.2945     1.0707     1.0707     0.0000
 26 F      9.3117     9.0000    -0.3117     1.0443     1.0443    -0.0000
 27 F      9.3051     9.0000    -0.3051     1.0546     1.0546     0.0000
 28 H      0.8473     1.0000     0.1527     0.9417     0.9417    -0.0000
 29 H      0.8287     1.0000     0.1713     0.9380     0.9380    -0.0000
 30 H      0.8313     1.0000     0.1687     0.9341     0.9341     0.0000
 31 H      0.7929     1.0000     0.2071     0.9370     0.9370     0.0000
 32 H      0.6808     1.0000     0.3192     0.8716     0.8716    -0.0000
 33 H      0.6804     1.0000     0.3196     0.8775     0.8775    -0.0000
 34 H      0.7781     1.0000     0.2219     0.9302     0.9302    -0.0000
 35 H      0.8576     1.0000     0.1424     0.9461     0.9461     0.0000
 36 H      0.8469     1.0000     0.1531     0.9404     0.9404    -0.0000
 37 H      0.8461     1.0000     0.1539     0.9404     0.9404    -0.0000
 38 H      0.8502     1.0000     0.1498     0.9419     0.9419    -0.0000
 39 H      0.8432     1.0000     0.1568     0.9306     0.9306    -0.0000
 40 H      0.8556     1.0000     0.1444     0.9365     0.9365    -0.0000
 41 H      0.8431     1.0000     0.1569     0.9330     0.9330    -0.0000

  Mayer bond orders larger than 0.100000
B(  0-C ,  1-C ) :   0.9886 B(  0-C , 28-H ) :   0.9421 B(  0-C , 29-H ) :   0.9381 
B(  0-C , 30-H ) :   0.9416 B(  1-C ,  2-N ) :   0.9370 B(  1-C , 24-C ) :   0.9332 
B(  1-C , 31-H ) :   0.8951 B(  2-N ,  3-C ) :   1.0107 B(  2-N , 32-H ) :   0.8259 
B(  3-C ,  4-O ) :   1.8019 B(  3-C ,  5-N ) :   1.0201 B(  5-N ,  6-C ) :   0.9189 
B(  5-N , 33-H ) :   0.8179 B(  6-C ,  7-C ) :   0.9624 B(  6-C , 17-C ) :   0.9430 
B(  6-C , 34-H ) :   0.8837 B(  7-C ,  8-C ) :   1.4207 B(  7-C , 16-C ) :   1.4224 
B(  8-C ,  9-C ) :   1.4220 B(  8-C , 35-H ) :   0.9157 B(  9-C , 10-C ) :   1.4133 
B(  9-C , 36-H ) :   0.9199 B( 10-C , 11-C ) :   0.9794 B( 10-C , 15-C ) :   1.4108 
B( 11-C , 12-F ) :   0.9472 B( 11-C , 13-F ) :   0.9872 B( 11-C , 14-F ) :   0.9473 
B( 15-C , 16-C ) :   1.4268 B( 15-C , 37-H ) :   0.9196 B( 16-C , 38-H ) :   0.9148 
B( 17-C , 18-N ) :   1.3899 B( 17-C , 22-C ) :   1.3051 B( 18-N , 19-C ) :   1.4201 
B( 19-C , 20-C ) :   1.4246 B( 19-C , 39-H ) :   0.9283 B( 20-C , 21-C ) :   1.4315 
B( 20-C , 40-H ) :   0.9238 B( 21-C , 22-C ) :   1.4023 B( 21-C , 41-H ) :   0.9182 
B( 22-C , 23-F ) :   0.9155 B( 24-C , 25-F ) :   0.9850 B( 24-C , 26-F ) :   0.9548 
B( 24-C , 27-F ) :   0.9576 

-------
TIMINGS
-------

Total SCF time: 0 days 0 hours 4 min 26 sec 

Total time                  ....     266.812 sec
Sum of individual times     ....     266.468 sec  ( 99.9%)

SCF preparation             ....       0.349 sec  (  0.1%)
Fock matrix formation       ....     264.421 sec  ( 99.1%)
  Startup                   ....       0.092 sec  (  0.0% of F)
  Split-RI-J                ....      31.606 sec  ( 12.0% of F)
  Chain of spheres X        ....     207.438 sec  ( 78.4% of F)
  XC integration            ....      24.602 sec  (  9.3% of F)
    XC Preparation          ....       0.000 sec  (  0.0% of XC)
    Basis function eval.    ....       9.427 sec  ( 38.3% of XC)
    Density eval.           ....       5.742 sec  ( 23.3% of XC)
    XC-Functional eval.     ....       1.241 sec  (  5.0% of XC)
    XC-Potential eval.      ....       7.047 sec  ( 28.6% of XC)
Diagonalization             ....       0.000 sec  (  0.0%)
Density matrix formation    ....       0.309 sec  (  0.1%)
Total Energy calculation    ....       0.101 sec  (  0.0%)
Population analysis         ....       0.064 sec  (  0.0%)
Orbital Transformation      ....       0.144 sec  (  0.1%)
Orbital Orthonormalization  ....       0.000 sec  (  0.0%)
DIIS solution               ....       0.702 sec  (  0.3%)
SOSCF solution              ....       0.377 sec  (  0.1%)
Finished LeanSCF after 266.9 sec

Maximum memory used throughout the entire LEANSCF-calculation: 62.9 MB

-------------------------   --------------------
FINAL SINGLE POINT ENERGY     -1593.815042686079
-------------------------   --------------------


------------------------------------------------------------------------------
                              ORCA PROPERTY CALCULATIONS
------------------------------------------------------------------------------

GBWName                                 ... /home/nmrbox/aojoawo/Documents/ERDOS/inputs/CHEMBL4247847.gbw
Number of atoms                         ...     42
Number of basis functions               ...    420
Max core memory                         ...   1024 MB

Electric properties:
Dipole moment                           ... YES
Quadrupole moment                       ...  NO
Static polarizability (Dipole/Dipole)   ...  NO
Static polarizability (Dipole/Quad.)    ...  NO
Static polarizability (Quad./Quad.)     ...  NO
Static polarizability (Velocity)        ...  NO

Atomic electric properties:
Dipole moment                           ...  NO
Quadrupole moment                       ...  NO
Static polarizability                   ...  NO

Choice of electric origin               ... Center of mass
Position of electric origin             ...     0.460575    -0.821853     0.462946

General magnetic properties:
Magnetizability                         ...  NO

EPR properties:
g-Tensor (aka g-matrix)                 ...  NO
Zero-Field splitting spin-orbit         ...  NO
Zero-field splitting spin-spin          ...  NO
Hyperfine couplings                     ...  NO (   0 nuclei)
Quadrupole couplings                    ...  NO (   0 nuclei)
Contact density                         ...  NO (   0 nuclei)

NMR properties:
Chemical shifts                         ...  NO (   0 nuclei)
Spin-rotation constants                 ...  NO (   0 nuclei)
Spin-spin couplings                     ...  NO (   0 nuclei,    0 pairs)

Choice of magnetic origin               ... GIAO
Position of magnetic origin             ...     0.000000     0.000000     0.000000

Properties with geometric perturbations:
SCF Hessian                             ...  NO
IR spectrum                             ...  NO
VCD spectrum                            ...  NO
X-ray spectroscopy properties:
SCF XES/XAS/RIXS spectra                ...  NO


-------------
DIPOLE MOMENT
-------------

Method             : SCF
Type of density    : Electron Density
Multiplicity       :   1
Irrep              :   0
Energy             : -1593.8150426860788684 Eh
Relativity type    : 
Basis              : AO
                                X                 Y                 Z
Electronic contribution:     12.002645850     -22.865546556       9.044861015
Nuclear contribution   :    -12.214376424      23.675715536     -11.095331619
                        -----------------------------------------
Total Dipole Moment    :     -0.211730574       0.810168980      -2.050470604
                        -----------------------------------------
Magnitude (a.u.)       :      2.214866431
Magnitude (Debye)      :      5.629743066



--------------------
Rotational spectrum 
--------------------
 
Rotational constants in cm-1:             0.007033             0.002746             0.002151 
Rotational constants in MHz :           210.857107            82.327150            64.483800 

Dipole components along the rotational axes: 
x,y,z [a.u.] :    -0.375967     1.382544    -1.689039 
x,y,z [Debye]:    -0.955632     3.514149    -4.293196 

 

Dipole moment calculation done in   0.0 sec 

Maximum memory used throughout the entire PROP-calculation: 30.6 MB

--------------------------------
SUGGESTED CITATIONS FOR THIS RUN
--------------------------------

Below you find a list of papers that are relevant to this ORCA run
We neither can nor want to force you to cite these papers, but we appreciate if you do
You receive ORCA, which is the product of decades of hard work by many enthusiastic individuals, for free
The only thing we kindly ask in return is that you cite our papers,
We deeply appreciate it, if you show your appreciation for ORCA by not just citing the generic ORCA reference.

Please note that relegating all ORCA citations to the supporting information does *not* help us.
SI sections are not indexed - citations you put there will not count into any citation statistics
But we need these citations in order to attract the funding resources that allow us to do what we are doing

Therefore, if you are a happy ORCA user, please consider citing a few of the papers listed below in the main body of your paper

In addition to the list printed below, the program has created the file /home/nmrbox/aojoawo/Documents/ERDOS/inputs/CHEMBL4247847.bibtex that contains the list in bibtex format
You can import this file easily into all common literature databanks and citation aid programs


List of essential papers. We consider these as the minimum necessary citations

  1. Neese,F.
     Software update: the ORCA program system, version 5.0
     WIRES Comput. Molec. Sci., 2022 12(1)e1606
     doi.org/10.1002/wcms.1606

List of papers to cite with high priority. The work reported in these papers was absolutely
necessary for this run to complete.
Our perspective: the developers of density functionals and basis sets usually get cited in chemistry papers
Good! But without the algorithms to do something with them, the functionals or basis sets would not do anything.
Hence, in our opinion, the algorithm design and method developments papers are equally worthy of getting cited

  1. Neese,F.
     An improvement of the resolution of the identity approximation for the formation of the Coulomb matrix
     J. Comp. Chem., 2003 24(14)1740-1747
     doi.org/10.1002/jcc.10318
  2. Neese,F.; Wennmohs,F.; Hansen,A.; Becker,U.
     Efficient, approximate and parallel Hartree-Fock and hybrid DFT calculations. A 'chain-of-spheres' algorithm for the Hartree-Fock exchange
     Chem. Phys., 2009 356(1-3)98-109
     doi.org/10.1016/j.chemphys.2008.10.036
  3. Helmich-Paris,B.; de Souza,B.; Neese,F.; Izsák,R.
     An improved chain of spheres for exchange algorithm
     J. Chem. Phys., 2021 155 104109
     doi.org/doi: 10.1063/5.0058766.
  4. Neese,F.
     The SHARK Integral Generation and Digestion System
     J. Comp. Chem., 2022  1-16
     doi.org/10.1002/jcc.26942

List of suggested additional citations. These are papers that are important in the 'surrounding' of 
of this run, or papers that preceded the highly important papers. If you like your results we are grateful for a citation.

  1. Izsak,R.; Neese,F.
     An overlap fitted chain of spheres exchange method
     J. Chem. Phys., 2011 135 144105
     doi.org/10.1063/1.3646921
  2. Izsak,R.; Hansen,A.; Neese,F.
     The resolution of identity and chain of spheres approximations for the LPNO-CCSD singles Fock term
     Molec. Phys., 2012 110 2413-2417
     doi.org/10.1080/00268976.2012.687466
  3. Neese,F.
     The ORCA program system
     WIRES Comput. Molec. Sci., 2012 2(1)73-78
     doi.org/10.1002/wcms.81
  4. Izsak,R.; Neese,F.; Klopper,W.
     Robust fitting techniques in the chain of spheres approximation to the Fock exchange: The role of the complementary space
     J. Chem. Phys., 2013 139 
     doi.org/10.1063/1.4819264
  5. Neese,F.
     Software update: the ORCA program system, version 4.0
     WIRES Comput. Molec. Sci., 2018 8(1)1-6
     doi.org/10.1002/wcms.1327
  6. Neese,F.; Wennmohs,F.; Becker,U.; Riplinger,C.
     The ORCA quantum chemistry program package
     J. Chem. Phys., 2020 152 Art. No. L224108
     doi.org/10.1063/5.0004608

List of optional additional citations

  1. Neese,F.
     Approximate second-order SCF convergence for spin unrestricted wavefunctions
     Chem. Phys. Lett., 2000 325(1-3)93-98
     doi.org/10.1016/s0009-2614(00)00662-x

Timings for individual modules:

Sum of individual times          ...      279.213 sec (=   4.654 min)
Startup calculation              ...        7.890 sec (=   0.131 min)   2.8 %
SCF iterations                   ...      271.176 sec (=   4.520 min)  97.1 %
Property calculations            ...        0.147 sec (=   0.002 min)   0.1 %
                             ****ORCA TERMINATED NORMALLY****
TOTAL RUN TIME: 0 days 0 hours 4 minutes 40 seconds 14 msec
