
                                 *****************
                                 * O   R   C   A *
                                 *****************

                                            #,                                       
                                            ###                                      
                                            ####                                     
                                            #####                                    
                                            ######                                   
                                           ########,                                 
                                     ,,################,,,,,                         
                               ,,#################################,,                 
                          ,,##########################################,,             
                       ,#########################################, ''#####,          
                    ,#############################################,,   '####,        
                  ,##################################################,,,,####,       
                ,###########''''           ''''###############################       
              ,#####''   ,,,,##########,,,,          '''####'''          '####       
            ,##' ,,,,###########################,,,                        '##       
           ' ,,###''''                  '''############,,,                           
         ,,##''                                '''############,,,,        ,,,,,,###''
      ,#''                                            '''#######################'''  
     '                                                          ''''####''''         
             ,#######,   #######,   ,#######,      ##                                
            ,#'     '#,  ##    ##  ,#'     '#,    #''#        ,####,   ,####,        
            ##       ##  ##   ,#'  ##            #'  '#       #'       #'  '#        
            ##       ##  #######   ##           ,######,      #####,   #    #        
            '#,     ,#'  ##    ##  '#,     ,#' ,#      #,     #,   #   #,  ,#        
             '#######'   ##     ##  '#######'  #'      '#     '####' # '####'        



                #########################################################
                #                        -***-                          #
                #          Department of theory and spectroscopy        #
                #                                                       #
                #                      Frank Neese                      #
                #                                                       #
                #     Directorship, Architecture, Infrastructure        #
                #                    SHARK, DRIVERS                     #
                #        Core code/Algorithms in most modules           #
                #                                                       #
                #        Max Planck Institute fuer Kohlenforschung      #
                #                Kaiser Wilhelm Platz 1                 #
                #                 D-45470 Muelheim/Ruhr                 #
                #                      Germany                          #
                #                                                       #
                #                  All rights reserved                  #
                #                        -***-                          #
                #########################################################


                         Program Version 6.0.0  -   RELEASE  -


 With contributions from (in alphabetic order):
   Daniel Aravena         : Magnetic Suceptibility
   Michael Atanasov       : Ab Initio Ligand Field Theory (pilot matlab implementation)
   Alexander A. Auer      : GIAO ZORA, VPT2 properties, NMR spectrum
   Ute Becker             : All parallelization in ORCA, NUMFREQ, NUMCALC
   Giovanni Bistoni       : ED, misc. LED, open-shell LED, HFLD
   Martin Brehm           : Molecular dynamics
   Dmytro Bykov           : pre 5.0 version of the SCF Hessian
   Marcos Casanova-Páez   : Triplet and SCS-CIS(D). UHF-(DLPNO)-IP/EA/STEOM-CCSD. UHF-CVS-IP/STEOM-CCSD
   Vijay G. Chilkuri      : MRCI spin determinant printing, contributions to CSF-ICE
   Pauline Colinet        : FMM embedding
   Dipayan Datta          : RHF DLPNO-CCSD density
   Achintya Kumar Dutta   : EOM-CC, STEOM-CC
   Nicolas Foglia         : Exact transition moments, OPA infrastructure, MCD improvements
   Dmitry Ganyushin       : Spin-Orbit,Spin-Spin,Magnetic field MRCI
   Miquel Garcia          : C-PCM and meta-GGA Hessian, CCSD/C-PCM, Gaussian charge scheme
   Tiago L. C. Gouveia    : GS-ROHF, GS-ROCIS
   Yang Guo               : DLPNO-NEVPT2, F12-NEVPT2, CIM, IAO-localization
   Andreas Hansen         : Spin unrestricted coupled pair/coupled cluster methods
   Ingolf Harden          : AUTO-CI MPn and infrastructure 
   Benjamin Helmich-Paris : MC-RPA, TRAH-(SCF,CASSCF), AVAS, COSX integrals, SCF dyn. polar.
   Lee Huntington         : MR-EOM, pCC
   Robert Izsak           : Overlap fitted RIJCOSX, COSX-SCS-MP3, EOM
   Riya Kayal             : Wick's Theorem for AUTO-CI, AUTO-CI UHF-CCSDT
   Emily Kempfer          : AUTO-CI, RHF CISDT and CCSDT
   Christian Kollmar      : KDIIS, OOCD, Brueckner-CCSD(T), CCSD density, CASPT2, CASPT2-K, improved NEVPT2
   Axel Koslowski         : Symmetry handling
   Simone Kossmann        : Meta GGA functionals, TD-DFT gradient, OOMP2, (MP2 Hessian; deprecated post 5.0)
   Lucas Lang             : DCDCAS
   Marvin Lechner         : AUTO-CI (C++ implementation), FIC-MRCC
   Spencer Leger          : CASSCF response
   Dagmar Lenk            : GEPOL surface, SMD, ORCA-2-JSON
   Dimitrios Liakos       : Extrapolation schemes; Compound Job, initial MDCI parallelization
   Dimitrios Manganas     : Further ROCIS development; embedding schemes. LFT, Crystal Embedding
   Dimitrios Pantazis     : SARC Basis sets
   Anastasios Papadopoulos: AUTO-CI, single reference methods and gradients
   Taras Petrenko         : pre 6.0 DFT Hessian and TD-DFT gradient, (ASA, deprecated), ECA, 1-Electron XAS/XES, NRVS
   Peter Pinski           : DLPNO-MP2, DLPNO-MP2 Gradient
   Christoph Reimann      : Effective Core Potentials
   Marius Retegan         : Local ZFS, SOC
   Christoph Riplinger    : Optimizer, TS searches, QM/MM, DLPNO-CCSD(T), (RO)-DLPNO pert. Triples
   Michael Roemelt        : Original ROCIS implementation
   Masaaki Saitow         : Open-shell DLPNO-CCSD energy and density
   Barbara Sandhoefer     : DKH picture change effects
   Kantharuban Sivalingam : CASSCF convergence/infrastructure, NEVPT2 and variants, FIC-MRCI
   Bernardo de Souza      : ESD, SOC TD-DFT
   Georgi Stoychev        : AutoAux, RI-MP2 NMR, DLPNO-MP2 response, X2C
   Van Anh Tran           : RI-MP2 g-tensors
   Willem Van den Heuvel  : Paramagnetic NMR
   Zikuan Wang            : NOTCH, Electric field optimization 
   Frank Wennmohs         : Technical directorship and infrastructure
   Hang Xu                : AUTO-CI-Response properties 


 We gratefully acknowledge several colleagues who have allowed us to
 interface, adapt or use parts of their codes:
   Stefan Grimme, W. Hujo, H. Kruse, P. Pracht,  : VdW corrections, initial TS optimization,
                  C. Bannwarth, S. Ehlert,         DFT functionals, gCP, sTDA/sTD-DF
                  L. Wittmann, M. Mueller
   Ed Valeev, F. Pavosevic, A. Kumar             : LibInt (2-el integral package), F12 methods
   Garnet Chan, S. Sharma, J. Yang, R. Olivares  : DMRG
   Ulf Ekstrom                                   : XCFun DFT Library
   Mihaly Kallay                                 : mrcc  (arbitrary order and MRCC methods)
   Frank Weinhold                                : gennbo (NPA and NBO analysis)
   Simon Mueller                                 : openCOSMO-RS
   Christopher J. Cramer and Donald G. Truhlar   : smd solvation model
   Lars Goerigk                                  : TD-DFT with DH, B97 family of functionals
   V. Asgeirsson, H. Jonsson                     : NEB implementation
   FAccTs GmbH                                   : IRC, NEB, NEB-TS, DLPNO-Multilevel, CI-OPT
                                                   MM, QMMM, 2- and 3-layer-ONIOM, Crystal-QMMM,
                                                   LR-CPCM, SF, NACMEs, symmetry and pop. for TD-DFT,
                                                   nearIR, NL-DFT gradient (VV10), updates on ESD,
                                                   ML-optimized integration grids, MBIS, APM,
                                                   GOAT, DOCKER, SOLVATOR, interface openCOSMO-RS
   S Lehtola, MJT Oliveira, MAL Marques          : LibXC Library
   Liviu Ungur et al                             : ANISO software


 Your calculation uses the libint2 library for the computation of 2-el integrals
 For citations please refer to: http://libint.valeyev.net

 Your ORCA version has been built with support for libXC version: 6.2.2
 For citations please refer to: https://libxc.gitlab.io

 This ORCA versions uses:
   CBLAS   interface :  Fast vector & matrix operations
   LAPACKE interface :  Fast linear algebra routines
   SCALAPACK package :  Parallel linear algebra routines
   Shared memory     :  Shared parallel matrices
   BLAS/LAPACK       :  OpenBLAS 0.3.27  USE64BITINT DYNAMIC_ARCH NO_AFFINITY SkylakeX SINGLE_THREADED
        Core in use  :  SkylakeX
   Copyright (c) 2011-2014, The OpenBLAS Project


Warning: RI is on but no J-basis has been assigned. Assigning Def2/J (nothing to worry about!)
================================================================================

----- Orbital basis set information -----
Your calculation utilizes the basis: 6-31G*
   H-He, Li-Ne : W. J. Hehre, R. Ditchfield and J.A. Pople, J. Chem. Phys. 56, 2257 (1972).
                 Note: He and Ne are unpublished basis sets taken from the Gaussian program.
                 Note: Li and B from J. D. Dill and J. A. Pople, J. Chem. Phys. 62, 2921 (1975).
   Na - Ar     : M. M. Francl, W. J. Pietro, W. J. Hehre, J. S. Binkley, M. S. Gordon, 
                 D. J. DeFrees and J. A. Pople, J. Chem. Phys. 77, 3654 (1982).
   K - Zn      : V. A. Rassolov, J. A. Pople, M. A. Ratner, and T. L. Windus, J. Chem. Phys. 109, 1223 (1998).

----- AuxJ basis set information -----
Your calculation utilizes the auxiliary basis: def2/J
   F. Weigend, Phys. Chem. Chem. Phys. 8, 1057 (2006).

================================================================================
                                        WARNINGS
                       Please study these warnings very carefully!
================================================================================


================================================================================
                                       INPUT FILE
================================================================================
NAME = /home/nmrbox/aojoawo/Documents/ERDOS/inputs/CHEMBL3898642.inp
|  1> ! B3LYP 6-31G* SP
|  2> 
|  3> * xyz 0 1
|  4> C 1.9074 1.2005 -1.6237
|  5> C 1.8502 0.4874 -0.2613
|  6> C 2.9196 -0.5819 -0.1130
|  7> C 3.2247 -1.4844 -1.1527
|  8> C 4.1960 -2.4724 -0.9716
|  9> C 4.8716 -2.5792 0.2455
| 10> C 4.5751 -1.6974 1.2878
| 11> Cl 5.4116 -1.8414 2.8219
| 12> C 3.6025 -0.7072 1.1120
| 13> N 0.5017 -0.0460 0.0457
| 14> C -0.0980 0.3418 1.3001
| 15> O 0.3352 -0.1659 2.3710
| 16> C -1.1751 1.3593 1.3638
| 17> C -1.3608 2.2869 0.3225
| 18> C -2.3915 3.2296 0.3873
| 19> C -3.2477 3.2574 1.4904
| 20> C -3.0724 2.3440 2.5321
| 21> C -2.0373 1.4051 2.4757
| 22> C -0.1717 -1.0407 -0.8261
| 23> C -0.3052 -2.4117 -0.1801
| 24> N 0.5578 -2.8472 0.8708
| 25> O -1.1401 -3.2320 -0.6510
| 26> C -1.5116 -0.5064 -1.3128
| 27> C -1.5852 0.1942 -2.5315
| 28> C -2.7948 0.7476 -2.9612
| 29> C -3.9455 0.6106 -2.1802
| 30> C -3.8863 -0.0745 -0.9650
| 31> C -2.6790 -0.6294 -0.5309
| 32> H 1.6002 0.5457 -2.4614
| 33> H 2.9454 1.5470 -1.8201
| 34> H 1.2529 2.0948 -1.6222
| 35> H 2.0872 1.2924 0.4738
| 36> H 2.7242 -1.4296 -2.1081
| 37> H 4.4250 -3.1592 -1.7768
| 38> H 5.6237 -3.3483 0.3777
| 39> H 3.3738 -0.0412 1.9348
| 40> H -0.7216 2.2778 -0.5454
| 41> H -2.5266 3.9393 -0.4199
| 42> H -4.0468 3.9868 1.5369
| 43> H -3.7375 2.3657 3.3869
| 44> H -1.9207 0.7071 3.2941
| 45> H 0.4514 -1.2266 -1.7219
| 46> H 1.3108 -2.2431 1.2583
| 47> H 0.4553 -3.8109 1.2610
| 48> H -0.7049 0.3190 -3.1504
| 49> H -2.8393 1.2884 -3.8973
| 50> H -4.8807 1.0458 -2.5104
| 51> H -4.7733 -0.1649 -0.3510
| 52> H -2.6495 -1.1326 0.4262
| 53> *
| 54> 
| 55>                          ****END OF INPUT****
================================================================================

                       ****************************
                       * Single Point Calculation *
                       ****************************

---------------------------------
CARTESIAN COORDINATES (ANGSTROEM)
---------------------------------
  C      1.907400    1.200500   -1.623700
  C      1.850200    0.487400   -0.261300
  C      2.919600   -0.581900   -0.113000
  C      3.224700   -1.484400   -1.152700
  C      4.196000   -2.472400   -0.971600
  C      4.871600   -2.579200    0.245500
  C      4.575100   -1.697400    1.287800
  Cl     5.411600   -1.841400    2.821900
  C      3.602500   -0.707200    1.112000
  N      0.501700   -0.046000    0.045700
  C     -0.098000    0.341800    1.300100
  O      0.335200   -0.165900    2.371000
  C     -1.175100    1.359300    1.363800
  C     -1.360800    2.286900    0.322500
  C     -2.391500    3.229600    0.387300
  C     -3.247700    3.257400    1.490400
  C     -3.072400    2.344000    2.532100
  C     -2.037300    1.405100    2.475700
  C     -0.171700   -1.040700   -0.826100
  C     -0.305200   -2.411700   -0.180100
  N      0.557800   -2.847200    0.870800
  O     -1.140100   -3.232000   -0.651000
  C     -1.511600   -0.506400   -1.312800
  C     -1.585200    0.194200   -2.531500
  C     -2.794800    0.747600   -2.961200
  C     -3.945500    0.610600   -2.180200
  C     -3.886300   -0.074500   -0.965000
  C     -2.679000   -0.629400   -0.530900
  H      1.600200    0.545700   -2.461400
  H      2.945400    1.547000   -1.820100
  H      1.252900    2.094800   -1.622200
  H      2.087200    1.292400    0.473800
  H      2.724200   -1.429600   -2.108100
  H      4.425000   -3.159200   -1.776800
  H      5.623700   -3.348300    0.377700
  H      3.373800   -0.041200    1.934800
  H     -0.721600    2.277800   -0.545400
  H     -2.526600    3.939300   -0.419900
  H     -4.046800    3.986800    1.536900
  H     -3.737500    2.365700    3.386900
  H     -1.920700    0.707100    3.294100
  H      0.451400   -1.226600   -1.721900
  H      1.310800   -2.243100    1.258300
  H      0.455300   -3.810900    1.261000
  H     -0.704900    0.319000   -3.150400
  H     -2.839300    1.288400   -3.897300
  H     -4.880700    1.045800   -2.510400
  H     -4.773300   -0.164900   -0.351000
  H     -2.649500   -1.132600    0.426200

----------------------------
CARTESIAN COORDINATES (A.U.)
----------------------------
  NO LB      ZA    FRAG     MASS         X           Y           Z
   0 C     6.0000    0    12.011    3.604464    2.268616   -3.068348
   1 C     6.0000    0    12.011    3.496371    0.921053   -0.493785
   2 C     6.0000    0    12.011    5.517244   -1.099632   -0.213539
   3 C     6.0000    0    12.011    6.093800   -2.805109   -2.178287
   4 C     6.0000    0    12.011    7.929291   -4.672159   -1.836058
   5 C     6.0000    0    12.011    9.205990   -4.873982    0.463928
   6 C     6.0000    0    12.011    8.645686   -3.207621    2.433589
   7 Cl   17.0000    0    35.453   10.226442   -3.479742    5.332618
   8 C     6.0000    0    12.011    6.807738   -1.336414    2.101375
   9 N     7.0000    0    14.007    0.948076   -0.086927    0.086360
  10 C     6.0000    0    12.011   -0.185193    0.645908    2.456833
  11 O     8.0000    0    15.999    0.633436   -0.313506    4.480541
  12 C     6.0000    0    12.011   -2.220617    2.568705    2.577209
  13 C     6.0000    0    12.011   -2.571539    4.321615    0.609437
  14 C     6.0000    0    12.011   -4.519280    6.103060    0.731891
  15 C     6.0000    0    12.011   -6.137264    6.155594    2.816448
  16 C     6.0000    0    12.011   -5.805995    4.429518    4.784976
  17 C     6.0000    0    12.011   -3.849939    2.655254    4.678395
  18 C     6.0000    0    12.011   -0.324466   -1.966638   -1.561103
  19 C     6.0000    0    12.011   -0.576744   -4.557453   -0.340340
  20 N     7.0000    0    14.007    1.054089   -5.380428    1.645574
  21 O     8.0000    0    15.999   -2.154477   -6.107595   -1.230212
  22 C     6.0000    0    12.011   -2.856510   -0.956957   -2.480832
  23 C     6.0000    0    12.011   -2.995594    0.366985   -4.783842
  24 C     6.0000    0    12.011   -5.281407    1.412759   -5.595857
  25 C     6.0000    0    12.011   -7.455914    1.153867   -4.119981
  26 C     6.0000    0    12.011   -7.344043   -0.140785   -1.823586
  27 C     6.0000    0    12.011   -5.062576   -1.189394   -1.003256
  28 H     1.0000    0     1.008    3.023940    1.031224   -4.651372
  29 H     1.0000    0     1.008    5.565999    2.923406   -3.439491
  30 H     1.0000    0     1.008    2.367638    3.958598   -3.065514
  31 H     1.0000    0     1.008    3.944236    2.442282    0.895352
  32 H     1.0000    0     1.008    5.147992   -2.701552   -3.983732
  33 H     1.0000    0     1.008    8.362038   -5.970023   -3.357665
  34 H     1.0000    0     1.008   10.627253   -6.327370    0.713750
  35 H     1.0000    0     1.008    6.375558   -0.077857    3.656242
  36 H     1.0000    0     1.008   -1.363626    4.304418   -1.030657
  37 H     1.0000    0     1.008   -4.774582    7.444198   -0.793496
  38 H     1.0000    0     1.008   -7.647344    7.533960    2.904320
  39 H     1.0000    0     1.008   -7.062851    4.470525    6.400313
  40 H     1.0000    0     1.008   -3.629597    1.336225    6.224947
  41 H     1.0000    0     1.008    0.853022   -2.317938   -3.253919
  42 H     1.0000    0     1.008    2.477053   -4.238845    2.377842
  43 H     1.0000    0     1.008    0.860392   -7.201557    2.382945
  44 H     1.0000    0     1.008   -1.332068    0.602823   -5.953393
  45 H     1.0000    0     1.008   -5.365499    2.434723   -7.364830
  46 H     1.0000    0     1.008   -9.223186    1.976276   -4.743968
  47 H     1.0000    0     1.008   -9.020230   -0.311616   -0.663294
  48 H     1.0000    0     1.008   -5.006829   -2.140304    0.805401

--------------------------------
INTERNAL COORDINATES (ANGSTROEM)
--------------------------------
 C      0   0   0     0.000000000000     0.00000000     0.00000000
 C      1   0   0     1.538803824404     0.00000000     0.00000000
 C      2   1   0     1.519543266906   112.72752191     0.00000000
 C      3   2   1     1.410166071780   122.05091086   316.73282759
 C      4   3   2     1.397270517831   120.48915916   181.28592274
 C      5   4   3     1.396128221189   120.22956549     0.26202273
 C      6   5   4     1.397094406259   119.96033055     0.10847076
 Cl     7   6   5     1.753262975141   119.97985371   179.37850447
 C      7   6   5     1.399054123328   120.03360227   359.95308718
 N      2   1   3     1.482301187344   112.57802162   232.78107737
 C     10   2   1     1.443450134227   117.46901603   233.85288185
 O     11  10   2     1.261843231150   119.13045483   286.20637650
 C     11  10   2     1.483073952977   121.55945130   103.87494766
 C     13  11  10     1.406851783238   121.09329199   339.07136279
 C     14  13  11     1.398293538568   120.49824177   179.14866263
 C     15  14  13     1.396667780827   120.12533864     0.00000000
 C     16  15  14     1.396484350073   119.94582810     0.14294841
 C     17  16  15     1.398622958485   120.12591436     0.28343430
 C     10   2   1     1.484227371396   122.15828025    59.48110530
 C     19  10   2     1.521439860790   113.22387714   111.26376589
 N     20  19  10     1.427872564342   122.29695703   336.58085625
 O     20  19  10     1.261624710443   119.04450342   161.93256579
 C     19  10   2     1.522394623611   110.60301337   237.91862967
 C     23  19  10     1.407653014773   119.83302284    91.66851221
 C     24  23  19     1.397864732369   120.55836097   183.13007536
 C     25  24  23     1.397440692838   120.12738232     0.07752967
 C     26  25  24     1.396272784953   119.97302244     0.31824599
 C     27  26  25     1.397830501170   120.11111466   359.69552998
 H      1   2   3     1.106741238953   112.68368246    69.63725432
 H      1   2   3     1.111790992048   109.60490933   309.28286236
 H      1   2   3     1.108217031993   110.53679462   191.01125804
 H      2   1   3     1.115601187701   103.95161161   115.62355516
 H      4   3   2     1.079950207185   121.29953439     1.72281304
 H      5   4   3     1.082812209019   119.94201593   180.15322538
 H      6   5   4     1.083810896790   119.76372736   180.00775852
 H      9   7   6     1.082986394190   119.11663429   179.07950288
 H     14  13  11     1.077919227030   120.80460555   359.94607045
 H     15  14  13     1.083281099254   119.93898975   180.03380167
 H     16  15  14     1.082934633300   119.97860970   180.16289397
 H     17  16  15     1.083287561084   119.89663710   180.05461421
 H     18  17  16     1.081932585700   118.83845591   180.01490591
 H     19  10   2     1.106919175008   109.42083784   355.78797250
 H     21  20  19     1.040241346996   122.31307629     1.04627045
 H     21  20  19     1.044739192335   119.79698684   182.38426180
 H     24  23  19     1.083300669251   120.62860267     2.78776170
 H     25  24  23     1.082001894638   119.96072505   179.69953523
 H     26  25  24     1.083065150395   120.08161755   179.55906320
 H     27  26  25     1.082560464824   119.99039671   178.86097514
 H     28  27  26     1.081721267240   118.88116244   178.35178772

---------------------------
INTERNAL COORDINATES (A.U.)
---------------------------
 C      0   0   0     0.000000000000     0.00000000     0.00000000
 C      1   0   0     2.907917801954     0.00000000     0.00000000
 C      2   1   0     2.871520623097   112.72752191     0.00000000
 C      3   2   1     2.664827679012   122.05091086   316.73282759
 C      4   3   2     2.640458613703   120.48915916   181.28592274
 C      5   4   3     2.638299985886   120.22956549     0.26202273
 C      6   5   4     2.640125811063   119.96033055     0.10847076
 Cl     7   6   5     3.313186863760   119.97985371   179.37850447
 C      7   6   5     2.643829139622   120.03360227   359.95308718
 N      2   1   3     2.801143292066   112.57802162   232.78107737
 C     10   2   1     2.727725441661   117.46901603   233.85288185
 O     11  10   2     2.384538130816   119.13045483   286.20637650
 C     11  10   2     2.802603607479   121.55945130   103.87494766
 C     13  11  10     2.658564581339   121.09329199   339.07136279
 C     14  13  11     2.642391842724   120.49824177   179.14866263
 C     15  14  13     2.639319605834   120.12533864     0.00000000
 C     16  15  14     2.638972971946   119.94582810     0.14294841
 C     17  16  15     2.643014356150   120.12591436     0.28343430
 C     10   2   1     2.804783252408   122.15828025    59.48110530
 C     19  10   2     2.875104666124   113.22387714   111.26376589
 N     20  19  10     2.698288100746   122.29695703   336.58085625
 O     20  19  10     2.384125186525   119.04450342   161.93256579
 C     19  10   2     2.876908906379   110.60301337   237.91862967
 C     23  19  10     2.660078689510   119.83302284    91.66851221
 C     24  23  19     2.641581516444   120.55836097   183.13007536
 C     25  24  23     2.640780197861   120.12738232     0.07752967
 C     26  25  24     2.638573171808   119.97302244     0.31824599
 C     27  26  25     2.641516828852   120.11111466   359.69552998
 H      1   2   3     2.091437842739   112.68368246    69.63725432
 H      1   2   3     2.100980493132   109.60490933   309.28286236
 H      1   2   3     2.094226687414   110.53679462   191.01125804
 H      2   1   3     2.108180719432   103.95161161   115.62355516
 H      4   3   2     2.040810129852   121.29953439     1.72281304
 H      5   4   3     2.046218529512   119.94201593   180.15322538
 H      6   5   4     2.048105775892   119.76372736   180.00775852
 H      9   7   6     2.046547691781   119.11663429   179.07950288
 H     14  13  11     2.036972133574   120.80460555   359.94607045
 H     15  14  13     2.047104603642   119.93898975   180.03380167
 H     16  15  14     2.046449877875   119.97860970   180.16289397
 H     17  16  15     2.047116814733   119.89663710   180.05461421
 H     18  17  16     2.044556282339   118.83845591   180.01490591
 H     19  10   2     2.091774093151   109.42083784   355.78797250
 H     21  20  19     1.965771259004   122.31307629     1.04627045
 H     21  20  19     1.974270954887   119.79698684   182.38426180
 H     24  23  19     2.047141585578   120.62860267     2.78776170
 H     25  24  23     2.044687257250   119.96072505   179.69953523
 H     26  25  24     2.046696519441   120.08161755   179.55906320
 H     27  26  25     2.045742801928   119.99039671   178.86097514
 H     28  27  26     2.044156948322   118.88116244   178.35178772

---------------------
BASIS SET INFORMATION
---------------------
There are 5 groups of distinct atoms

 Group   1 Type C   : 10s4p1d contracted to 3s2p1d pattern {631/31/1}
 Group   2 Type Cl  : 16s10p1d contracted to 4s3p1d pattern {6631/631/1}
 Group   3 Type N   : 10s4p1d contracted to 3s2p1d pattern {631/31/1}
 Group   4 Type O   : 10s4p1d contracted to 3s2p1d pattern {631/31/1}
 Group   5 Type H   : 4s contracted to 2s pattern {31}

Atom   0C    basis set group =>   1
Atom   1C    basis set group =>   1
Atom   2C    basis set group =>   1
Atom   3C    basis set group =>   1
Atom   4C    basis set group =>   1
Atom   5C    basis set group =>   1
Atom   6C    basis set group =>   1
Atom   7Cl   basis set group =>   2
Atom   8C    basis set group =>   1
Atom   9N    basis set group =>   3
Atom  10C    basis set group =>   1
Atom  11O    basis set group =>   4
Atom  12C    basis set group =>   1
Atom  13C    basis set group =>   1
Atom  14C    basis set group =>   1
Atom  15C    basis set group =>   1
Atom  16C    basis set group =>   1
Atom  17C    basis set group =>   1
Atom  18C    basis set group =>   1
Atom  19C    basis set group =>   1
Atom  20N    basis set group =>   3
Atom  21O    basis set group =>   4
Atom  22C    basis set group =>   1
Atom  23C    basis set group =>   1
Atom  24C    basis set group =>   1
Atom  25C    basis set group =>   1
Atom  26C    basis set group =>   1
Atom  27C    basis set group =>   1
Atom  28H    basis set group =>   5
Atom  29H    basis set group =>   5
Atom  30H    basis set group =>   5
Atom  31H    basis set group =>   5
Atom  32H    basis set group =>   5
Atom  33H    basis set group =>   5
Atom  34H    basis set group =>   5
Atom  35H    basis set group =>   5
Atom  36H    basis set group =>   5
Atom  37H    basis set group =>   5
Atom  38H    basis set group =>   5
Atom  39H    basis set group =>   5
Atom  40H    basis set group =>   5
Atom  41H    basis set group =>   5
Atom  42H    basis set group =>   5
Atom  43H    basis set group =>   5
Atom  44H    basis set group =>   5
Atom  45H    basis set group =>   5
Atom  46H    basis set group =>   5
Atom  47H    basis set group =>   5
Atom  48H    basis set group =>   5
---------------------------------
AUXILIARY/J BASIS SET INFORMATION
---------------------------------
There are 5 groups of distinct atoms

 Group   1 Type C   : 12s5p4d2f1g contracted to 6s4p3d1f1g pattern {711111/2111/211/2/1}
 Group   2 Type Cl  : 14s5p5d2f1g contracted to 8s4p3d1f1g pattern {71111111/2111/311/2/1}
 Group   3 Type N   : 12s5p4d2f1g contracted to 6s4p3d1f1g pattern {711111/2111/211/2/1}
 Group   4 Type O   : 12s5p4d2f1g contracted to 6s4p3d1f1g pattern {711111/2111/211/2/1}
 Group   5 Type H   : 5s2p1d contracted to 3s1p1d pattern {311/2/1}

Atom   0C    basis set group =>   1
Atom   1C    basis set group =>   1
Atom   2C    basis set group =>   1
Atom   3C    basis set group =>   1
Atom   4C    basis set group =>   1
Atom   5C    basis set group =>   1
Atom   6C    basis set group =>   1
Atom   7Cl   basis set group =>   2
Atom   8C    basis set group =>   1
Atom   9N    basis set group =>   3
Atom  10C    basis set group =>   1
Atom  11O    basis set group =>   4
Atom  12C    basis set group =>   1
Atom  13C    basis set group =>   1
Atom  14C    basis set group =>   1
Atom  15C    basis set group =>   1
Atom  16C    basis set group =>   1
Atom  17C    basis set group =>   1
Atom  18C    basis set group =>   1
Atom  19C    basis set group =>   1
Atom  20N    basis set group =>   3
Atom  21O    basis set group =>   4
Atom  22C    basis set group =>   1
Atom  23C    basis set group =>   1
Atom  24C    basis set group =>   1
Atom  25C    basis set group =>   1
Atom  26C    basis set group =>   1
Atom  27C    basis set group =>   1
Atom  28H    basis set group =>   5
Atom  29H    basis set group =>   5
Atom  30H    basis set group =>   5
Atom  31H    basis set group =>   5
Atom  32H    basis set group =>   5
Atom  33H    basis set group =>   5
Atom  34H    basis set group =>   5
Atom  35H    basis set group =>   5
Atom  36H    basis set group =>   5
Atom  37H    basis set group =>   5
Atom  38H    basis set group =>   5
Atom  39H    basis set group =>   5
Atom  40H    basis set group =>   5
Atom  41H    basis set group =>   5
Atom  42H    basis set group =>   5
Atom  43H    basis set group =>   5
Atom  44H    basis set group =>   5
Atom  45H    basis set group =>   5
Atom  46H    basis set group =>   5
Atom  47H    basis set group =>   5
Atom  48H    basis set group =>   5
------------------------------------------------------------------------------
                             ORCA STARTUP CALCULATIONS
                           -- RI-GTO INTEGRALS CHOSEN --
------------------------------------------------------------------------------
------------------------------------------------------------------------------
                   ___                                                        
                  /   \      - P O W E R E D   B Y -                         
                 /     \                                                     
                 |  |  |   _    _      __       _____    __    __             
                 |  |  |  | |  | |    /  \     |  _  \  |  |  /  |          
                  \  \/   | |  | |   /    \    | | | |  |  | /  /          
                 / \  \   | |__| |  /  /\  \   | |_| |  |  |/  /          
                |  |  |   |  __  | /  /__\  \  |    /   |      \           
                |  |  |   | |  | | |   __   |  |    \   |  |\   \          
                \     /   | |  | | |  |  |  |  | |\  \  |  | \   \       
                 \___/    |_|  |_| |__|  |__|  |_| \__\ |__|  \__/        
                                                                              
                      - O R C A' S   B I G   F R I E N D -                    
                                      &                                       
                       - I N T E G R A L  F E E D E R -                       
                                                                              
 v1 FN, 2020, v2 2021, v3 2022-2024                                           
------------------------------------------------------------------------------


----------------------
SHARK INTEGRAL PACKAGE
----------------------

Number of atoms                             ...     49
Number of basis functions                   ...    438
Number of shells                            ...    212
Maximum angular momentum                    ...      2
Integral batch strategy                     ... SHARK/LIBINT Hybrid
RI-J (if used) integral strategy            ... SPLIT-RIJ (Revised 2003 algorithm where possible)
Printlevel                                  ...      1
Contraction scheme used                     ... SEGMENTED contraction
Prescreening option                         ... SCHWARTZ
   Thresh                                   ... 1.000e-10
   Tcut                                     ... 1.000e-11
   Tpresel                                  ... 1.000e-11 
Coulomb Range Separation                    ... NOT USED
Exchange Range Separation                   ... NOT USED
Multipole approximations                    ... NOT USED
Finite Nucleus Model                        ... NOT USED
CABS basis                                  ... NOT available
Auxiliary Coulomb fitting basis             ... AVAILABLE
   # of basis functions in Aux-J            ...   1605
   # of shells in Aux-J                     ...    527
   Maximum angular momentum in Aux-J        ...      4
Auxiliary J/K fitting basis                 ... NOT available
Auxiliary Correlation fitting basis         ... NOT available
Auxiliary 'external' fitting basis          ... NOT available

Checking pre-screening integrals            ... done (  0.0 sec) Dimension = 212
Check shell pair data                       ... done (  0.0 sec)
Shell pair information
Shell pair cut-off parameter TPreSel        ...   1.0e-11
Total number of shell pairs                 ...     22578
Shell pairs after pre-screening             ...     15831
Total number of primitive shell pairs       ...    134067
Primitive shell pairs kept                  ...     48132
          la=0 lb=0:   5372 shell pairs
          la=1 lb=0:   5505 shell pairs
          la=1 lb=1:   1400 shell pairs
          la=2 lb=0:   2146 shell pairs
          la=2 lb=1:   1179 shell pairs
          la=2 lb=2:    229 shell pairs

Calculating one electron integrals          ... done (  0.2 sec)
Calculating RI/J V-Matrix + Cholesky decomp.... done (  0.4 sec)
Calculating Nuclear repulsion               ... done (  0.0 sec) ENN=   2754.576939227947 Eh

Diagonalization of the overlap matrix:
Smallest eigenvalue                        ... 4.657e-04
Time for diagonalization                   ...    0.030 sec
Threshold for overlap eigenvalues          ... 1.000e-07
Number of eigenvalues below threshold      ... 0
Time for construction of square roots      ...    0.035 sec
Total time needed                          ...    0.078 sec

-------------------
DFT GRID GENERATION
-------------------

General Integration Accuracy     IntAcc      ... 4.388
Radial Grid Type                 RadialGrid  ... OptM3 with GC (2021)
Angular Grid (max. ang.)         AngularGrid ... 4 (Lebedev-302)
Angular grid pruning method      GridPruning ... 4 (adaptive)
Weight generation scheme         WeightScheme... mBecke (2022)
Basis function cutoff            BFCut       ... 1.0000e-10
Integration weight cutoff        WCut        ... 1.0000e-14
Partially contracted basis set               ... off
Rotationally invariant grid construction     ... off
Angular grids for H and He will be reduced by one unit

Total number of grid points                  ...   234177
Total number of batches                      ...     3683
Average number of points per batch           ...       63
Average number of grid points per atom       ...     4779

--------------------
COSX GRID GENERATION
--------------------

GRIDX 1
-------
General Integration Accuracy     IntAcc      ... 3.816
Radial Grid Type                 RadialGrid  ... OptM3 with GC (2021)
Angular Grid (max. ang.)         AngularGrid ... 1 (Lebedev-50)
Angular grid pruning method      GridPruning ... 4 (adaptive)
Weight generation scheme         WeightScheme... mBecke (2022)
Basis function cutoff            BFCut       ... 1.0000e-10
Integration weight cutoff        WCut        ... 1.0000e-14
Partially contracted basis set               ... on
Rotationally invariant grid construction     ... off
Angular grids for H and He will be reduced by one unit

Total number of grid points                  ...    30691
Total number of batches                      ...      263
Average number of points per batch           ...      116
Average number of grid points per atom       ...      626
UseSFitting                                  ... on

GRIDX 2
-------
General Integration Accuracy     IntAcc      ... 4.020
Radial Grid Type                 RadialGrid  ... OptM3 with GC (2021)
Angular Grid (max. ang.)         AngularGrid ... 2 (Lebedev-110)
Angular grid pruning method      GridPruning ... 4 (adaptive)
Weight generation scheme         WeightScheme... mBecke (2022)
Basis function cutoff            BFCut       ... 1.0000e-10
Integration weight cutoff        WCut        ... 1.0000e-14
Partially contracted basis set               ... on
Rotationally invariant grid construction     ... off
Angular grids for H and He will be reduced by one unit

Total number of grid points                  ...    63876
Total number of batches                      ...      529
Average number of points per batch           ...      120
Average number of grid points per atom       ...     1304
UseSFitting                                  ... on

GRIDX 3
-------
General Integration Accuracy     IntAcc      ... 4.338
Radial Grid Type                 RadialGrid  ... OptM3 with GC (2021)
Angular Grid (max. ang.)         AngularGrid ... 3 (Lebedev-194)
Angular grid pruning method      GridPruning ... 4 (adaptive)
Weight generation scheme         WeightScheme... mBecke (2022)
Basis function cutoff            BFCut       ... 1.0000e-10
Integration weight cutoff        WCut        ... 1.0000e-14
Partially contracted basis set               ... on
Rotationally invariant grid construction     ... off
Angular grids for H and He will be reduced by one unit

Total number of grid points                  ...   139935
Total number of batches                      ...     1117
Average number of points per batch           ...      125
Average number of grid points per atom       ...     2856
UseSFitting                                  ... on
Initializing property integral containers    ... done (  0.0 sec)

SHARK setup successfully completed in   9.9 seconds

Maximum memory used throughout the entire STARTUP-calculation: 105.2 MB
-------------------------------------------------------------------------------
                                 ORCA GUESS
                   Start orbitals & Density for SCF / CASSCF
-------------------------------------------------------------------------------

------------
SCF SETTINGS
------------
Hamiltonian:
 Density Functional     Method          .... DFT(GTOs)
 Exchange Functional    Exchange        .... B88
   X-Alpha parameter    XAlpha          ....  0.666667
   Becke's b parameter  XBeta           ....  0.004200
 Correlation Functional Correlation     .... LYP
 LDA part of GGA corr.  LDAOpt          .... VWN-5
 Gradients option       PostSCFGGA      .... off
 Hybrid DFT is turned on
   Fraction HF Exchange ScalHFX         ....  0.200000
   Scaling of DF-GGA-X  ScalDFX         ....  0.720000
   Scaling of DF-GGA-C  ScalDFC         ....  0.810000
   Scaling of DF-LDA-C  ScalLDAC        ....  1.000000
   Perturbative correction              ....  0.000000
   NL short-range parameter             ....  4.800000
 RI-approximation to the Coulomb term is turned on
   Number of AuxJ basis functions       .... 1605
   RIJ-COSX (HFX calculated with COS-X)).... on


General Settings:
 Integral files         IntName         .... /home/nmrbox/aojoawo/Documents/ERDOS/inputs/CHEMBL3898642
 Hartree-Fock type      HFTyp           .... RHF
 Total Charge           Charge          ....    0
 Multiplicity           Mult            ....    1
 Number of Electrons    NEL             ....  206
 Basis Dimension        Dim             ....  438
 Nuclear Repulsion      ENuc            ....   2754.5769392279 Eh

Convergence Acceleration:
 AO-DIIS                CNVDIIS         .... on
   Start iteration      DIISMaxIt       ....    12
   Startup error        DIISStart       ....  0.200000
   # of expansion vecs  DIISMaxEq       ....     5
   Bias factor          DIISBfac        ....   1.050
   Max. coefficient     DIISMaxC        ....  10.000
 MO-DIIS                CNVKDIIS        .... off
 Trust-Rad. Augm. Hess. CNVTRAH         .... auto
   Auto Start mean grad. ratio tolernc. ....  1.125000
   Auto Start start iteration           ....    50
   Auto Start num. interpolation iter.  ....    10
   Max. Number of Micro iterations      ....    24
   Max. Number of Macro iterations      .... Maxiter - #DIIS iter
   Number of Davidson start vectors     ....     2
   Converg. threshold    (grad. norm)   ....   5.000e-05
   Grad. Scal. Fac. for Micro threshold ....   0.100
   Minimum threshold for Micro iter.    ....   1.000e-02
   NR start threshold (gradient norm)   ....   1.000e-04
   Initial trust radius                 ....   0.400
   Minimum AH scaling param. (alpha)    ....   1.000
   Maximum AH scaling param. (alpha)    .... 1000.000
   Quad. conv. algorithm                .... NR
   White noise on init. David. guess    .... on
   Maximum white noise                  ....   0.010
   Pseudo random numbers                .... off
   Inactive MOs                         .... canonical
   Orbital update algorithm             .... Taylor
   Preconditioner                       .... Diag
   Full preconditioner red. dimension   ....   250
 SOSCF                  CNVSOSCF        .... on
   Start iteration      SOSCFMaxIt      ....   150
   Startup grad/error   SOSCFStart      ....  0.003300
   Hessian update       SOSCFHessUp     .... L-BFGS
 Level Shifting         CNVShift        .... on
   Level shift para.    LevelShift      ....    0.2500
   Turn off err/grad.   ShiftErr        ....    0.0010
 Zerner damping         CNVZerner       .... off
 Static damping         CNVDamp         .... on
   Fraction old density DampFac         ....    0.7000
   Max. Damping (<1)    DampMax         ....    0.9800
   Min. Damping (>=0)   DampMin         ....    0.0000
   Turn off err/grad.   DampErr         ....    0.1000

SCF Procedure:
 Maximum # iterations   MaxIter         ....   125
 SCF integral mode      SCFMode         .... Direct
   Integral package                     .... SHARK and LIBINT hybrid scheme
 Reset frequency        DirectResetFreq ....    20
 Integral Threshold     Thresh          ....  1.000e-10 Eh
 Primitive CutOff       TCut            ....  1.000e-11 Eh

Convergence Tolerance:
 Convergence Check Mode ConvCheckMode   .... Total+1el-Energy
 Convergence forced     ConvForced      .... 0
 Energy Change          TolE            ....  1.000e-06 Eh
 1-El. energy change                    ....  1.000e-03 Eh
 Orbital Gradient       TolG            ....  5.000e-05
 Orbital Rotation angle TolX            ....  5.000e-05
 DIIS Error             TolErr          ....  1.000e-06

------------------------------
INITIAL GUESS: MODEL POTENTIAL
------------------------------
Loading Hartree-Fock densities                     ... done
Calculating cut-offs                               ... done
Initializing the effective Hamiltonian             ... done
Setting up the integral package (SHARK)            ... done
Starting the Coulomb interaction                   ... done (   2.1 sec)
Making the grid                                    ... done (   1.4 sec)
Mapping shells                                     ... done
Starting the XC term evaluation                    ... done (   1.0 sec)
  promolecular density results
     # of electrons  =    205.977201504
     EX              =   -181.458649082
     EC              =     -7.117064814
     EX+EC           =   -188.575713896
Transforming the Hamiltonian                       ... done (   0.0 sec)
Diagonalizing the Hamiltonian                      ... done (   0.0 sec)
Back transforming the eigenvectors                 ... done (   0.0 sec)
Now organizing SCF variables                       ... done
                      ------------------
                      INITIAL GUESS DONE (   4.7 sec)
                      ------------------
             **** ENERGY FILE WAS UPDATED (/home/nmrbox/aojoawo/Documents/ERDOS/inputs/CHEMBL3898642.en.tmp) ****
Finished Guess after   5.0 sec
Maximum memory used throughout the entire GUESS-calculation: 57.4 MB

-------------------------------------------------------------------------------------------
                                      ORCA LEAN-SCF
                              memory conserving SCF solver
-------------------------------------------------------------------------------------------

----------------------------------------D-I-I-S--------------------------------------------
Iteration    Energy (Eh)           Delta-E    RMSDP     MaxDP     DIISErr   Damp  Time(sec)
-------------------------------------------------------------------------------------------
               ***  Starting incremental Fock matrix formation  ***
    1    -1607.7366762153192212     0.00e+00  2.21e-03  1.05e-01  2.79e-01  0.700  53.9
    2    -1608.0595046261955758    -3.23e-01  1.46e-03  5.56e-02  1.01e-01  0.700  25.2
                               ***Turning on AO-DIIS***
    3    -1608.1833119234756850    -1.24e-01  6.11e-04  1.55e-02  3.73e-02  0.700  25.2
    4    -1608.2595667180089549    -7.63e-02  9.89e-04  3.08e-02  1.54e-02  0.000  22.1
    5    -1608.4268591429186017    -1.67e-01  2.38e-04  8.65e-03  6.27e-03  0.000  24.0
                              *** Initializing SOSCF ***
---------------------------------------S-O-S-C-F--------------------------------------
Iteration    Energy (Eh)           Delta-E    RMSDP     MaxDP     MaxGrad    Time(sec)
--------------------------------------------------------------------------------------
    6    -1608.4281557411645736    -1.30e-03  6.91e-05  2.27e-03  2.45e-03    20.1
               *** Restarting incremental Fock matrix formation ***
    7    -1608.4283541583686201    -1.98e-04  5.25e-05  2.59e-03  2.99e-04    53.6
    8    -1608.4283344707960168     1.97e-05  2.84e-05  1.94e-03  6.65e-04    31.3
    9    -1608.4283654647210824    -3.10e-05  1.29e-05  5.15e-04  9.98e-05    24.6
   10    -1608.4283639669179138     1.50e-06  7.76e-06  3.47e-04  1.81e-04    23.2
   11    -1608.4283661457134258    -2.18e-06  3.27e-06  1.13e-04  3.16e-05    20.7
   12    -1608.4283661463027784    -5.89e-10  1.96e-06  7.44e-05  5.14e-05    17.9
                 **** Energy Check signals convergence ****

               *****************************************************
               *                     SUCCESS                       *
               *           SCF CONVERGED AFTER  12 CYCLES          *
               *****************************************************

Recomputing exchange energy using gridx3       ... done (   99.243 sec)
Old exchange energy                            :    -36.780086261 Eh
New exchange energy                            :    -36.780078461 Eh
Exchange energy change after final integration :      0.000007800 Eh
Total energy after final integration           :  -1608.428358346 Eh
             **** ENERGY FILE WAS UPDATED (/home/nmrbox/aojoawo/Documents/ERDOS/inputs/CHEMBL3898642.en.tmp) ****

----------------
TOTAL SCF ENERGY
----------------

Total Energy       :      -1608.42835834598895 Eh          -43767.56073 eV

Components:
Nuclear Repulsion  :       2754.57693922794670 Eh           74955.84920 eV
Electronic Energy  :      -4363.00530537424856 Eh         -118723.41014 eV
One Electron Energy:      -7674.68394716299008 Eh         -208838.76736 eV
Two Electron Energy:       3311.67864178874106 Eh           90115.35722 eV

Virial components:
Potential Energy   :      -3208.66884413138405 Eh          -87312.31812 eV
Kinetic Energy     :       1600.24048578539509 Eh           43544.75739 eV
Virial Ratio       :          2.00511665129918

DFT components:
N(Alpha)           :      103.000168933693 electrons
N(Beta)            :      103.000168933693 electrons
N(Total)           :      206.000337867386 electrons
E(X)               :     -146.054403921480 Eh       
E(C)               :       -8.374740737316 Eh       
E(XC)              :     -154.429144658796 Eh       

---------------
SCF CONVERGENCE
---------------

  Last Energy change         ...    5.8935e-10  Tolerance :   1.0000e-06
  Last MAX-Density change    ...    7.4397e-05  Tolerance :   1.0000e-05
  Last RMS-Density change    ...    1.9644e-06  Tolerance :   1.0000e-06
  Last DIIS Error            ...    2.4501e-03  Tolerance :   1.0000e-06
  Last Orbital Gradient      ...    5.1388e-05  Tolerance :   5.0000e-05
  Last Orbital Rotation      ...    7.1537e-05  Tolerance :   5.0000e-05


----------------
ORBITAL ENERGIES
----------------

  NO   OCC          E(Eh)            E(eV) 
   0   2.0000    -101.529043     -2762.7457 
   1   2.0000     -19.136946      -520.7428 
   2   2.0000     -19.095318      -519.6100 
   3   2.0000     -14.338404      -390.1678 
   4   2.0000     -14.335368      -390.0852 
   5   2.0000     -10.301219      -280.3104 
   6   2.0000     -10.279302      -279.7140 
   7   2.0000     -10.250244      -278.9233 
   8   2.0000     -10.241365      -278.6817 
   9   2.0000     -10.240708      -278.6638 
  10   2.0000     -10.205875      -277.7160 
  11   2.0000     -10.201246      -277.5900 
  12   2.0000     -10.198850      -277.5248 
  13   2.0000     -10.198410      -277.5129 
  14   2.0000     -10.198340      -277.5109 
  15   2.0000     -10.195502      -277.4337 
  16   2.0000     -10.195209      -277.4257 
  17   2.0000     -10.194406      -277.4039 
  18   2.0000     -10.193327      -277.3745 
  19   2.0000     -10.191717      -277.3307 
  20   2.0000     -10.190925      -277.3092 
  21   2.0000     -10.190700      -277.3031 
  22   2.0000     -10.188464      -277.2422 
  23   2.0000     -10.181395      -277.0498 
  24   2.0000     -10.179552      -276.9997 
  25   2.0000     -10.177819      -276.9525 
  26   2.0000     -10.177281      -276.9379 
  27   2.0000     -10.176625      -276.9201 
  28   2.0000      -9.460957      -257.4457 
  29   2.0000      -7.223972      -196.5743 
  30   2.0000      -7.214588      -196.3189 
  31   2.0000      -7.214236      -196.3093 
  32   2.0000      -1.028332       -27.9823 
  33   2.0000      -0.996341       -27.1118 
  34   2.0000      -0.925080       -25.1727 
  35   2.0000      -0.890266       -24.2254 
  36   2.0000      -0.860613       -23.4185 
  37   2.0000      -0.857475       -23.3331 
  38   2.0000      -0.848272       -23.0827 
  39   2.0000      -0.838529       -22.8175 
  40   2.0000      -0.793609       -21.5952 
  41   2.0000      -0.769669       -20.9438 
  42   2.0000      -0.756823       -20.5942 
  43   2.0000      -0.750836       -20.4313 
  44   2.0000      -0.745303       -20.2807 
  45   2.0000      -0.738672       -20.1003 
  46   2.0000      -0.728507       -19.8237 
  47   2.0000      -0.700268       -19.0553 
  48   2.0000      -0.655037       -17.8245 
  49   2.0000      -0.630687       -17.1619 
  50   2.0000      -0.615254       -16.7419 
  51   2.0000      -0.610547       -16.6138 
  52   2.0000      -0.604604       -16.4521 
  53   2.0000      -0.595137       -16.1945 
  54   2.0000      -0.584281       -15.8991 
  55   2.0000      -0.571349       -15.5472 
  56   2.0000      -0.547028       -14.8854 
  57   2.0000      -0.529713       -14.4142 
  58   2.0000      -0.524148       -14.2628 
  59   2.0000      -0.511336       -13.9142 
  60   2.0000      -0.499624       -13.5955 
  61   2.0000      -0.494164       -13.4469 
  62   2.0000      -0.490191       -13.3388 
  63   2.0000      -0.474858       -12.9215 
  64   2.0000      -0.466796       -12.7022 
  65   2.0000      -0.460663       -12.5353 
  66   2.0000      -0.456934       -12.4338 
  67   2.0000      -0.453457       -12.3392 
  68   2.0000      -0.446692       -12.1551 
  69   2.0000      -0.442108       -12.0304 
  70   2.0000      -0.433007       -11.7827 
  71   2.0000      -0.427229       -11.6255 
  72   2.0000      -0.425587       -11.5808 
  73   2.0000      -0.419078       -11.4037 
  74   2.0000      -0.417829       -11.3697 
  75   2.0000      -0.411072       -11.1859 
  76   2.0000      -0.405028       -11.0214 
  77   2.0000      -0.400636       -10.9018 
  78   2.0000      -0.392342       -10.6762 
  79   2.0000      -0.386337       -10.5128 
  80   2.0000      -0.382562       -10.4100 
  81   2.0000      -0.377596       -10.2749 
  82   2.0000      -0.365331        -9.9412 
  83   2.0000      -0.362975        -9.8771 
  84   2.0000      -0.360199        -9.8015 
  85   2.0000      -0.354275        -9.6403 
  86   2.0000      -0.350757        -9.5446 
  87   2.0000      -0.346105        -9.4180 
  88   2.0000      -0.343134        -9.3372 
  89   2.0000      -0.339999        -9.2518 
  90   2.0000      -0.334597        -9.1048 
  91   2.0000      -0.331469        -9.0197 
  92   2.0000      -0.312358        -8.4997 
  93   2.0000      -0.277162        -7.5420 
  94   2.0000      -0.264011        -7.1841 
  95   2.0000      -0.258496        -7.0340 
  96   2.0000      -0.254141        -6.9155 
  97   2.0000      -0.250179        -6.8077 
  98   2.0000      -0.247889        -6.7454 
  99   2.0000      -0.242588        -6.6011 
 100   2.0000      -0.240335        -6.5399 
 101   2.0000      -0.233388        -6.3508 
 102   2.0000      -0.209618        -5.7040 
 103   0.0000      -0.064910        -1.7663 
 104   0.0000      -0.018402        -0.5007 
 105   0.0000      -0.017662        -0.4806 
 106   0.0000      -0.007983        -0.2172 
 107   0.0000       0.000578         0.0157 
 108   0.0000       0.004811         0.1309 
 109   0.0000       0.014463         0.3935 
 110   0.0000       0.030711         0.8357 
 111   0.0000       0.031606         0.8601 
 112   0.0000       0.071865         1.9555 
 113   0.0000       0.080674         2.1953 
*Only the first 10 virtual orbitals were printed.

                    ********************************
                    * MULLIKEN POPULATION ANALYSIS *
                    ********************************

-----------------------
MULLIKEN ATOMIC CHARGES
-----------------------
   0 C :   -0.453013
   1 C :   -0.064918
   2 C :    0.174375
   3 C :   -0.174882
   4 C :   -0.117205
   5 C :   -0.132559
   6 C :   -0.064650
   7 Cl:   -0.014087
   8 C :   -0.197404
   9 N :   -0.451966
  10 C :    0.416919
  11 O :   -0.427204
  12 C :    0.110986
  13 C :   -0.148479
  14 C :   -0.127493
  15 C :   -0.114547
  16 C :   -0.132617
  17 C :   -0.152142
  18 C :   -0.166053
  19 C :    0.553263
  20 N :   -0.766570
  21 O :   -0.483247
  22 C :    0.202873
  23 C :   -0.191420
  24 C :   -0.128855
  25 C :   -0.124092
  26 C :   -0.127373
  27 C :   -0.146822
  28 H :    0.148290
  29 H :    0.157463
  30 H :    0.158678
  31 H :    0.157693
  32 H :    0.131724
  33 H :    0.143651
  34 H :    0.152276
  35 H :    0.163607
  36 H :    0.147993
  37 H :    0.134406
  38 H :    0.136195
  39 H :    0.137221
  40 H :    0.158308
  41 H :    0.180219
  42 H :    0.360853
  43 H :    0.343209
  44 H :    0.117341
  45 H :    0.124735
  46 H :    0.124589
  47 H :    0.129822
  48 H :    0.140909
Sum of atomic charges:   -0.0000000

--------------------------------
MULLIKEN REDUCED ORBITAL CHARGES
--------------------------------
  0 C s       :     3.310073  s :     3.310073
      pz      :     0.987169  p :     3.109222
      px      :     1.072617
      py      :     1.049436
      dz2     :     0.008653  d :     0.033718
      dxz     :     0.002963
      dyz     :     0.008925
      dx2y2   :     0.004941
      dxy     :     0.008236

  1 C s       :     3.216725  s :     3.216725
      pz      :     0.998138  p :     2.787569
      px      :     0.817514
      py      :     0.971917
      dz2     :     0.010115  d :     0.060624
      dxz     :     0.008039
      dyz     :     0.013217
      dx2y2   :     0.013707
      dxy     :     0.015547

  2 C s       :     3.132169  s :     3.132169
      pz      :     0.857309  p :     2.653679
      px      :     0.893907
      py      :     0.902463
      dz2     :     0.009661  d :     0.039777
      dxz     :     0.008643
      dyz     :     0.009458
      dx2y2   :     0.005525
      dxy     :     0.006490

  3 C s       :     3.196874  s :     3.196874
      pz      :     0.973807  p :     2.942338
      px      :     0.995431
      py      :     0.973099
      dz2     :     0.008888  d :     0.035670
      dxz     :     0.008482
      dyz     :     0.006702
      dx2y2   :     0.006113
      dxy     :     0.005486

  4 C s       :     3.188147  s :     3.188147
      pz      :     0.960013  p :     2.892597
      px      :     0.958244
      py      :     0.974340
      dz2     :     0.007715  d :     0.036461
      dxz     :     0.007041
      dyz     :     0.010540
      dx2y2   :     0.005935
      dxy     :     0.005229

  5 C s       :     3.188918  s :     3.188918
      pz      :     0.925441  p :     2.908305
      px      :     0.998701
      py      :     0.984163
      dz2     :     0.009313  d :     0.035337
      dxz     :     0.007214
      dyz     :     0.008247
      dx2y2   :     0.003115
      dxy     :     0.007446

  6 C s       :     3.182136  s :     3.182136
      pz      :     0.845941  p :     2.833654
      px      :     0.974095
      py      :     1.013618
      dz2     :     0.012409  d :     0.048860
      dxz     :     0.011312
      dyz     :     0.010613
      dx2y2   :     0.007821
      dxy     :     0.006706

  7 Cls       :     5.925685  s :     5.925685
      pz      :     3.353617  p :    11.058906
      px      :     3.765632
      py      :     3.939656
      dz2     :     0.010645  d :     0.029496
      dxz     :     0.011475
      dyz     :     0.004274
      dx2y2   :     0.001894
      dxy     :     0.001209

  8 C s       :     3.215273  s :     3.215273
      pz      :     0.987764  p :     2.947007
      px      :     0.967298
      py      :     0.991945
      dz2     :     0.007874  d :     0.035123
      dxz     :     0.006292
      dyz     :     0.009860
      dx2y2   :     0.005645
      dxy     :     0.005452

  9 N s       :     3.532621  s :     3.532621
      pz      :     1.233672  p :     3.888159
      px      :     1.185400
      py      :     1.469087
      dz2     :     0.007021  d :     0.031187
      dxz     :     0.007663
      dyz     :     0.005379
      dx2y2   :     0.005182
      dxy     :     0.005941

 10 C s       :     3.084387  s :     3.084387
      pz      :     0.744703  p :     2.398558
      px      :     0.834315
      py      :     0.819540
      dz2     :     0.035020  d :     0.100137
      dxz     :     0.022718
      dyz     :     0.023236
      dx2y2   :     0.008555
      dxy     :     0.010607

 11 O s       :     3.893391  s :     3.893391
      pz      :     1.487725  p :     4.508681
      px      :     1.530270
      py      :     1.490686
      dz2     :     0.006529  d :     0.025132
      dxz     :     0.006867
      dyz     :     0.007192
      dx2y2   :     0.002780
      dxy     :     0.001763

 12 C s       :     3.160763  s :     3.160763
      pz      :     0.854688  p :     2.689888
      px      :     0.914778
      py      :     0.920423
      dz2     :     0.009733  d :     0.038364
      dxz     :     0.007820
      dyz     :     0.007991
      dx2y2   :     0.004964
      dxy     :     0.007855

 13 C s       :     3.201892  s :     3.201892
      pz      :     0.974331  p :     2.910375
      px      :     0.971069
      py      :     0.964976
      dz2     :     0.006925  d :     0.036212
      dxz     :     0.009951
      dyz     :     0.006644
      dx2y2   :     0.007019
      dxy     :     0.005672

 14 C s       :     3.190580  s :     3.190580
      pz      :     0.965825  p :     2.901097
      px      :     0.949974
      py      :     0.985298
      dz2     :     0.006844  d :     0.035816
      dxz     :     0.006940
      dyz     :     0.009733
      dx2y2   :     0.006499
      dxy     :     0.005800

 15 C s       :     3.191834  s :     3.191834
      pz      :     0.946847  p :     2.886184
      px      :     0.972306
      py      :     0.967031
      dz2     :     0.009871  d :     0.036529
      dxz     :     0.007045
      dyz     :     0.007027
      dx2y2   :     0.003746
      dxy     :     0.008841

 16 C s       :     3.192154  s :     3.192154
      pz      :     0.971964  p :     2.904590
      px      :     0.979072
      py      :     0.953554
      dz2     :     0.007051  d :     0.035873
      dxz     :     0.009961
      dyz     :     0.006364
      dx2y2   :     0.006651
      dxy     :     0.005846

 17 C s       :     3.215355  s :     3.215355
      pz      :     0.976974  p :     2.900926
      px      :     0.956968
      py      :     0.966983
      dz2     :     0.006808  d :     0.035861
      dxz     :     0.007111
      dyz     :     0.009613
      dx2y2   :     0.006780
      dxy     :     0.005549

 18 C s       :     3.252388  s :     3.252388
      pz      :     0.977773  p :     2.854893
      px      :     1.005125
      py      :     0.871995
      dz2     :     0.007629  d :     0.058772
      dxz     :     0.014080
      dyz     :     0.011811
      dx2y2   :     0.015178
      dxy     :     0.010074

 19 C s       :     3.023974  s :     3.023974
      pz      :     0.756525  p :     2.324409
      px      :     0.734863
      py      :     0.833020
      dz2     :     0.020625  d :     0.098355
      dxz     :     0.019194
      dyz     :     0.015457
      dx2y2   :     0.025069
      dxy     :     0.018009

 20 N s       :     3.619312  s :     3.619312
      pz      :     1.433167  p :     4.124904
      px      :     1.414291
      py      :     1.277446
      dz2     :     0.003187  d :     0.022355
      dxz     :     0.004160
      dyz     :     0.005113
      dx2y2   :     0.005115
      dxy     :     0.004780

 21 O s       :     3.884781  s :     3.884781
      pz      :     1.569708  p :     4.573039
      px      :     1.432645
      py      :     1.570686
      dz2     :     0.003566  d :     0.025427
      dxz     :     0.003873
      dyz     :     0.004941
      dx2y2   :     0.006475
      dxy     :     0.006572

 22 C s       :     3.113367  s :     3.113367
      pz      :     0.890695  p :     2.644582
      px      :     0.824231
      py      :     0.929656
      dz2     :     0.008719  d :     0.039177
      dxz     :     0.010793
      dyz     :     0.006113
      dx2y2   :     0.007044
      dxy     :     0.006509

 23 C s       :     3.199327  s :     3.199327
      pz      :     0.978445  p :     2.956095
      px      :     0.975891
      py      :     1.001759
      dz2     :     0.006939  d :     0.035999
      dxz     :     0.011837
      dyz     :     0.004930
      dx2y2   :     0.007326
      dxy     :     0.004966

 24 C s       :     3.186729  s :     3.186729
      pz      :     0.979941  p :     2.905960
      px      :     0.935043
      py      :     0.990976
      dz2     :     0.007626  d :     0.036166
      dxz     :     0.008731
      dyz     :     0.006191
      dx2y2   :     0.006704
      dxy     :     0.006914

 25 C s       :     3.184642  s :     3.184642
      pz      :     0.955256  p :     2.903251
      px      :     0.965795
      py      :     0.982200
      dz2     :     0.008605  d :     0.036199
      dxz     :     0.009614
      dyz     :     0.005474
      dx2y2   :     0.005840
      dxy     :     0.006666

 26 C s       :     3.188242  s :     3.188242
      pz      :     0.955864  p :     2.902947
      px      :     0.974848
      py      :     0.972235
      dz2     :     0.006949  d :     0.036184
      dxz     :     0.012080
      dyz     :     0.004897
      dx2y2   :     0.007330
      dxy     :     0.004928

 27 C s       :     3.198783  s :     3.198783
      pz      :     0.986481  p :     2.912057
      px      :     0.953386
      py      :     0.972189
      dz2     :     0.008231  d :     0.035982
      dxz     :     0.008664
      dyz     :     0.005766
      dx2y2   :     0.006603
      dxy     :     0.006718

 28 H s       :     0.851710  s :     0.851710

 29 H s       :     0.842537  s :     0.842537

 30 H s       :     0.841322  s :     0.841322

 31 H s       :     0.842307  s :     0.842307

 32 H s       :     0.868276  s :     0.868276

 33 H s       :     0.856349  s :     0.856349

 34 H s       :     0.847724  s :     0.847724

 35 H s       :     0.836393  s :     0.836393

 36 H s       :     0.852007  s :     0.852007

 37 H s       :     0.865594  s :     0.865594

 38 H s       :     0.863805  s :     0.863805

 39 H s       :     0.862779  s :     0.862779

 40 H s       :     0.841692  s :     0.841692

 41 H s       :     0.819781  s :     0.819781

 42 H s       :     0.639147  s :     0.639147

 43 H s       :     0.656791  s :     0.656791

 44 H s       :     0.882659  s :     0.882659

 45 H s       :     0.875265  s :     0.875265

 46 H s       :     0.875411  s :     0.875411

 47 H s       :     0.870178  s :     0.870178

 48 H s       :     0.859091  s :     0.859091



                     *******************************
                     * LOEWDIN POPULATION ANALYSIS *
                     *******************************

----------------------
LOEWDIN ATOMIC CHARGES
----------------------
   0 C :   -0.360051
   1 C :   -0.044042
   2 C :   -0.021647
   3 C :   -0.137560
   4 C :   -0.117030
   5 C :   -0.135518
   6 C :   -0.087806
   7 Cl:    0.039095
   8 C :   -0.141196
   9 N :   -0.150144
  10 C :    0.156667
  11 O :   -0.231437
  12 C :   -0.055687
  13 C :   -0.099233
  14 C :   -0.127293
  15 C :   -0.109181
  16 C :   -0.130382
  17 C :   -0.094724
  18 C :   -0.064075
  19 C :    0.127538
  20 N :   -0.389850
  21 O :   -0.296657
  22 C :   -0.008100
  23 C :   -0.137586
  24 C :   -0.133291
  25 C :   -0.129308
  26 C :   -0.124405
  27 C :   -0.110409
  28 H :    0.121751
  29 H :    0.134252
  30 H :    0.129224
  31 H :    0.137964
  32 H :    0.131737
  33 H :    0.139587
  34 H :    0.144577
  35 H :    0.149333
  36 H :    0.140054
  37 H :    0.134680
  38 H :    0.134881
  39 H :    0.135613
  40 H :    0.148084
  41 H :    0.154834
  42 H :    0.259759
  43 H :    0.261659
  44 H :    0.125218
  45 H :    0.129776
  46 H :    0.129801
  47 H :    0.132679
  48 H :    0.137845

-------------------------------
LOEWDIN REDUCED ORBITAL CHARGES
-------------------------------
  0 C s       :     2.989190  s :     2.989190
      pz      :     1.071713  p :     3.304986
      px      :     1.127855
      py      :     1.105418
      dz2     :     0.017933  d :     0.065874
      dxz     :     0.005957
      dyz     :     0.018208
      dx2y2   :     0.008861
      dxy     :     0.014915

  1 C s       :     2.887174  s :     2.887174
      pz      :     1.064178  p :     3.023421
      px      :     0.924673
      py      :     1.034570
      dz2     :     0.024241  d :     0.133447
      dxz     :     0.016214
      dyz     :     0.028383
      dx2y2   :     0.029276
      dxy     :     0.035332

  2 C s       :     2.886496  s :     2.886496
      pz      :     1.046731  p :     3.036536
      px      :     0.983804
      py      :     1.006001
      dz2     :     0.026169  d :     0.098615
      dxz     :     0.021562
      dyz     :     0.023993
      dx2y2   :     0.011515
      dxy     :     0.015376

  3 C s       :     2.916630  s :     2.916630
      pz      :     1.062146  p :     3.137247
      px      :     1.037692
      py      :     1.037409
      dz2     :     0.020009  d :     0.083683
      dxz     :     0.018002
      dyz     :     0.017280
      dx2y2   :     0.013581
      dxy     :     0.014810

  4 C s       :     2.916984  s :     2.916984
      pz      :     1.059222  p :     3.114229
      px      :     1.021162
      py      :     1.033845
      dz2     :     0.019028  d :     0.085817
      dxz     :     0.018194
      dyz     :     0.022616
      dx2y2   :     0.012934
      dxy     :     0.013045

  5 C s       :     2.919110  s :     2.919110
      pz      :     1.052392  p :     3.132217
      px      :     1.040227
      py      :     1.039598
      dz2     :     0.024634  d :     0.084191
      dxz     :     0.017976
      dyz     :     0.021679
      dx2y2   :     0.006306
      dxy     :     0.013597

  6 C s       :     2.915754  s :     2.915754
      pz      :     0.957578  p :     3.057627
      px      :     1.025085
      py      :     1.074964
      dz2     :     0.029178  d :     0.114425
      dxz     :     0.025887
      dyz     :     0.025722
      dx2y2   :     0.017031
      dxy     :     0.016607

  7 Cls       :     5.800490  s :     5.800490
      pz      :     3.417088  p :    11.127684
      px      :     3.778534
      py      :     3.932062
      dz2     :     0.011935  d :     0.032730
      dxz     :     0.013067
      dyz     :     0.004440
      dx2y2   :     0.002063
      dxy     :     0.001224

  8 C s       :     2.922429  s :     2.922429
      pz      :     1.066082  p :     3.135538
      px      :     1.026292
      py      :     1.043163
      dz2     :     0.018900  d :     0.083229
      dxz     :     0.016439
      dyz     :     0.021424
      dx2y2   :     0.012268
      dxy     :     0.014197

  9 N s       :     3.110518  s :     3.110518
      pz      :     1.274589  p :     3.960594
      px      :     1.224347
      py      :     1.461659
      dz2     :     0.018613  d :     0.079032
      dxz     :     0.019986
      dyz     :     0.013099
      dx2y2   :     0.012800
      dxy     :     0.014534

 10 C s       :     2.873144  s :     2.873144
      pz      :     0.949082  p :     2.738045
      px      :     0.902403
      py      :     0.886560
      dz2     :     0.086223  d :     0.232144
      dxz     :     0.052309
      dyz     :     0.053072
      dx2y2   :     0.016183
      dxy     :     0.024358

 11 O s       :     3.593981  s :     3.593981
      pz      :     1.553630  p :     4.587448
      px      :     1.534060
      py      :     1.499758
      dz2     :     0.015275  d :     0.050008
      dxz     :     0.012893
      dyz     :     0.014337
      dx2y2   :     0.003866
      dxy     :     0.003638

 12 C s       :     2.882717  s :     2.882717
      pz      :     1.047995  p :     3.073664
      px      :     1.012308
      py      :     1.013362
      dz2     :     0.025417  d :     0.099306
      dxz     :     0.020633
      dyz     :     0.021382
      dx2y2   :     0.011861
      dxy     :     0.020013

 13 C s       :     2.920399  s :     2.920399
      pz      :     1.044439  p :     3.094774
      px      :     1.030130
      py      :     1.020205
      dz2     :     0.016029  d :     0.084061
      dxz     :     0.020565
      dyz     :     0.016559
      dx2y2   :     0.015561
      dxy     :     0.015345

 14 C s       :     2.917617  s :     2.917617
      pz      :     1.053145  p :     3.125115
      px      :     1.034947
      py      :     1.037023
      dz2     :     0.016324  d :     0.084562
      dxz     :     0.018515
      dyz     :     0.019855
      dx2y2   :     0.014900
      dxy     :     0.014969

 15 C s       :     2.920934  s :     2.920934
      pz      :     1.049617  p :     3.102744
      px      :     1.029296
      py      :     1.023832
      dz2     :     0.023899  d :     0.085503
      dxz     :     0.018170
      dyz     :     0.018332
      dx2y2   :     0.008301
      dxy     :     0.016800

 16 C s       :     2.918227  s :     2.918227
      pz      :     1.054169  p :     3.127604
      px      :     1.040213
      py      :     1.033222
      dz2     :     0.016413  d :     0.084552
      dxz     :     0.020629
      dyz     :     0.016810
      dx2y2   :     0.015217
      dxy     :     0.015483

 17 C s       :     2.921441  s :     2.921441
      pz      :     1.043161  p :     3.089919
      px      :     1.018818
      py      :     1.027940
      dz2     :     0.016150  d :     0.083364
      dxz     :     0.018068
      dyz     :     0.019605
      dx2y2   :     0.014960
      dxy     :     0.014581

 18 C s       :     2.894345  s :     2.894345
      pz      :     1.029528  p :     3.039555
      px      :     1.039147
      py      :     0.970880
      dz2     :     0.015715  d :     0.130175
      dxz     :     0.030157
      dyz     :     0.027215
      dx2y2   :     0.034893
      dxy     :     0.022194

 19 C s       :     2.881752  s :     2.881752
      pz      :     0.887419  p :     2.762263
      px      :     0.886649
      py      :     0.988194
      dz2     :     0.045250  d :     0.228448
      dxz     :     0.048129
      dyz     :     0.034423
      dx2y2   :     0.057757
      dxy     :     0.042890

 20 N s       :     3.215229  s :     3.215229
      pz      :     1.433503  p :     4.125992
      px      :     1.410772
      py      :     1.281717
      dz2     :     0.006999  d :     0.048628
      dxz     :     0.010001
      dyz     :     0.011120
      dx2y2   :     0.010622
      dxy     :     0.009886

 21 O s       :     3.589525  s :     3.589525
      pz      :     1.576950  p :     4.657087
      px      :     1.472647
      py      :     1.607490
      dz2     :     0.006715  d :     0.050045
      dxz     :     0.008223
      dyz     :     0.008940
      dx2y2   :     0.010011
      dxy     :     0.016156

 22 C s       :     2.878565  s :     2.878565
      pz      :     1.039308  p :     3.031566
      px      :     1.013436
      py      :     0.978822
      dz2     :     0.022340  d :     0.097969
      dxz     :     0.028948
      dyz     :     0.014507
      dx2y2   :     0.016856
      dxy     :     0.015318

 23 C s       :     2.917656  s :     2.917656
      pz      :     1.046739  p :     3.135754
      px      :     1.068332
      py      :     1.020682
      dz2     :     0.016928  d :     0.084177
      dxz     :     0.027283
      dyz     :     0.011958
      dx2y2   :     0.015778
      dxy     :     0.012230

 24 C s       :     2.916998  s :     2.916998
      pz      :     1.052483  p :     3.131060
      px      :     1.067520
      py      :     1.011057
      dz2     :     0.016919  d :     0.085232
      dxz     :     0.022976
      dyz     :     0.010914
      dx2y2   :     0.017715
      dxy     :     0.016709

 25 C s       :     2.917513  s :     2.917513
      pz      :     1.053090  p :     3.126633
      px      :     1.066174
      py      :     1.007369
      dz2     :     0.021179  d :     0.085162
      dxz     :     0.024666
      dyz     :     0.013163
      dx2y2   :     0.012539
      dxy     :     0.013614

 26 C s       :     2.916829  s :     2.916829
      pz      :     1.051346  p :     3.122495
      px      :     1.068100
      py      :     1.003049
      dz2     :     0.017436  d :     0.085081
      dxz     :     0.027690
      dyz     :     0.012439
      dx2y2   :     0.015628
      dxy     :     0.011888

 27 C s       :     2.918858  s :     2.918858
      pz      :     1.054614  p :     3.107928
      px      :     1.057212
      py      :     0.996103
      dz2     :     0.017922  d :     0.083623
      dxz     :     0.022546
      dyz     :     0.010187
      dx2y2   :     0.017216
      dxy     :     0.015752

 28 H s       :     0.878249  s :     0.878249

 29 H s       :     0.865748  s :     0.865748

 30 H s       :     0.870776  s :     0.870776

 31 H s       :     0.862036  s :     0.862036

 32 H s       :     0.868263  s :     0.868263

 33 H s       :     0.860413  s :     0.860413

 34 H s       :     0.855423  s :     0.855423

 35 H s       :     0.850667  s :     0.850667

 36 H s       :     0.859946  s :     0.859946

 37 H s       :     0.865320  s :     0.865320

 38 H s       :     0.865119  s :     0.865119

 39 H s       :     0.864387  s :     0.864387

 40 H s       :     0.851916  s :     0.851916

 41 H s       :     0.845166  s :     0.845166

 42 H s       :     0.740241  s :     0.740241

 43 H s       :     0.738341  s :     0.738341

 44 H s       :     0.874782  s :     0.874782

 45 H s       :     0.870224  s :     0.870224

 46 H s       :     0.870199  s :     0.870199

 47 H s       :     0.867321  s :     0.867321

 48 H s       :     0.862155  s :     0.862155



                      *****************************
                      * MAYER POPULATION ANALYSIS *
                      *****************************

  NA   - Mulliken gross atomic population
  ZA   - Total nuclear charge
  QA   - Mulliken gross atomic charge
  VA   - Mayer's total valence
  BVA  - Mayer's bonded valence
  FA   - Mayer's free valence

  ATOM       NA         ZA         QA         VA         BVA        FA
  0 C      6.4530     6.0000    -0.4530     3.8211     3.8211    -0.0000
  1 C      6.0649     6.0000    -0.0649     3.9155     3.9155    -0.0000
  2 C      5.8256     6.0000     0.1744     3.8860     3.8860    -0.0000
  3 C      6.1749     6.0000    -0.1749     3.9301     3.9301     0.0000
  4 C      6.1172     6.0000    -0.1172     3.9452     3.9452    -0.0000
  5 C      6.1326     6.0000    -0.1326     3.9247     3.9247     0.0000
  6 C      6.0646     6.0000    -0.0646     3.9467     3.9467     0.0000
  7 Cl    17.0141    17.0000    -0.0141     1.0962     1.0962    -0.0000
  8 C      6.1974     6.0000    -0.1974     3.9118     3.9118    -0.0000
  9 N      7.4520     7.0000    -0.4520     2.8549     2.8549    -0.0000
 10 C      5.5831     6.0000     0.4169     3.9458     3.9458     0.0000
 11 O      8.4272     8.0000    -0.4272     2.0441     2.0441     0.0000
 12 C      5.8890     6.0000     0.1110     3.8886     3.8886     0.0000
 13 C      6.1485     6.0000    -0.1485     3.9122     3.9122     0.0000
 14 C      6.1275     6.0000    -0.1275     3.9438     3.9438    -0.0000
 15 C      6.1145     6.0000    -0.1145     3.9400     3.9400     0.0000
 16 C      6.1326     6.0000    -0.1326     3.9237     3.9237    -0.0000
 17 C      6.1521     6.0000    -0.1521     3.9153     3.9153    -0.0000
 18 C      6.1661     6.0000    -0.1661     3.7978     3.7978    -0.0000
 19 C      5.4467     6.0000     0.5533     3.8683     3.8683    -0.0000
 20 N      7.7666     7.0000    -0.7666     2.8648     2.8648    -0.0000
 21 O      8.4832     8.0000    -0.4832     2.0373     2.0373     0.0000
 22 C      5.7971     6.0000     0.2029     3.9284     3.9284     0.0000
 23 C      6.1914     6.0000    -0.1914     3.9428     3.9428    -0.0000
 24 C      6.1289     6.0000    -0.1289     3.9506     3.9506    -0.0000
 25 C      6.1241     6.0000    -0.1241     3.9517     3.9517    -0.0000
 26 C      6.1274     6.0000    -0.1274     3.9523     3.9523    -0.0000
 27 C      6.1468     6.0000    -0.1468     3.9370     3.9370    -0.0000
 28 H      0.8517     1.0000     0.1483     0.9409     0.9409     0.0000
 29 H      0.8425     1.0000     0.1575     0.9349     0.9349     0.0000
 30 H      0.8413     1.0000     0.1587     0.9365     0.9365    -0.0000
 31 H      0.8423     1.0000     0.1577     0.9324     0.9324     0.0000
 32 H      0.8683     1.0000     0.1317     0.9406     0.9406     0.0000
 33 H      0.8563     1.0000     0.1437     0.9350     0.9350     0.0000
 34 H      0.8477     1.0000     0.1523     0.9368     0.9368    -0.0000
 35 H      0.8364     1.0000     0.1636     0.9415     0.9415     0.0000
 36 H      0.8520     1.0000     0.1480     0.9455     0.9455     0.0000
 37 H      0.8656     1.0000     0.1344     0.9372     0.9372    -0.0000
 38 H      0.8638     1.0000     0.1362     0.9350     0.9350     0.0000
 39 H      0.8628     1.0000     0.1372     0.9360     0.9360    -0.0000
 40 H      0.8417     1.0000     0.1583     0.9412     0.9412     0.0000
 41 H      0.8198     1.0000     0.1802     0.9333     0.9333    -0.0000
 42 H      0.6391     1.0000     0.3609     0.8613     0.8613    -0.0000
 43 H      0.6568     1.0000     0.3432     0.8625     0.8625    -0.0000
 44 H      0.8827     1.0000     0.1173     0.9431     0.9431     0.0000
 45 H      0.8753     1.0000     0.1247     0.9373     0.9373    -0.0000
 46 H      0.8754     1.0000     0.1246     0.9371     0.9371    -0.0000
 47 H      0.8702     1.0000     0.1298     0.9373     0.9373     0.0000
 48 H      0.8591     1.0000     0.1409     0.9449     0.9449    -0.0000

  Mayer bond orders larger than 0.100000
B(  0-C ,  1-C ) :   0.9935 B(  0-C , 28-H ) :   0.9330 B(  0-C , 29-H ) :   0.9381 
B(  0-C , 30-H ) :   0.9367 B(  1-C ,  2-C ) :   0.9508 B(  1-C ,  9-N ) :   0.9487 
B(  1-C , 31-H ) :   0.9228 B(  2-C ,  3-C ) :   1.4125 B(  2-C ,  8-C ) :   1.4169 
B(  3-C ,  4-C ) :   1.4402 B(  3-C , 32-H ) :   0.9196 B(  4-C ,  5-C ) :   1.4500 
B(  4-C , 33-H ) :   0.9267 B(  5-C ,  6-C ) :   1.4174 B(  5-C , 34-H ) :   0.9237 
B(  6-C ,  7-Cl) :   1.0150 B(  6-C ,  8-C ) :   1.3964 B(  8-C , 35-H ) :   0.9125 
B(  9-N , 10-C ) :   0.9537 B(  9-N , 18-C ) :   0.9204 B( 10-C , 11-O ) :   1.8576 
B( 10-C , 12-C ) :   1.0021 B( 12-C , 13-C ) :   1.3872 B( 12-C , 17-C ) :   1.3784 
B( 13-C , 14-C ) :   1.4406 B( 13-C , 36-H ) :   0.9055 B( 14-C , 15-C ) :   1.4446 
B( 14-C , 37-H ) :   0.9292 B( 15-C , 16-C ) :   1.4359 B( 15-C , 38-H ) :   0.9293 
B( 16-C , 17-C ) :   1.4403 B( 16-C , 39-H ) :   0.9293 B( 17-C , 40-H ) :   0.9162 
B( 18-C , 19-C ) :   0.9053 B( 18-C , 22-C ) :   0.9435 B( 18-C , 41-H ) :   0.9007 
B( 19-C , 20-N ) :   1.1114 B( 19-C , 21-O ) :   1.8231 B( 20-N , 21-O ) :   0.1048 
B( 20-N , 42-H ) :   0.7839 B( 20-N , 43-H ) :   0.8286 B( 22-C , 23-C ) :   1.4230 
B( 22-C , 27-C ) :   1.4200 B( 23-C , 24-C ) :   1.4384 B( 23-C , 44-H ) :   0.9214 
B( 24-C , 25-C ) :   1.4561 B( 24-C , 45-H ) :   0.9301 B( 25-C , 26-C ) :   1.4469 
B( 25-C , 46-H ) :   0.9306 B( 26-C , 27-C ) :   1.4441 B( 26-C , 47-H ) :   0.9292 
B( 27-C , 48-H ) :   0.9182 

-------
TIMINGS
-------

Total SCF time: 0 days 0 hours 7 min 21 sec 

Total time                  ....     441.556 sec
Sum of individual times     ....     441.132 sec  ( 99.9%)

SCF preparation             ....       0.335 sec  (  0.1%)
Fock matrix formation       ....     438.801 sec  ( 99.4%)
  Startup                   ....       0.098 sec  (  0.0% of F)
  Split-RI-J                ....      52.506 sec  ( 12.0% of F)
  Chain of spheres X        ....     343.341 sec  ( 78.2% of F)
  XC integration            ....      41.832 sec  (  9.5% of F)
    XC Preparation          ....       0.000 sec  (  0.0% of XC)
    Basis function eval.    ....      16.171 sec  ( 38.7% of XC)
    Density eval.           ....      10.799 sec  ( 25.8% of XC)
    XC-Functional eval.     ....       1.787 sec  (  4.3% of XC)
    XC-Potential eval.      ....      11.527 sec  ( 27.6% of XC)
Diagonalization             ....       0.000 sec  (  0.0%)
Density matrix formation    ....       0.344 sec  (  0.1%)
Total Energy calculation    ....       0.074 sec  (  0.0%)
Population analysis         ....       0.071 sec  (  0.0%)
Orbital Transformation      ....       0.180 sec  (  0.0%)
Orbital Orthonormalization  ....       0.000 sec  (  0.0%)
DIIS solution               ....       0.795 sec  (  0.2%)
SOSCF solution              ....       0.532 sec  (  0.1%)
Finished LeanSCF after 441.6 sec

Maximum memory used throughout the entire LEANSCF-calculation: 81.3 MB

-------------------------   --------------------
FINAL SINGLE POINT ENERGY     -1608.428358345989
-------------------------   --------------------


------------------------------------------------------------------------------
                              ORCA PROPERTY CALCULATIONS
------------------------------------------------------------------------------

GBWName                                 ... /home/nmrbox/aojoawo/Documents/ERDOS/inputs/CHEMBL3898642.gbw
Number of atoms                         ...     49
Number of basis functions               ...    438
Max core memory                         ...   1024 MB

Electric properties:
Dipole moment                           ... YES
Quadrupole moment                       ...  NO
Static polarizability (Dipole/Dipole)   ...  NO
Static polarizability (Dipole/Quad.)    ...  NO
Static polarizability (Quad./Quad.)     ...  NO
Static polarizability (Velocity)        ...  NO

Atomic electric properties:
Dipole moment                           ...  NO
Quadrupole moment                       ...  NO
Static polarizability                   ...  NO

Choice of electric origin               ... Center of mass
Position of electric origin             ...     0.739923    -0.557427     0.455729

General magnetic properties:
Magnetizability                         ...  NO

EPR properties:
g-Tensor (aka g-matrix)                 ...  NO
Zero-Field splitting spin-orbit         ...  NO
Zero-field splitting spin-spin          ...  NO
Hyperfine couplings                     ...  NO (   0 nuclei)
Quadrupole couplings                    ...  NO (   0 nuclei)
Contact density                         ...  NO (   0 nuclei)

NMR properties:
Chemical shifts                         ...  NO (   0 nuclei)
Spin-rotation constants                 ...  NO (   0 nuclei)
Spin-spin couplings                     ...  NO (   0 nuclei,    0 pairs)

Choice of magnetic origin               ... GIAO
Position of magnetic origin             ...     0.000000     0.000000     0.000000

Properties with geometric perturbations:
SCF Hessian                             ...  NO
IR spectrum                             ...  NO
VCD spectrum                            ...  NO
X-ray spectroscopy properties:
SCF XES/XAS/RIXS spectra                ...  NO


-------------
DIPOLE MOMENT
-------------

Method             : SCF
Type of density    : Electron Density
Multiplicity       :   1
Irrep              :   0
Energy             : -1608.4283583459889542 Eh
Relativity type    : 
Basis              : AO
                                X                 Y                 Z
Electronic contribution:     16.939272554     -10.919438939      15.383207287
Nuclear contribution   :    -16.867406602      12.386313193     -16.108191241
                        -----------------------------------------
Total Dipole Moment    :      0.071865952       1.466874254      -0.724983954
                        -----------------------------------------
Magnitude (a.u.)       :      1.637829822
Magnitude (Debye)      :      4.163032567



--------------------
Rotational spectrum 
--------------------
 
Rotational constants in cm-1:             0.010097             0.003663             0.003257 
Rotational constants in MHz :           302.701719           109.826519            97.656551 

Dipole components along the rotational axes: 
x,y,z [a.u.] :     0.630123    -0.219847    -1.495694 
x,y,z [Debye]:     1.601645    -0.558807    -3.801751 

 

Dipole moment calculation done in   0.0 sec 

Maximum memory used throughout the entire PROP-calculation: 38.9 MB

--------------------------------
SUGGESTED CITATIONS FOR THIS RUN
--------------------------------

Below you find a list of papers that are relevant to this ORCA run
We neither can nor want to force you to cite these papers, but we appreciate if you do
You receive ORCA, which is the product of decades of hard work by many enthusiastic individuals, for free
The only thing we kindly ask in return is that you cite our papers,
We deeply appreciate it, if you show your appreciation for ORCA by not just citing the generic ORCA reference.

Please note that relegating all ORCA citations to the supporting information does *not* help us.
SI sections are not indexed - citations you put there will not count into any citation statistics
But we need these citations in order to attract the funding resources that allow us to do what we are doing

Therefore, if you are a happy ORCA user, please consider citing a few of the papers listed below in the main body of your paper

In addition to the list printed below, the program has created the file /home/nmrbox/aojoawo/Documents/ERDOS/inputs/CHEMBL3898642.bibtex that contains the list in bibtex format
You can import this file easily into all common literature databanks and citation aid programs


List of essential papers. We consider these as the minimum necessary citations

  1. Neese,F.
     Software update: the ORCA program system, version 5.0
     WIRES Comput. Molec. Sci., 2022 12(1)e1606
     doi.org/10.1002/wcms.1606

List of papers to cite with high priority. The work reported in these papers was absolutely
necessary for this run to complete.
Our perspective: the developers of density functionals and basis sets usually get cited in chemistry papers
Good! But without the algorithms to do something with them, the functionals or basis sets would not do anything.
Hence, in our opinion, the algorithm design and method developments papers are equally worthy of getting cited

  1. Neese,F.
     An improvement of the resolution of the identity approximation for the formation of the Coulomb matrix
     J. Comp. Chem., 2003 24(14)1740-1747
     doi.org/10.1002/jcc.10318
  2. Neese,F.; Wennmohs,F.; Hansen,A.; Becker,U.
     Efficient, approximate and parallel Hartree-Fock and hybrid DFT calculations. A 'chain-of-spheres' algorithm for the Hartree-Fock exchange
     Chem. Phys., 2009 356(1-3)98-109
     doi.org/10.1016/j.chemphys.2008.10.036
  3. Helmich-Paris,B.; de Souza,B.; Neese,F.; Izsák,R.
     An improved chain of spheres for exchange algorithm
     J. Chem. Phys., 2021 155 104109
     doi.org/doi: 10.1063/5.0058766.
  4. Neese,F.
     The SHARK Integral Generation and Digestion System
     J. Comp. Chem., 2022  1-16
     doi.org/10.1002/jcc.26942

List of suggested additional citations. These are papers that are important in the 'surrounding' of 
of this run, or papers that preceded the highly important papers. If you like your results we are grateful for a citation.

  1. Izsak,R.; Neese,F.
     An overlap fitted chain of spheres exchange method
     J. Chem. Phys., 2011 135 144105
     doi.org/10.1063/1.3646921
  2. Izsak,R.; Hansen,A.; Neese,F.
     The resolution of identity and chain of spheres approximations for the LPNO-CCSD singles Fock term
     Molec. Phys., 2012 110 2413-2417
     doi.org/10.1080/00268976.2012.687466
  3. Neese,F.
     The ORCA program system
     WIRES Comput. Molec. Sci., 2012 2(1)73-78
     doi.org/10.1002/wcms.81
  4. Izsak,R.; Neese,F.; Klopper,W.
     Robust fitting techniques in the chain of spheres approximation to the Fock exchange: The role of the complementary space
     J. Chem. Phys., 2013 139 
     doi.org/10.1063/1.4819264
  5. Neese,F.
     Software update: the ORCA program system, version 4.0
     WIRES Comput. Molec. Sci., 2018 8(1)1-6
     doi.org/10.1002/wcms.1327
  6. Neese,F.; Wennmohs,F.; Becker,U.; Riplinger,C.
     The ORCA quantum chemistry program package
     J. Chem. Phys., 2020 152 Art. No. L224108
     doi.org/10.1063/5.0004608

List of optional additional citations

  1. Neese,F.
     Approximate second-order SCF convergence for spin unrestricted wavefunctions
     Chem. Phys. Lett., 2000 325(1-3)93-98
     doi.org/10.1016/s0009-2614(00)00662-x

Timings for individual modules:

Sum of individual times          ...      456.906 sec (=   7.615 min)
Startup calculation              ...       10.009 sec (=   0.167 min)   2.2 %
SCF iterations                   ...      446.705 sec (=   7.445 min)  97.8 %
Property calculations            ...        0.192 sec (=   0.003 min)   0.0 %
                             ****ORCA TERMINATED NORMALLY****
TOTAL RUN TIME: 0 days 0 hours 7 minutes 37 seconds 579 msec
