
                                 *****************
                                 * O   R   C   A *
                                 *****************

                                            #,                                       
                                            ###                                      
                                            ####                                     
                                            #####                                    
                                            ######                                   
                                           ########,                                 
                                     ,,################,,,,,                         
                               ,,#################################,,                 
                          ,,##########################################,,             
                       ,#########################################, ''#####,          
                    ,#############################################,,   '####,        
                  ,##################################################,,,,####,       
                ,###########''''           ''''###############################       
              ,#####''   ,,,,##########,,,,          '''####'''          '####       
            ,##' ,,,,###########################,,,                        '##       
           ' ,,###''''                  '''############,,,                           
         ,,##''                                '''############,,,,        ,,,,,,###''
      ,#''                                            '''#######################'''  
     '                                                          ''''####''''         
             ,#######,   #######,   ,#######,      ##                                
            ,#'     '#,  ##    ##  ,#'     '#,    #''#        ,####,   ,####,        
            ##       ##  ##   ,#'  ##            #'  '#       #'       #'  '#        
            ##       ##  #######   ##           ,######,      #####,   #    #        
            '#,     ,#'  ##    ##  '#,     ,#' ,#      #,     #,   #   #,  ,#        
             '#######'   ##     ##  '#######'  #'      '#     '####' # '####'        



                #########################################################
                #                        -***-                          #
                #          Department of theory and spectroscopy        #
                #                                                       #
                #                      Frank Neese                      #
                #                                                       #
                #     Directorship, Architecture, Infrastructure        #
                #                    SHARK, DRIVERS                     #
                #        Core code/Algorithms in most modules           #
                #                                                       #
                #        Max Planck Institute fuer Kohlenforschung      #
                #                Kaiser Wilhelm Platz 1                 #
                #                 D-45470 Muelheim/Ruhr                 #
                #                      Germany                          #
                #                                                       #
                #                  All rights reserved                  #
                #                        -***-                          #
                #########################################################


                         Program Version 6.0.0  -   RELEASE  -


 With contributions from (in alphabetic order):
   Daniel Aravena         : Magnetic Suceptibility
   Michael Atanasov       : Ab Initio Ligand Field Theory (pilot matlab implementation)
   Alexander A. Auer      : GIAO ZORA, VPT2 properties, NMR spectrum
   Ute Becker             : All parallelization in ORCA, NUMFREQ, NUMCALC
   Giovanni Bistoni       : ED, misc. LED, open-shell LED, HFLD
   Martin Brehm           : Molecular dynamics
   Dmytro Bykov           : pre 5.0 version of the SCF Hessian
   Marcos Casanova-Páez   : Triplet and SCS-CIS(D). UHF-(DLPNO)-IP/EA/STEOM-CCSD. UHF-CVS-IP/STEOM-CCSD
   Vijay G. Chilkuri      : MRCI spin determinant printing, contributions to CSF-ICE
   Pauline Colinet        : FMM embedding
   Dipayan Datta          : RHF DLPNO-CCSD density
   Achintya Kumar Dutta   : EOM-CC, STEOM-CC
   Nicolas Foglia         : Exact transition moments, OPA infrastructure, MCD improvements
   Dmitry Ganyushin       : Spin-Orbit,Spin-Spin,Magnetic field MRCI
   Miquel Garcia          : C-PCM and meta-GGA Hessian, CCSD/C-PCM, Gaussian charge scheme
   Tiago L. C. Gouveia    : GS-ROHF, GS-ROCIS
   Yang Guo               : DLPNO-NEVPT2, F12-NEVPT2, CIM, IAO-localization
   Andreas Hansen         : Spin unrestricted coupled pair/coupled cluster methods
   Ingolf Harden          : AUTO-CI MPn and infrastructure 
   Benjamin Helmich-Paris : MC-RPA, TRAH-(SCF,CASSCF), AVAS, COSX integrals, SCF dyn. polar.
   Lee Huntington         : MR-EOM, pCC
   Robert Izsak           : Overlap fitted RIJCOSX, COSX-SCS-MP3, EOM
   Riya Kayal             : Wick's Theorem for AUTO-CI, AUTO-CI UHF-CCSDT
   Emily Kempfer          : AUTO-CI, RHF CISDT and CCSDT
   Christian Kollmar      : KDIIS, OOCD, Brueckner-CCSD(T), CCSD density, CASPT2, CASPT2-K, improved NEVPT2
   Axel Koslowski         : Symmetry handling
   Simone Kossmann        : Meta GGA functionals, TD-DFT gradient, OOMP2, (MP2 Hessian; deprecated post 5.0)
   Lucas Lang             : DCDCAS
   Marvin Lechner         : AUTO-CI (C++ implementation), FIC-MRCC
   Spencer Leger          : CASSCF response
   Dagmar Lenk            : GEPOL surface, SMD, ORCA-2-JSON
   Dimitrios Liakos       : Extrapolation schemes; Compound Job, initial MDCI parallelization
   Dimitrios Manganas     : Further ROCIS development; embedding schemes. LFT, Crystal Embedding
   Dimitrios Pantazis     : SARC Basis sets
   Anastasios Papadopoulos: AUTO-CI, single reference methods and gradients
   Taras Petrenko         : pre 6.0 DFT Hessian and TD-DFT gradient, (ASA, deprecated), ECA, 1-Electron XAS/XES, NRVS
   Peter Pinski           : DLPNO-MP2, DLPNO-MP2 Gradient
   Christoph Reimann      : Effective Core Potentials
   Marius Retegan         : Local ZFS, SOC
   Christoph Riplinger    : Optimizer, TS searches, QM/MM, DLPNO-CCSD(T), (RO)-DLPNO pert. Triples
   Michael Roemelt        : Original ROCIS implementation
   Masaaki Saitow         : Open-shell DLPNO-CCSD energy and density
   Barbara Sandhoefer     : DKH picture change effects
   Kantharuban Sivalingam : CASSCF convergence/infrastructure, NEVPT2 and variants, FIC-MRCI
   Bernardo de Souza      : ESD, SOC TD-DFT
   Georgi Stoychev        : AutoAux, RI-MP2 NMR, DLPNO-MP2 response, X2C
   Van Anh Tran           : RI-MP2 g-tensors
   Willem Van den Heuvel  : Paramagnetic NMR
   Zikuan Wang            : NOTCH, Electric field optimization 
   Frank Wennmohs         : Technical directorship and infrastructure
   Hang Xu                : AUTO-CI-Response properties 


 We gratefully acknowledge several colleagues who have allowed us to
 interface, adapt or use parts of their codes:
   Stefan Grimme, W. Hujo, H. Kruse, P. Pracht,  : VdW corrections, initial TS optimization,
                  C. Bannwarth, S. Ehlert,         DFT functionals, gCP, sTDA/sTD-DF
                  L. Wittmann, M. Mueller
   Ed Valeev, F. Pavosevic, A. Kumar             : LibInt (2-el integral package), F12 methods
   Garnet Chan, S. Sharma, J. Yang, R. Olivares  : DMRG
   Ulf Ekstrom                                   : XCFun DFT Library
   Mihaly Kallay                                 : mrcc  (arbitrary order and MRCC methods)
   Frank Weinhold                                : gennbo (NPA and NBO analysis)
   Simon Mueller                                 : openCOSMO-RS
   Christopher J. Cramer and Donald G. Truhlar   : smd solvation model
   Lars Goerigk                                  : TD-DFT with DH, B97 family of functionals
   V. Asgeirsson, H. Jonsson                     : NEB implementation
   FAccTs GmbH                                   : IRC, NEB, NEB-TS, DLPNO-Multilevel, CI-OPT
                                                   MM, QMMM, 2- and 3-layer-ONIOM, Crystal-QMMM,
                                                   LR-CPCM, SF, NACMEs, symmetry and pop. for TD-DFT,
                                                   nearIR, NL-DFT gradient (VV10), updates on ESD,
                                                   ML-optimized integration grids, MBIS, APM,
                                                   GOAT, DOCKER, SOLVATOR, interface openCOSMO-RS
   S Lehtola, MJT Oliveira, MAL Marques          : LibXC Library
   Liviu Ungur et al                             : ANISO software


 Your calculation uses the libint2 library for the computation of 2-el integrals
 For citations please refer to: http://libint.valeyev.net

 Your ORCA version has been built with support for libXC version: 6.2.2
 For citations please refer to: https://libxc.gitlab.io

 This ORCA versions uses:
   CBLAS   interface :  Fast vector & matrix operations
   LAPACKE interface :  Fast linear algebra routines
   SCALAPACK package :  Parallel linear algebra routines
   Shared memory     :  Shared parallel matrices
   BLAS/LAPACK       :  OpenBLAS 0.3.27  USE64BITINT DYNAMIC_ARCH NO_AFFINITY SkylakeX SINGLE_THREADED
        Core in use  :  SkylakeX
   Copyright (c) 2011-2014, The OpenBLAS Project


Warning: RI is on but no J-basis has been assigned. Assigning Def2/J (nothing to worry about!)
================================================================================

----- Orbital basis set information -----
Your calculation utilizes the basis: 6-31G*
   H-He, Li-Ne : W. J. Hehre, R. Ditchfield and J.A. Pople, J. Chem. Phys. 56, 2257 (1972).
                 Note: He and Ne are unpublished basis sets taken from the Gaussian program.
                 Note: Li and B from J. D. Dill and J. A. Pople, J. Chem. Phys. 62, 2921 (1975).
   Na - Ar     : M. M. Francl, W. J. Pietro, W. J. Hehre, J. S. Binkley, M. S. Gordon, 
                 D. J. DeFrees and J. A. Pople, J. Chem. Phys. 77, 3654 (1982).
   K - Zn      : V. A. Rassolov, J. A. Pople, M. A. Ratner, and T. L. Windus, J. Chem. Phys. 109, 1223 (1998).

----- AuxJ basis set information -----
Your calculation utilizes the auxiliary basis: def2/J
   F. Weigend, Phys. Chem. Chem. Phys. 8, 1057 (2006).

================================================================================
                                        WARNINGS
                       Please study these warnings very carefully!
================================================================================


================================================================================
                                       INPUT FILE
================================================================================
NAME = /home/nmrbox/aojoawo/Documents/ERDOS/inputs/CHEMBL3687397.inp
|  1> ! B3LYP 6-31G* SP
|  2> 
|  3> * xyz 0 1
|  4> C -0.2715 -2.8122 1.1231
|  5> C 0.5634 -1.6198 0.7108
|  6> C -0.0051 -0.5750 -0.0441
|  7> N -1.3944 -0.5597 -0.3925
|  8> C -2.3970 -0.0880 0.5668
|  9> C -2.0785 1.3021 1.0645
| 10> C -2.2305 1.6118 2.4262
| 11> C -1.9612 2.9034 2.8893
| 12> C -1.5024 3.8963 2.0082
| 13> O -1.2317 5.1723 2.5239
| 14> C -0.1224 5.9823 2.1348
| 15> F 1.0505 5.2599 2.2576
| 16> F -0.2463 6.4190 0.8242
| 17> F -0.0578 7.0774 2.9736
| 18> C -1.3619 3.5934 0.6412
| 19> C -1.6743 2.3135 0.1706
| 20> S -1.8515 -0.9403 -2.0233
| 21> O -2.9415 -0.0107 -2.4842
| 22> O -0.6698 -0.7672 -2.9373
| 23> C -2.4040 -2.6082 -2.0899
| 24> C -1.4748 -3.6423 -2.2485
| 25> C -1.8985 -4.9729 -2.2691
| 26> C -3.2628 -5.2878 -2.1323
| 27> C -3.7067 -6.6986 -2.1698
| 28> O -4.9284 -6.9884 -2.0573
| 29> O -2.7765 -7.7238 -2.3384
| 30> C -4.1921 -4.2434 -1.9662
| 31> C -3.7629 -2.9125 -1.9427
| 32> N 0.7605 0.4647 -0.4478
| 33> C 2.0789 0.5924 -0.1634
| 34> C 2.8067 1.8355 -0.6594
| 35> C 2.0878 2.5938 -1.7864
| 36> C 2.4644 4.0637 -1.6236
| 37> C 3.1908 4.1903 -0.2866
| 38> C 2.9740 2.8737 0.4433
| 39> C 2.7025 -0.4039 0.6312
| 40> C 4.0652 -0.3265 0.9954
| 41> C 4.6517 -1.3174 1.7830
| 42> C 3.9009 -2.4034 2.2211
| 43> C 2.5566 -2.5118 1.8673
| 44> C 1.9328 -1.5221 1.0708
| 45> H -1.2836 -2.7999 0.6736
| 46> H -0.3791 -2.8290 2.2269
| 47> H 0.2166 -3.7491 0.7839
| 48> H -2.4435 -0.8018 1.4144
| 49> H -3.4012 -0.0753 0.0976
| 50> H -2.5652 0.8580 3.1327
| 51> H -2.0945 3.1305 3.9434
| 52> H -1.0503 4.3463 -0.0693
| 53> H -1.5916 2.1091 -0.8884
| 54> H -0.4203 -3.4174 -2.3482
| 55> H -1.1563 -5.7531 -2.3917
| 56> H -3.0709 -8.6937 -2.3660
| 57> H -5.2479 -4.4529 -1.8494
| 58> H -4.4892 -2.1223 -1.8000
| 59> H 3.8070 1.5491 -1.0553
| 60> H 0.9825 2.5195 -1.7037
| 61> H 2.3966 2.2055 -2.7855
| 62> H 1.5502 4.6999 -1.6206
| 63> H 3.1204 4.3910 -2.4592
| 64> H 2.8044 5.0513 0.3069
| 65> H 4.2790 4.3375 -0.4664
| 66> H 3.8363 2.6358 1.1034
| 67> H 2.0460 2.9423 1.0577
| 68> H 4.6955 0.4908 0.6794
| 69> H 5.6950 -1.2399 2.0543
| 70> H 4.3650 -3.1674 2.8337
| 71> H 2.0169 -3.3745 2.2317
| 72> *
| 73> 
| 74>                          ****END OF INPUT****
================================================================================

                       ****************************
                       * Single Point Calculation *
                       ****************************

---------------------------------
CARTESIAN COORDINATES (ANGSTROEM)
---------------------------------
  C     -0.271500   -2.812200    1.123100
  C      0.563400   -1.619800    0.710800
  C     -0.005100   -0.575000   -0.044100
  N     -1.394400   -0.559700   -0.392500
  C     -2.397000   -0.088000    0.566800
  C     -2.078500    1.302100    1.064500
  C     -2.230500    1.611800    2.426200
  C     -1.961200    2.903400    2.889300
  C     -1.502400    3.896300    2.008200
  O     -1.231700    5.172300    2.523900
  C     -0.122400    5.982300    2.134800
  F      1.050500    5.259900    2.257600
  F     -0.246300    6.419000    0.824200
  F     -0.057800    7.077400    2.973600
  C     -1.361900    3.593400    0.641200
  C     -1.674300    2.313500    0.170600
  S     -1.851500   -0.940300   -2.023300
  O     -2.941500   -0.010700   -2.484200
  O     -0.669800   -0.767200   -2.937300
  C     -2.404000   -2.608200   -2.089900
  C     -1.474800   -3.642300   -2.248500
  C     -1.898500   -4.972900   -2.269100
  C     -3.262800   -5.287800   -2.132300
  C     -3.706700   -6.698600   -2.169800
  O     -4.928400   -6.988400   -2.057300
  O     -2.776500   -7.723800   -2.338400
  C     -4.192100   -4.243400   -1.966200
  C     -3.762900   -2.912500   -1.942700
  N      0.760500    0.464700   -0.447800
  C      2.078900    0.592400   -0.163400
  C      2.806700    1.835500   -0.659400
  C      2.087800    2.593800   -1.786400
  C      2.464400    4.063700   -1.623600
  C      3.190800    4.190300   -0.286600
  C      2.974000    2.873700    0.443300
  C      2.702500   -0.403900    0.631200
  C      4.065200   -0.326500    0.995400
  C      4.651700   -1.317400    1.783000
  C      3.900900   -2.403400    2.221100
  C      2.556600   -2.511800    1.867300
  C      1.932800   -1.522100    1.070800
  H     -1.283600   -2.799900    0.673600
  H     -0.379100   -2.829000    2.226900
  H      0.216600   -3.749100    0.783900
  H     -2.443500   -0.801800    1.414400
  H     -3.401200   -0.075300    0.097600
  H     -2.565200    0.858000    3.132700
  H     -2.094500    3.130500    3.943400
  H     -1.050300    4.346300   -0.069300
  H     -1.591600    2.109100   -0.888400
  H     -0.420300   -3.417400   -2.348200
  H     -1.156300   -5.753100   -2.391700
  H     -3.070900   -8.693700   -2.366000
  H     -5.247900   -4.452900   -1.849400
  H     -4.489200   -2.122300   -1.800000
  H      3.807000    1.549100   -1.055300
  H      0.982500    2.519500   -1.703700
  H      2.396600    2.205500   -2.785500
  H      1.550200    4.699900   -1.620600
  H      3.120400    4.391000   -2.459200
  H      2.804400    5.051300    0.306900
  H      4.279000    4.337500   -0.466400
  H      3.836300    2.635800    1.103400
  H      2.046000    2.942300    1.057700
  H      4.695500    0.490800    0.679400
  H      5.695000   -1.239900    2.054300
  H      4.365000   -3.167400    2.833700
  H      2.016900   -3.374500    2.231700

----------------------------
CARTESIAN COORDINATES (A.U.)
----------------------------
  NO LB      ZA    FRAG     MASS         X           Y           Z
   0 C     6.0000    0    12.011   -0.513061   -5.314288    2.122351
   1 C     6.0000    0    12.011    1.064672   -3.060978    1.343217
   2 C     6.0000    0    12.011   -0.009638   -1.086593   -0.083337
   3 N     7.0000    0    14.007   -2.635034   -1.057680   -0.741718
   4 C     6.0000    0    12.011   -4.529674   -0.166296    1.071097
   5 C     6.0000    0    12.011   -3.927796    2.460612    2.011613
   6 C     6.0000    0    12.011   -4.215034    3.045861    4.584854
   7 C     6.0000    0    12.011   -3.706131    5.486631    5.459986
   8 C     6.0000    0    12.011   -2.839125    7.362940    3.794948
   9 O     8.0000    0    15.999   -2.327576    9.774230    4.769480
  10 C     6.0000    0    12.011   -0.231302   11.304909    4.034187
  11 F     9.0000    0    18.998    1.985157    9.939770    4.266246
  12 F     9.0000    0    18.998   -0.465440   12.130152    1.557512
  13 F     9.0000    0    18.998   -0.109226   13.374348    5.619290
  14 C     6.0000    0    12.011   -2.573618    6.790542    1.211692
  15 C     6.0000    0    12.011   -3.163968    4.371881    0.322387
  16 S    16.0000    0    32.060   -3.498828   -1.776909   -3.823483
  17 O     8.0000    0    15.999   -5.558629   -0.020220   -4.694458
  18 O     8.0000    0    15.999   -1.265739   -1.449798   -5.550693
  19 C     6.0000    0    12.011   -4.542902   -4.928784   -3.949339
  20 C     6.0000    0    12.011   -2.786968   -6.882949   -4.249049
  21 C     6.0000    0    12.011   -3.587645   -9.397419   -4.287978
  22 C     6.0000    0    12.011   -6.165798   -9.992494   -4.029463
  23 C     6.0000    0    12.011   -7.004648  -12.658519   -4.100328
  24 O     8.0000    0    15.999   -9.313326  -13.206162   -3.887734
  25 O     8.0000    0    15.999   -5.246825  -14.595867   -4.418936
  26 C     6.0000    0    12.011   -7.921921   -8.018864   -3.715580
  27 C     6.0000    0    12.011   -7.110850   -5.503827   -3.671171
  28 N     7.0000    0    14.007    1.437137    0.878156   -0.846219
  29 C     6.0000    0    12.011    3.928552    1.119474   -0.308781
  30 C     6.0000    0    12.011    5.303894    3.468592   -1.246085
  31 C     6.0000    0    12.011    3.945370    4.901572   -3.375807
  32 C     6.0000    0    12.011    4.657041    7.679280   -3.068159
  33 C     6.0000    0    12.011    6.029738    7.918519   -0.541596
  34 C     6.0000    0    12.011    5.620046    5.430506    0.837716
  35 C     6.0000    0    12.011    5.106985   -0.763260    1.192795
  36 C     6.0000    0    12.011    7.682115   -0.616996    1.881033
  37 C     6.0000    0    12.011    8.790439   -2.489525    3.369382
  38 C     6.0000    0    12.011    7.371633   -4.541768    4.197271
  39 C     6.0000    0    12.011    4.831274   -4.746614    3.528686
  40 C     6.0000    0    12.011    3.652463   -2.876352    2.023519
  41 H     1.0000    0     1.008   -2.425652   -5.291044    1.272920
  42 H     1.0000    0     1.008   -0.716395   -5.346035    4.208231
  43 H     1.0000    0     1.008    0.409315   -7.084772    1.481356
  44 H     1.0000    0     1.008   -4.617546   -1.515182    2.672829
  45 H     1.0000    0     1.008   -6.427337   -0.142296    0.184437
  46 H     1.0000    0     1.008   -4.847525    1.621385    5.919945
  47 H     1.0000    0     1.008   -3.958031    5.915788    7.451946
  48 H     1.0000    0     1.008   -1.984779    8.213317   -0.130958
  49 H     1.0000    0     1.008   -3.007688    3.985621   -1.678833
  50 H     1.0000    0     1.008   -0.794252   -6.457950   -4.437455
  51 H     1.0000    0     1.008   -2.185090  -10.871783   -4.519658
  52 H     1.0000    0     1.008   -5.803160  -16.428712   -4.471092
  53 H     1.0000    0     1.008   -9.917094   -8.414762   -3.494860
  54 H     1.0000    0     1.008   -8.483359   -4.010566   -3.401507
  55 H     1.0000    0     1.008    7.194187    2.927375   -1.994228
  56 H     1.0000    0     1.008    1.856656    4.761165   -3.219526
  57 H     1.0000    0     1.008    4.528918    4.167791   -5.263832
  58 H     1.0000    0     1.008    2.929453    8.881524   -3.062490
  59 H     1.0000    0     1.008    5.896701    8.297787   -4.647215
  60 H     1.0000    0     1.008    5.299548    9.545574    0.579957
  61 H     1.0000    0     1.008    8.086138    8.196687   -0.881368
  62 H     1.0000    0     1.008    7.249556    4.980940    2.085124
  63 H     1.0000    0     1.008    3.866380    5.560141    1.998763
  64 H     1.0000    0     1.008    8.873209    0.927478    1.283880
  65 H     1.0000    0     1.008   10.761990   -2.343071    3.882064
  66 H     1.0000    0     1.008    8.248655   -5.985519    5.354917
  67 H     1.0000    0     1.008    3.811389   -6.376881    4.217302

--------------------------------
INTERNAL COORDINATES (ANGSTROEM)
--------------------------------
 C      0   0   0     0.000000000000     0.00000000     0.00000000
 C      1   0   0     1.512900214819     0.00000000     0.00000000
 C      2   1   0     1.408784334098   120.52128626     0.00000000
 N      3   2   1     1.432400481709   121.98200896     3.21852316
 C      4   3   2     1.465593442944   120.51347196    81.74534171
 C      5   4   3     1.510471962666   111.56922815    54.82964668
 C      6   5   4     1.404722385384   119.96642916   222.30323652
 C      7   6   5     1.398289905563   120.25542814   181.18977968
 C      8   7   6     1.404523072078   120.53986150   358.30627859
 O      9   8   7     1.402640716648   118.39189927   180.72359866
 C     10   9   8     1.427601239843   124.46564176   140.14902117
 F     11  10   9     1.382980842239   109.78109138   307.32322481
 F     11  10   9     1.386986106636   111.51690840    68.12370714
 F     11  10   9     1.380942652683   108.70757533   188.53858846
 C      9   8   7     1.407187855263   119.33147208     2.31499335
 C     15   9   8     1.399000403860   120.09318466   359.83957983
 S      4   3   2     1.735887499235   118.78745153   255.03149039
 O     17   4   3     1.504887028983   110.06080815   221.30530238
 O     17   4   3     1.503919711953   109.80450327   340.27909872
 C     17   4   3     1.758289572283   109.04497391   100.20063022
 C     20  17   4     1.399260308163   119.77981332   274.78319192
 C     21  20  17     1.396582403584   120.28640450   178.39022693
 C     22  21  20     1.406837140539   120.40016398     0.07229756
 C     23  22  21     1.479462774118   120.12920460   179.33070089
 O     24  23  22     1.260631262503   120.51268411   180.49755997
 O     24  23  22     1.394536855017   120.26253410     0.11285973
 C     23  22  21     1.407820677501   119.04907582   359.60735000
 C     27  23  22     1.398592042019   120.35534359     0.22671556
 N      3   2   1     1.352809350943   120.10002056   182.29830826
 C     29   3   2     1.354757989458   124.09339147   359.38009005
 C     30  29   3     1.523484968748   118.25955661   181.35541176
 C     31  30  29     1.536868602061   114.70072524   341.87193357
 C     32  31  30     1.526085649628   106.35442577   149.53765398
 C     33  32  31     1.526844301165   106.89875103   350.53710031
 C     34  33  32     1.520918081292   106.29860045   348.31937953
 C     30  29   3     1.418759955031   118.62813828   358.55190690
 C     36  30  29     1.412651298092   121.99960535   181.42755884
 C     37  36  30     1.395055131527   120.80932187   179.70394875
 C     38  37  36     1.391052928540   120.35940690     0.15268842
 C     39  38  37     1.394298206984   120.07683917     0.40472744
 C     40  39  38     1.415289645267   120.88995799   359.51991903
 H      1   2   3     1.107496252815   112.64104894     6.45922849
 H      1   2   3     1.109159339320   109.67470493   245.65631683
 H      1   2   3     1.109540382321   109.84278200   125.24108196
 H      5   4   3     1.109098034441   108.76967432   292.75197361
 H      5   4   3     1.108479846456   110.26514360   175.67352895
 H      7   6   5     1.085992992611   120.72712195     0.69969268
 H      8   7   6     1.086494413239   119.39050393   179.29607992
 H     15   9   8     1.081093529719   121.15177780   177.45600950
 H     16  15   9     1.081711444887   119.02043130   177.97485007
 H     21  20  17     1.082815935420   120.24106749   358.88753876
 H     22  21  20     1.083791326778   118.67071790   180.10290817
 H     26  24  23     1.013971957206   120.85211490   180.03942076
 H     27  23  22     1.082703158765   120.85565079   180.54747862
 H     28  27  23     1.082723889087   119.39706889   180.86288081
 H     31  30  29     1.113266302373   109.57920687   221.98727430
 H     32  31  30     1.110877072407   112.19922247    32.16984325
 H     32  31  30     1.115497709545   110.82701426   270.59135203
 H     33  32  31     1.113786819818   110.35941142   231.02371984
 H     33  32  31     1.111615333647   110.42838070   110.99562997
 H     34  33  32     1.114839993003   111.42684897   226.86826649
 H     34  33  32     1.112733175564   109.55665952   106.37653493
 H     35  34  33     1.111705765929   111.07792029   149.32662419
 H     35  34  33     1.115068302841   109.25682629   270.05731778
 H     37  36  30     1.079404178239   121.95788284   359.54391791
 H     38  37  36     1.080779732415   119.77659285   180.18632651
 H     39  38  37     1.083680566403   119.82062721   180.08634257
 H     40  39  38     1.080886090206   117.25253069   179.93225497

---------------------------
INTERNAL COORDINATES (A.U.)
---------------------------
 C      0   0   0     0.000000000000     0.00000000     0.00000000
 C      1   0   0     2.858967073959     0.00000000     0.00000000
 C      2   1   0     2.662216573204   120.52128626     0.00000000
 N      3   2   1     2.706844624527   121.98200896     3.21852316
 C      4   3   2     2.769570230835   120.51347196    81.74534171
 C      5   4   3     2.854378342405   111.56922815    54.82964668
 C      6   5   4     2.654540602565   119.96642916   222.30323652
 C      7   6   5     2.642384977341   120.25542814   181.18977968
 C      8   7   6     2.654163955002   120.53986150   358.30627859
 O      9   8   7     2.650606818753   118.39189927   180.72359866
 C     10   9   8     2.697775371749   124.46564176   140.14902117
 F     11  10   9     2.613455040291   109.78109138   307.32322481
 F     11  10   9     2.621023893095   111.51690840    68.12370714
 F     11  10   9     2.609603420222   108.70757533   188.53858846
 C      9   8   7     2.659199665427   119.33147208     2.31499335
 C     15   9   8     2.643727624540   120.09318466   359.83957983
 S      4   3   2     3.280351972851   118.78745153   255.03149039
 O     17   4   3     2.843824347267   110.06080815   221.30530238
 O     17   4   3     2.841996382996   109.80450327   340.27909872
 C     17   4   3     3.322685755745   109.04497391   100.20063022
 C     20  17   4     2.644218772494   119.77981332   274.78319192
 C     21  20  17     2.639158266227   120.28640450   178.39022693
 C     22  21  20     2.658536910648   120.40016398     0.07229756
 C     23  22  21     2.795779468414   120.12920460   179.33070089
 O     24  23  22     2.382247841990   120.51268411   180.49755997
 O     24  23  22     2.635292739641   120.26253410     0.11285973
 C     23  22  21     2.660395526149   119.04907582   359.60735000
 C     27  23  22     2.642955932498   120.35534359     0.22671556
 N      3   2   1     2.556439184691   120.10002056   182.29830826
 C     29   3   2     2.560121577817   124.09339147   359.38009005
 C     30  29   3     2.878969360079   118.25955661   181.35541176
 C     31  30  29     2.904260761717   114.70072524   341.87193357
 C     32  31  30     2.883883934704   106.35442577   149.53765398
 C     33  32  31     2.885317578340   106.89875103   350.53710031
 C     34  33  32     2.874118645770   106.29860045   348.31937953
 C     30  29   3     2.681067764783   118.62813828   358.55190690
 C     36  30  29     2.669524076122   121.99960535   181.42755884
 C     37  36  30     2.636272140308   120.80932187   179.70394875
 C     38  37  36     2.628709072730   120.35940690     0.15268842
 C     39  38  37     2.634841760218   120.07683917     0.40472744
 C     40  39  38     2.674509829729   120.88995799   359.51991903
 H      1   2   3     2.092864612165   112.64104894     6.45922849
 H      1   2   3     2.096007390195   109.67470493   245.65631683
 H      1   2   3     2.096727457112   109.84278200   125.24108196
 H      5   4   3     2.095891540763   108.76967432   292.75197361
 H      5   4   3     2.094723334774   110.26514360   175.67352895
 H      7   6   5     2.052229339392   120.72712195     0.69969268
 H      8   7   6     2.053176887058   119.39050393   179.29607992
 H     15   9   8     2.042970696323   121.15177780   177.45600950
 H     16  15   9     2.044138386765   119.02043130   177.97485007
 H     21  20  17     2.046225571390   120.24106749   358.88753876
 H     22  21  20     2.048068793930   118.67071790   180.10290817
 H     26  24  23     1.916129306595   120.85211490   180.03942076
 H     27  23  22     2.046012454398   120.85565079   180.54747862
 H     28  27  23     2.046051629029   119.39706889   180.86288081
 H     31  30  29     2.103768425609   109.57920687   221.98727430
 H     32  31  30     2.099253435302   112.19922247    32.16984325
 H     32  31  30     2.107985174056   110.82701426   270.59135203
 H     33  32  31     2.104752061027   110.35941142   231.02371984
 H     33  32  31     2.100648546861   110.42838070   110.99562997
 H     34  33  32     2.106742269919   111.42684897   226.86826649
 H     34  33  32     2.102760961944   109.55665952   106.37653493
 H     35  34  33     2.100819439107   111.07792029   149.32662419
 H     35  34  33     2.107173712985   109.25682629   270.05731778
 H     37  36  30     2.039778284682   121.95788284   359.54391791
 H     38  37  36     2.042377705358   119.77659285   180.18632651
 H     39  38  37     2.047859487155   119.82062721   180.08634257
 H     40  39  38     2.042578692454   117.25253069   179.93225497

---------------------
BASIS SET INFORMATION
---------------------
There are 6 groups of distinct atoms

 Group   1 Type C   : 10s4p1d contracted to 3s2p1d pattern {631/31/1}
 Group   2 Type N   : 10s4p1d contracted to 3s2p1d pattern {631/31/1}
 Group   3 Type O   : 10s4p1d contracted to 3s2p1d pattern {631/31/1}
 Group   4 Type F   : 10s4p1d contracted to 3s2p1d pattern {631/31/1}
 Group   5 Type S   : 16s10p1d contracted to 4s3p1d pattern {6631/631/1}
 Group   6 Type H   : 4s contracted to 2s pattern {31}

Atom   0C    basis set group =>   1
Atom   1C    basis set group =>   1
Atom   2C    basis set group =>   1
Atom   3N    basis set group =>   2
Atom   4C    basis set group =>   1
Atom   5C    basis set group =>   1
Atom   6C    basis set group =>   1
Atom   7C    basis set group =>   1
Atom   8C    basis set group =>   1
Atom   9O    basis set group =>   3
Atom  10C    basis set group =>   1
Atom  11F    basis set group =>   4
Atom  12F    basis set group =>   4
Atom  13F    basis set group =>   4
Atom  14C    basis set group =>   1
Atom  15C    basis set group =>   1
Atom  16S    basis set group =>   5
Atom  17O    basis set group =>   3
Atom  18O    basis set group =>   3
Atom  19C    basis set group =>   1
Atom  20C    basis set group =>   1
Atom  21C    basis set group =>   1
Atom  22C    basis set group =>   1
Atom  23C    basis set group =>   1
Atom  24O    basis set group =>   3
Atom  25O    basis set group =>   3
Atom  26C    basis set group =>   1
Atom  27C    basis set group =>   1
Atom  28N    basis set group =>   2
Atom  29C    basis set group =>   1
Atom  30C    basis set group =>   1
Atom  31C    basis set group =>   1
Atom  32C    basis set group =>   1
Atom  33C    basis set group =>   1
Atom  34C    basis set group =>   1
Atom  35C    basis set group =>   1
Atom  36C    basis set group =>   1
Atom  37C    basis set group =>   1
Atom  38C    basis set group =>   1
Atom  39C    basis set group =>   1
Atom  40C    basis set group =>   1
Atom  41H    basis set group =>   6
Atom  42H    basis set group =>   6
Atom  43H    basis set group =>   6
Atom  44H    basis set group =>   6
Atom  45H    basis set group =>   6
Atom  46H    basis set group =>   6
Atom  47H    basis set group =>   6
Atom  48H    basis set group =>   6
Atom  49H    basis set group =>   6
Atom  50H    basis set group =>   6
Atom  51H    basis set group =>   6
Atom  52H    basis set group =>   6
Atom  53H    basis set group =>   6
Atom  54H    basis set group =>   6
Atom  55H    basis set group =>   6
Atom  56H    basis set group =>   6
Atom  57H    basis set group =>   6
Atom  58H    basis set group =>   6
Atom  59H    basis set group =>   6
Atom  60H    basis set group =>   6
Atom  61H    basis set group =>   6
Atom  62H    basis set group =>   6
Atom  63H    basis set group =>   6
Atom  64H    basis set group =>   6
Atom  65H    basis set group =>   6
Atom  66H    basis set group =>   6
Atom  67H    basis set group =>   6
---------------------------------
AUXILIARY/J BASIS SET INFORMATION
---------------------------------
There are 6 groups of distinct atoms

 Group   1 Type C   : 12s5p4d2f1g contracted to 6s4p3d1f1g pattern {711111/2111/211/2/1}
 Group   2 Type N   : 12s5p4d2f1g contracted to 6s4p3d1f1g pattern {711111/2111/211/2/1}
 Group   3 Type O   : 12s5p4d2f1g contracted to 6s4p3d1f1g pattern {711111/2111/211/2/1}
 Group   4 Type F   : 12s5p4d2f1g contracted to 6s4p3d1f1g pattern {711111/2111/211/2/1}
 Group   5 Type S   : 14s5p5d2f1g contracted to 8s4p3d1f1g pattern {71111111/2111/311/2/1}
 Group   6 Type H   : 5s2p1d contracted to 3s1p1d pattern {311/2/1}

Atom   0C    basis set group =>   1
Atom   1C    basis set group =>   1
Atom   2C    basis set group =>   1
Atom   3N    basis set group =>   2
Atom   4C    basis set group =>   1
Atom   5C    basis set group =>   1
Atom   6C    basis set group =>   1
Atom   7C    basis set group =>   1
Atom   8C    basis set group =>   1
Atom   9O    basis set group =>   3
Atom  10C    basis set group =>   1
Atom  11F    basis set group =>   4
Atom  12F    basis set group =>   4
Atom  13F    basis set group =>   4
Atom  14C    basis set group =>   1
Atom  15C    basis set group =>   1
Atom  16S    basis set group =>   5
Atom  17O    basis set group =>   3
Atom  18O    basis set group =>   3
Atom  19C    basis set group =>   1
Atom  20C    basis set group =>   1
Atom  21C    basis set group =>   1
Atom  22C    basis set group =>   1
Atom  23C    basis set group =>   1
Atom  24O    basis set group =>   3
Atom  25O    basis set group =>   3
Atom  26C    basis set group =>   1
Atom  27C    basis set group =>   1
Atom  28N    basis set group =>   2
Atom  29C    basis set group =>   1
Atom  30C    basis set group =>   1
Atom  31C    basis set group =>   1
Atom  32C    basis set group =>   1
Atom  33C    basis set group =>   1
Atom  34C    basis set group =>   1
Atom  35C    basis set group =>   1
Atom  36C    basis set group =>   1
Atom  37C    basis set group =>   1
Atom  38C    basis set group =>   1
Atom  39C    basis set group =>   1
Atom  40C    basis set group =>   1
Atom  41H    basis set group =>   6
Atom  42H    basis set group =>   6
Atom  43H    basis set group =>   6
Atom  44H    basis set group =>   6
Atom  45H    basis set group =>   6
Atom  46H    basis set group =>   6
Atom  47H    basis set group =>   6
Atom  48H    basis set group =>   6
Atom  49H    basis set group =>   6
Atom  50H    basis set group =>   6
Atom  51H    basis set group =>   6
Atom  52H    basis set group =>   6
Atom  53H    basis set group =>   6
Atom  54H    basis set group =>   6
Atom  55H    basis set group =>   6
Atom  56H    basis set group =>   6
Atom  57H    basis set group =>   6
Atom  58H    basis set group =>   6
Atom  59H    basis set group =>   6
Atom  60H    basis set group =>   6
Atom  61H    basis set group =>   6
Atom  62H    basis set group =>   6
Atom  63H    basis set group =>   6
Atom  64H    basis set group =>   6
Atom  65H    basis set group =>   6
Atom  66H    basis set group =>   6
Atom  67H    basis set group =>   6
------------------------------------------------------------------------------
                             ORCA STARTUP CALCULATIONS
                           -- RI-GTO INTEGRALS CHOSEN --
------------------------------------------------------------------------------
------------------------------------------------------------------------------
                   ___                                                        
                  /   \      - P O W E R E D   B Y -                         
                 /     \                                                     
                 |  |  |   _    _      __       _____    __    __             
                 |  |  |  | |  | |    /  \     |  _  \  |  |  /  |          
                  \  \/   | |  | |   /    \    | | | |  |  | /  /          
                 / \  \   | |__| |  /  /\  \   | |_| |  |  |/  /          
                |  |  |   |  __  | /  /__\  \  |    /   |      \           
                |  |  |   | |  | | |   __   |  |    \   |  |\   \          
                \     /   | |  | | |  |  |  |  | |\  \  |  | \   \       
                 \___/    |_|  |_| |__|  |__|  |_| \__\ |__|  \__/        
                                                                              
                      - O R C A' S   B I G   F R I E N D -                    
                                      &                                       
                       - I N T E G R A L  F E E D E R -                       
                                                                              
 v1 FN, 2020, v2 2021, v3 2022-2024                                           
------------------------------------------------------------------------------


----------------------
SHARK INTEGRAL PACKAGE
----------------------

Number of atoms                             ...     68
Number of basis functions                   ...    632
Number of shells                            ...    302
Maximum angular momentum                    ...      2
Integral batch strategy                     ... SHARK/LIBINT Hybrid
RI-J (if used) integral strategy            ... SPLIT-RIJ (Revised 2003 algorithm where possible)
Printlevel                                  ...      1
Contraction scheme used                     ... SEGMENTED contraction
Prescreening option                         ... SCHWARTZ
   Thresh                                   ... 1.000e-10
   Tcut                                     ... 1.000e-11
   Tpresel                                  ... 1.000e-11 
Coulomb Range Separation                    ... NOT USED
Exchange Range Separation                   ... NOT USED
Multipole approximations                    ... NOT USED
Finite Nucleus Model                        ... NOT USED
CABS basis                                  ... NOT available
Auxiliary Coulomb fitting basis             ... AVAILABLE
   # of basis functions in Aux-J            ...   2308
   # of shells in Aux-J                     ...    752
   Maximum angular momentum in Aux-J        ...      4
Auxiliary J/K fitting basis                 ... NOT available
Auxiliary Correlation fitting basis         ... NOT available
Auxiliary 'external' fitting basis          ... NOT available

Checking pre-screening integrals            ... done (  0.0 sec) Dimension = 302
Check shell pair data                       ... done (  0.0 sec)
Shell pair information
Shell pair cut-off parameter TPreSel        ...   1.0e-11
Total number of shell pairs                 ...     45753
Shell pairs after pre-screening             ...     24217
Total number of primitive shell pairs       ...    271452
Primitive shell pairs kept                  ...     70913
          la=0 lb=0:   7965 shell pairs
          la=1 lb=0:   8622 shell pairs
          la=1 lb=1:   2335 shell pairs
          la=2 lb=0:   3167 shell pairs
          la=2 lb=1:   1816 shell pairs
          la=2 lb=2:    312 shell pairs

Calculating one electron integrals          ... done (  0.3 sec)
Calculating RI/J V-Matrix + Cholesky decomp.... done (  0.6 sec)
Calculating Nuclear repulsion               ... done (  0.0 sec) ENN=   5087.969739127156 Eh

Diagonalization of the overlap matrix:
Smallest eigenvalue                        ... 3.310e-04
Time for diagonalization                   ...    0.051 sec
Threshold for overlap eigenvalues          ... 1.000e-07
Number of eigenvalues below threshold      ... 0
Time for construction of square roots      ...    0.039 sec
Total time needed                          ...    0.101 sec

-------------------
DFT GRID GENERATION
-------------------

General Integration Accuracy     IntAcc      ... 4.388
Radial Grid Type                 RadialGrid  ... OptM3 with GC (2021)
Angular Grid (max. ang.)         AngularGrid ... 4 (Lebedev-302)
Angular grid pruning method      GridPruning ... 4 (adaptive)
Weight generation scheme         WeightScheme... mBecke (2022)
Basis function cutoff            BFCut       ... 1.0000e-10
Integration weight cutoff        WCut        ... 1.0000e-14
Partially contracted basis set               ... off
Rotationally invariant grid construction     ... off
Angular grids for H and He will be reduced by one unit

Total number of grid points                  ...   330583
Total number of batches                      ...     5199
Average number of points per batch           ...       63
Average number of grid points per atom       ...     4862

--------------------
COSX GRID GENERATION
--------------------

GRIDX 1
-------
General Integration Accuracy     IntAcc      ... 3.816
Radial Grid Type                 RadialGrid  ... OptM3 with GC (2021)
Angular Grid (max. ang.)         AngularGrid ... 1 (Lebedev-50)
Angular grid pruning method      GridPruning ... 4 (adaptive)
Weight generation scheme         WeightScheme... mBecke (2022)
Basis function cutoff            BFCut       ... 1.0000e-10
Integration weight cutoff        WCut        ... 1.0000e-14
Partially contracted basis set               ... on
Rotationally invariant grid construction     ... off
Angular grids for H and He will be reduced by one unit

Total number of grid points                  ...    42827
Total number of batches                      ...      372
Average number of points per batch           ...      115
Average number of grid points per atom       ...      630
UseSFitting                                  ... on

GRIDX 2
-------
General Integration Accuracy     IntAcc      ... 4.020
Radial Grid Type                 RadialGrid  ... OptM3 with GC (2021)
Angular Grid (max. ang.)         AngularGrid ... 2 (Lebedev-110)
Angular grid pruning method      GridPruning ... 4 (adaptive)
Weight generation scheme         WeightScheme... mBecke (2022)
Basis function cutoff            BFCut       ... 1.0000e-10
Integration weight cutoff        WCut        ... 1.0000e-14
Partially contracted basis set               ... on
Rotationally invariant grid construction     ... off
Angular grids for H and He will be reduced by one unit

Total number of grid points                  ...    90800
Total number of batches                      ...      746
Average number of points per batch           ...      121
Average number of grid points per atom       ...     1335
UseSFitting                                  ... on

GRIDX 3
-------
General Integration Accuracy     IntAcc      ... 4.338
Radial Grid Type                 RadialGrid  ... OptM3 with GC (2021)
Angular Grid (max. ang.)         AngularGrid ... 3 (Lebedev-194)
Angular grid pruning method      GridPruning ... 4 (adaptive)
Weight generation scheme         WeightScheme... mBecke (2022)
Basis function cutoff            BFCut       ... 1.0000e-10
Integration weight cutoff        WCut        ... 1.0000e-14
Partially contracted basis set               ... on
Rotationally invariant grid construction     ... off
Angular grids for H and He will be reduced by one unit

Total number of grid points                  ...   198585
Total number of batches                      ...     1591
Average number of points per batch           ...      124
Average number of grid points per atom       ...     2920
UseSFitting                                  ... on
Initializing property integral containers    ... done (  0.0 sec)

SHARK setup successfully completed in  14.7 seconds

Maximum memory used throughout the entire STARTUP-calculation: 147.9 MB
-------------------------------------------------------------------------------
                                 ORCA GUESS
                   Start orbitals & Density for SCF / CASSCF
-------------------------------------------------------------------------------

------------
SCF SETTINGS
------------
Hamiltonian:
 Density Functional     Method          .... DFT(GTOs)
 Exchange Functional    Exchange        .... B88
   X-Alpha parameter    XAlpha          ....  0.666667
   Becke's b parameter  XBeta           ....  0.004200
 Correlation Functional Correlation     .... LYP
 LDA part of GGA corr.  LDAOpt          .... VWN-5
 Gradients option       PostSCFGGA      .... off
 Hybrid DFT is turned on
   Fraction HF Exchange ScalHFX         ....  0.200000
   Scaling of DF-GGA-X  ScalDFX         ....  0.720000
   Scaling of DF-GGA-C  ScalDFC         ....  0.810000
   Scaling of DF-LDA-C  ScalLDAC        ....  1.000000
   Perturbative correction              ....  0.000000
   NL short-range parameter             ....  4.800000
 RI-approximation to the Coulomb term is turned on
   Number of AuxJ basis functions       .... 2308
   RIJ-COSX (HFX calculated with COS-X)).... on


General Settings:
 Integral files         IntName         .... /home/nmrbox/aojoawo/Documents/ERDOS/inputs/CHEMBL3687397
 Hartree-Fock type      HFTyp           .... RHF
 Total Charge           Charge          ....    0
 Multiplicity           Mult            ....    1
 Number of Electrons    NEL             ....  304
 Basis Dimension        Dim             ....  632
 Nuclear Repulsion      ENuc            ....   5087.9697391272 Eh

Convergence Acceleration:
 AO-DIIS                CNVDIIS         .... on
   Start iteration      DIISMaxIt       ....    12
   Startup error        DIISStart       ....  0.200000
   # of expansion vecs  DIISMaxEq       ....     5
   Bias factor          DIISBfac        ....   1.050
   Max. coefficient     DIISMaxC        ....  10.000
 MO-DIIS                CNVKDIIS        .... off
 Trust-Rad. Augm. Hess. CNVTRAH         .... auto
   Auto Start mean grad. ratio tolernc. ....  1.125000
   Auto Start start iteration           ....    50
   Auto Start num. interpolation iter.  ....    10
   Max. Number of Micro iterations      ....    24
   Max. Number of Macro iterations      .... Maxiter - #DIIS iter
   Number of Davidson start vectors     ....     2
   Converg. threshold    (grad. norm)   ....   5.000e-05
   Grad. Scal. Fac. for Micro threshold ....   0.100
   Minimum threshold for Micro iter.    ....   1.000e-02
   NR start threshold (gradient norm)   ....   1.000e-04
   Initial trust radius                 ....   0.400
   Minimum AH scaling param. (alpha)    ....   1.000
   Maximum AH scaling param. (alpha)    .... 1000.000
   Quad. conv. algorithm                .... NR
   White noise on init. David. guess    .... on
   Maximum white noise                  ....   0.010
   Pseudo random numbers                .... off
   Inactive MOs                         .... canonical
   Orbital update algorithm             .... Taylor
   Preconditioner                       .... Diag
   Full preconditioner red. dimension   ....   250
 SOSCF                  CNVSOSCF        .... on
   Start iteration      SOSCFMaxIt      ....   150
   Startup grad/error   SOSCFStart      ....  0.003300
   Hessian update       SOSCFHessUp     .... L-BFGS
 Level Shifting         CNVShift        .... on
   Level shift para.    LevelShift      ....    0.2500
   Turn off err/grad.   ShiftErr        ....    0.0010
 Zerner damping         CNVZerner       .... off
 Static damping         CNVDamp         .... on
   Fraction old density DampFac         ....    0.7000
   Max. Damping (<1)    DampMax         ....    0.9800
   Min. Damping (>=0)   DampMin         ....    0.0000
   Turn off err/grad.   DampErr         ....    0.1000

SCF Procedure:
 Maximum # iterations   MaxIter         ....   125
 SCF integral mode      SCFMode         .... Direct
   Integral package                     .... SHARK and LIBINT hybrid scheme
 Reset frequency        DirectResetFreq ....    20
 Integral Threshold     Thresh          ....  1.000e-10 Eh
 Primitive CutOff       TCut            ....  1.000e-11 Eh

Convergence Tolerance:
 Convergence Check Mode ConvCheckMode   .... Total+1el-Energy
 Convergence forced     ConvForced      .... 0
 Energy Change          TolE            ....  1.000e-06 Eh
 1-El. energy change                    ....  1.000e-03 Eh
 Orbital Gradient       TolG            ....  5.000e-05
 Orbital Rotation angle TolX            ....  5.000e-05
 DIIS Error             TolErr          ....  1.000e-06

------------------------------
INITIAL GUESS: MODEL POTENTIAL
------------------------------
Loading Hartree-Fock densities                     ... done
Calculating cut-offs                               ... done
Initializing the effective Hamiltonian             ... done
Setting up the integral package (SHARK)            ... done
Starting the Coulomb interaction                   ... done (   3.9 sec)
Making the grid                                    ... done (   1.8 sec)
Mapping shells                                     ... done
Starting the XC term evaluation                    ... done (   1.2 sec)
  promolecular density results
     # of electrons  =    303.990640035
     EX              =   -271.599457205
     EC              =    -10.646400697
     EX+EC           =   -282.245857902
Transforming the Hamiltonian                       ... done (   0.0 sec)
Diagonalizing the Hamiltonian                      ... done (   0.1 sec)
Back transforming the eigenvectors                 ... done (   0.0 sec)
Now organizing SCF variables                       ... done
                      ------------------
                      INITIAL GUESS DONE (   7.1 sec)
                      ------------------
             **** ENERGY FILE WAS UPDATED (/home/nmrbox/aojoawo/Documents/ERDOS/inputs/CHEMBL3687397.en.tmp) ****
Finished Guess after   7.5 sec
Maximum memory used throughout the entire GUESS-calculation: 82.8 MB

-------------------------------------------------------------------------------------------
                                      ORCA LEAN-SCF
                              memory conserving SCF solver
-------------------------------------------------------------------------------------------

----------------------------------------D-I-I-S--------------------------------------------
Iteration    Energy (Eh)           Delta-E    RMSDP     MaxDP     DIISErr   Damp  Time(sec)
-------------------------------------------------------------------------------------------
               ***  Starting incremental Fock matrix formation  ***
    1    -2340.3422187585974825     0.00e+00  2.23e-03  1.88e-01  2.98e-01  0.700  71.2
    2    -2340.9141125698452015    -5.72e-01  1.35e-03  7.69e-02  9.98e-02  0.700  31.6
                               ***Turning on AO-DIIS***
    3    -2341.1104781364674636    -1.96e-01  5.31e-04  1.74e-02  4.15e-02  0.700  29.9
    4    -2341.2393496284958019    -1.29e-01  8.99e-04  3.28e-02  1.81e-02  0.000  27.4
    5    -2341.5296542524238248    -2.90e-01  2.06e-04  8.27e-03  7.59e-03  0.000  28.9
                              *** Initializing SOSCF ***
---------------------------------------S-O-S-C-F--------------------------------------
Iteration    Energy (Eh)           Delta-E    RMSDP     MaxDP     MaxGrad    Time(sec)
--------------------------------------------------------------------------------------
    6    -2341.5316180427034851    -1.96e-03  6.96e-05  3.73e-03  3.13e-03    25.8
               *** Restarting incremental Fock matrix formation ***
    7    -2341.5317722009749559    -1.54e-04  6.59e-05  3.83e-03  5.48e-04    72.5
    8    -2341.5316807040790081     9.15e-05  4.30e-05  2.73e-03  1.15e-03    39.2
    9    -2341.5318060095678447    -1.25e-04  1.24e-05  9.58e-04  1.18e-04    35.6
   10    -2341.5318030685348276     2.94e-06  7.81e-06  6.36e-04  2.27e-04    28.9
   11    -2341.5318074872438956    -4.42e-06  2.16e-06  1.20e-04  2.92e-05    25.5
   12    -2341.5318074753031397     1.19e-08  1.32e-06  7.77e-05  4.48e-05    20.8
                 **** Energy Check signals convergence ****

               *****************************************************
               *                     SUCCESS                       *
               *           SCF CONVERGED AFTER  12 CYCLES          *
               *****************************************************

Recomputing exchange energy using gridx3       ... done (  125.796 sec)
Old exchange energy                            :    -54.935708533 Eh
New exchange energy                            :    -54.935705944 Eh
Exchange energy change after final integration :      0.000002589 Eh
Total energy after final integration           :  -2341.531804886 Eh
             **** ENERGY FILE WAS UPDATED (/home/nmrbox/aojoawo/Documents/ERDOS/inputs/CHEMBL3687397.en.tmp) ****

----------------
TOTAL SCF ENERGY
----------------

Total Energy       :      -2341.53180488632825 Eh          -63716.31969 eV

Components:
Nuclear Repulsion  :       5087.96973912715566 Eh          138450.69530 eV
Electronic Energy  :      -7429.50154660245880 Eh         -202167.01506 eV
One Electron Energy:     -13336.41247215700059 Eh         -362902.23296 eV
Two Electron Energy:       5906.91092555454179 Eh          160735.21790 eV

Virial components:
Potential Energy   :      -4669.63370248476895 Eh         -127067.19302 eV
Kinetic Energy     :       2328.10189759844070 Eh           63350.87333 eV
Virial Ratio       :          2.00576860802431

DFT components:
N(Alpha)           :      152.000112416908 electrons
N(Beta)            :      152.000112416908 electrons
N(Total)           :      304.000224833817 electrons
E(X)               :     -218.333023723294 Eh       
E(C)               :      -12.501635490810 Eh       
E(XC)              :     -230.834659214105 Eh       

---------------
SCF CONVERGENCE
---------------

  Last Energy change         ...   -1.1941e-08  Tolerance :   1.0000e-06
  Last MAX-Density change    ...    7.7733e-05  Tolerance :   1.0000e-05
  Last RMS-Density change    ...    1.3169e-06  Tolerance :   1.0000e-06
  Last DIIS Error            ...    3.1343e-03  Tolerance :   1.0000e-06
  Last Orbital Gradient      ...    4.4791e-05  Tolerance :   5.0000e-05
  Last Orbital Rotation      ...    6.0337e-05  Tolerance :   5.0000e-05


----------------
ORBITAL ENERGIES
----------------

  NO   OCC          E(Eh)            E(eV) 
   0   2.0000     -89.097775     -2424.4737 
   1   2.0000     -24.738319      -673.1639 
   2   2.0000     -24.737075      -673.1300 
   3   2.0000     -24.735875      -673.0974 
   4   2.0000     -19.206193      -522.6271 
   5   2.0000     -19.198466      -522.4168 
   6   2.0000     -19.140554      -520.8409 
   7   2.0000     -19.128665      -520.5174 
   8   2.0000     -19.124685      -520.4091 
   9   2.0000     -14.371250      -391.0616 
  10   2.0000     -14.320706      -389.6862 
  11   2.0000     -10.500091      -285.7220 
  12   2.0000     -10.337910      -281.3088 
  13   2.0000     -10.260394      -279.1995 
  14   2.0000     -10.256476      -279.0929 
  15   2.0000     -10.244213      -278.7592 
  16   2.0000     -10.235930      -278.5338 
  17   2.0000     -10.234792      -278.5028 
  18   2.0000     -10.227808      -278.3128 
  19   2.0000     -10.223209      -278.1877 
  20   2.0000     -10.222059      -278.1564 
  21   2.0000     -10.220645      -278.1179 
  22   2.0000     -10.220252      -278.1072 
  23   2.0000     -10.207699      -277.7656 
  24   2.0000     -10.206279      -277.7270 
  25   2.0000     -10.200333      -277.5652 
  26   2.0000     -10.196585      -277.4632 
  27   2.0000     -10.195941      -277.4457 
  28   2.0000     -10.195731      -277.4399 
  29   2.0000     -10.195350      -277.4296 
  30   2.0000     -10.193801      -277.3874 
  31   2.0000     -10.193696      -277.3846 
  32   2.0000     -10.192689      -277.3572 
  33   2.0000     -10.190852      -277.3072 
  34   2.0000     -10.188924      -277.2547 
  35   2.0000     -10.186078      -277.1773 
  36   2.0000     -10.180304      -277.0202 
  37   2.0000     -10.166822      -276.6533 
  38   2.0000     -10.160684      -276.4863 
  39   2.0000     -10.157181      -276.3909 
  40   2.0000     -10.153430      -276.2889 
  41   2.0000      -8.133447      -221.3223 
  42   2.0000      -6.098408      -165.9461 
  43   2.0000      -6.096511      -165.8945 
  44   2.0000      -6.096149      -165.8846 
  45   2.0000      -1.300765       -35.3956 
  46   2.0000      -1.221863       -33.2486 
  47   2.0000      -1.220857       -33.2212 
  48   2.0000      -1.083663       -29.4880 
  49   2.0000      -1.082648       -29.4603 
  50   2.0000      -1.076951       -29.3053 
  51   2.0000      -0.997373       -27.1399 
  52   2.0000      -0.963819       -26.2268 
  53   2.0000      -0.960109       -26.1259 
  54   2.0000      -0.913653       -24.8618 
  55   2.0000      -0.892998       -24.2997 
  56   2.0000      -0.862454       -23.4686 
  57   2.0000      -0.857299       -23.3283 
  58   2.0000      -0.832603       -22.6563 
  59   2.0000      -0.809891       -22.0383 
  60   2.0000      -0.805774       -21.9262 
  61   2.0000      -0.781671       -21.2703 
  62   2.0000      -0.779448       -21.2099 
  63   2.0000      -0.771209       -20.9857 
  64   2.0000      -0.751585       -20.4517 
  65   2.0000      -0.743935       -20.2435 
  66   2.0000      -0.727814       -19.8048 
  67   2.0000      -0.723390       -19.6844 
  68   2.0000      -0.707629       -19.2556 
  69   2.0000      -0.696789       -18.9606 
  70   2.0000      -0.683007       -18.5856 
  71   2.0000      -0.672826       -18.3085 
  72   2.0000      -0.652828       -17.7644 
  73   2.0000      -0.641468       -17.4552 
  74   2.0000      -0.640222       -17.4213 
  75   2.0000      -0.626817       -17.0566 
  76   2.0000      -0.622615       -16.9422 
  77   2.0000      -0.613577       -16.6963 
  78   2.0000      -0.594940       -16.1891 
  79   2.0000      -0.592745       -16.1294 
  80   2.0000      -0.591909       -16.1067 
  81   2.0000      -0.587492       -15.9865 
  82   2.0000      -0.568178       -15.4609 
  83   2.0000      -0.563396       -15.3308 
  84   2.0000      -0.550636       -14.9836 
  85   2.0000      -0.545494       -14.8436 
  86   2.0000      -0.543190       -14.7809 
  87   2.0000      -0.528336       -14.3768 
  88   2.0000      -0.514241       -13.9932 
  89   2.0000      -0.504181       -13.7195 
  90   2.0000      -0.494850       -13.4656 
  91   2.0000      -0.491465       -13.3734 
  92   2.0000      -0.482339       -13.1251 
  93   2.0000      -0.480086       -13.0638 
  94   2.0000      -0.474509       -12.9121 
  95   2.0000      -0.473058       -12.8726 
  96   2.0000      -0.471146       -12.8205 
  97   2.0000      -0.465710       -12.6726 
  98   2.0000      -0.463529       -12.6133 
  99   2.0000      -0.461677       -12.5629 
 100   2.0000      -0.458712       -12.4822 
 101   2.0000      -0.453981       -12.3535 
 102   2.0000      -0.451505       -12.2861 
 103   2.0000      -0.448056       -12.1922 
 104   2.0000      -0.444635       -12.0991 
 105   2.0000      -0.440565       -11.9884 
 106   2.0000      -0.440432       -11.9848 
 107   2.0000      -0.438356       -11.9283 
 108   2.0000      -0.437870       -11.9151 
 109   2.0000      -0.431771       -11.7491 
 110   2.0000      -0.429830       -11.6963 
 111   2.0000      -0.422849       -11.5063 
 112   2.0000      -0.417269       -11.3545 
 113   2.0000      -0.416791       -11.3415 
 114   2.0000      -0.415510       -11.3066 
 115   2.0000      -0.412966       -11.2374 
 116   2.0000      -0.406420       -11.0592 
 117   2.0000      -0.403804       -10.9881 
 118   2.0000      -0.403520       -10.9803 
 119   2.0000      -0.395320       -10.7572 
 120   2.0000      -0.391448       -10.6518 
 121   2.0000      -0.388431       -10.5698 
 122   2.0000      -0.387771       -10.5518 
 123   2.0000      -0.380067       -10.3421 
 124   2.0000      -0.371132       -10.0990 
 125   2.0000      -0.369645       -10.0585 
 126   2.0000      -0.369011       -10.0413 
 127   2.0000      -0.359914        -9.7938 
 128   2.0000      -0.351232        -9.5575 
 129   2.0000      -0.345212        -9.3937 
 130   2.0000      -0.338089        -9.1999 
 131   2.0000      -0.331928        -9.0322 
 132   2.0000      -0.326830        -8.8935 
 133   2.0000      -0.324187        -8.8216 
 134   2.0000      -0.323111        -8.7923 
 135   2.0000      -0.322071        -8.7640 
 136   2.0000      -0.317779        -8.6472 
 137   2.0000      -0.313815        -8.5393 
 138   2.0000      -0.307565        -8.3693 
 139   2.0000      -0.297288        -8.0896 
 140   2.0000      -0.294325        -8.0090 
 141   2.0000      -0.290089        -7.8937 
 142   2.0000      -0.281892        -7.6707 
 143   2.0000      -0.281496        -7.6599 
 144   2.0000      -0.277242        -7.5441 
 145   2.0000      -0.272973        -7.4280 
 146   2.0000      -0.264500        -7.1974 
 147   2.0000      -0.257193        -6.9986 
 148   2.0000      -0.256136        -6.9698 
 149   2.0000      -0.242978        -6.6118 
 150   2.0000      -0.231145        -6.2898 
 151   2.0000      -0.220038        -5.9875 
 152   0.0000      -0.085551        -2.3280 
 153   0.0000      -0.058425        -1.5898 
 154   0.0000      -0.034986        -0.9520 
 155   0.0000      -0.030316        -0.8249 
 156   0.0000      -0.010215        -0.2780 
 157   0.0000      -0.007175        -0.1952 
 158   0.0000       0.011834         0.3220 
 159   0.0000       0.023487         0.6391 
 160   0.0000       0.036088         0.9820 
 161   0.0000       0.042984         1.1697 
 162   0.0000       0.046889         1.2759 
*Only the first 10 virtual orbitals were printed.

                    ********************************
                    * MULLIKEN POPULATION ANALYSIS *
                    ********************************

-----------------------
MULLIKEN ATOMIC CHARGES
-----------------------
   0 C :   -0.544274
   1 C :    0.092426
   2 C :    0.312017
   3 N :   -0.627204
   4 C :   -0.215085
   5 C :    0.137521
   6 C :   -0.180534
   7 C :   -0.164015
   8 C :    0.332531
   9 O :   -0.541778
  10 C :    1.069222
  11 F :   -0.281533
  12 F :   -0.284829
  13 F :   -0.277320
  14 C :   -0.187838
  15 C :   -0.138751
  16 S :    1.209205
  17 O :   -0.553140
  18 O :   -0.533701
  19 C :   -0.114386
  20 C :   -0.147145
  21 C :   -0.148028
  22 C :    0.081099
  23 C :    0.528735
  24 O :   -0.443569
  25 O :   -0.624924
  26 C :   -0.139090
  27 C :   -0.152365
  28 N :   -0.409206
  29 C :    0.203363
  30 C :   -0.157813
  31 C :   -0.264291
  32 C :   -0.272452
  33 C :   -0.262021
  34 C :   -0.273270
  35 C :    0.104555
  36 C :   -0.203229
  37 C :   -0.125428
  38 C :   -0.117511
  39 C :   -0.205534
  40 C :    0.127401
  41 H :    0.167531
  42 H :    0.162487
  43 H :    0.161159
  44 H :    0.150193
  45 H :    0.192817
  46 H :    0.130200
  47 H :    0.143927
  48 H :    0.157381
  49 H :    0.186559
  50 H :    0.185751
  51 H :    0.173337
  52 H :    0.434339
  53 H :    0.181347
  54 H :    0.182655
  55 H :    0.131259
  56 H :    0.171983
  57 H :    0.135767
  58 H :    0.132020
  59 H :    0.129256
  60 H :    0.134925
  61 H :    0.124573
  62 H :    0.128243
  63 H :    0.148158
  64 H :    0.142553
  65 H :    0.134420
  66 H :    0.135055
  67 H :    0.134295
Sum of atomic charges:   -0.0000000

--------------------------------
MULLIKEN REDUCED ORBITAL CHARGES
--------------------------------
  0 C s       :     3.318331  s :     3.318331
      pz      :     1.077310  p :     3.191482
      px      :     1.068838
      py      :     1.045334
      dz2     :     0.010482  d :     0.034462
      dxz     :     0.004830
      dyz     :     0.003733
      dx2y2   :     0.007892
      dxy     :     0.007524

  1 C s       :     3.177625  s :     3.177625
      pz      :     0.943593  p :     2.690084
      px      :     0.885458
      py      :     0.861034
      dz2     :     0.005947  d :     0.039864
      dxz     :     0.006631
      dyz     :     0.005860
      dx2y2   :     0.010774
      dxy     :     0.010653

  2 C s       :     3.042575  s :     3.042575
      pz      :     0.971305  p :     2.570806
      px      :     0.694861
      py      :     0.904640
      dz2     :     0.008483  d :     0.074601
      dxz     :     0.010804
      dyz     :     0.009877
      dx2y2   :     0.022607
      dxy     :     0.022830

  3 N s       :     3.597806  s :     3.597806
      pz      :     1.146777  p :     3.996117
      px      :     1.154871
      py      :     1.694469
      dz2     :     0.009076  d :     0.033280
      dxz     :     0.009696
      dyz     :     0.004077
      dx2y2   :     0.005978
      dxy     :     0.004453

  4 C s       :     3.227123  s :     3.227123
      pz      :     0.962560  p :     2.932570
      px      :     0.969697
      py      :     1.000313
      dz2     :     0.006903  d :     0.055392
      dxz     :     0.013121
      dyz     :     0.015284
      dx2y2   :     0.012543
      dxy     :     0.007541

  5 C s       :     3.135814  s :     3.135814
      pz      :     0.867689  p :     2.687464
      px      :     0.970587
      py      :     0.849188
      dz2     :     0.010140  d :     0.039201
      dxz     :     0.006455
      dyz     :     0.011908
      dx2y2   :     0.006029
      dxy     :     0.004669

  6 C s       :     3.200579  s :     3.200579
      pz      :     0.968300  p :     2.943668
      px      :     0.999033
      py      :     0.976335
      dz2     :     0.008111  d :     0.036288
      dxz     :     0.005563
      dyz     :     0.013068
      dx2y2   :     0.004514
      dxy     :     0.005032

  7 C s       :     3.197214  s :     3.197214
      pz      :     0.959880  p :     2.932360
      px      :     1.019605
      py      :     0.952875
      dz2     :     0.009734  d :     0.034441
      dxz     :     0.003019
      dyz     :     0.010331
      dx2y2   :     0.005400
      dxy     :     0.005957

  8 C s       :     3.083915  s :     3.083915
      pz      :     0.866091  p :     2.518174
      px      :     0.993890
      py      :     0.658193
      dz2     :     0.014373  d :     0.065380
      dxz     :     0.008527
      dyz     :     0.020168
      dx2y2   :     0.012321
      dxy     :     0.009990

  9 O s       :     3.879729  s :     3.879729
      pz      :     1.742782  p :     4.635679
      px      :     1.521071
      py      :     1.371827
      dz2     :     0.003291  d :     0.026370
      dxz     :     0.004384
      dyz     :     0.006325
      dx2y2   :     0.006281
      dxy     :     0.006089

 10 C s       :     2.722824  s :     2.722824
      pz      :     0.654372  p :     2.043836
      px      :     0.706720
      py      :     0.682744
      dz2     :     0.037316  d :     0.164118
      dxz     :     0.024144
      dyz     :     0.036625
      dx2y2   :     0.028841
      dxy     :     0.037191

 11 F s       :     3.979689  s :     3.979689
      pz      :     1.901869  p :     5.285763
      px      :     1.596832
      py      :     1.787062
      dz2     :     0.002266  d :     0.016081
      dxz     :     0.002746
      dyz     :     0.001230
      dx2y2   :     0.003981
      dxy     :     0.005858

 12 F s       :     3.980790  s :     3.980790
      pz      :     1.514945  p :     5.288122
      px      :     1.907478
      py      :     1.865699
      dz2     :     0.006995  d :     0.015916
      dxz     :     0.003109
      dyz     :     0.004546
      dx2y2   :     0.000616
      dxy     :     0.000649

 13 F s       :     3.978122  s :     3.978122
      pz      :     1.745898  p :     5.283058
      px      :     1.907737
      py      :     1.629423
      dz2     :     0.002580  d :     0.016139
      dxz     :     0.001424
      dyz     :     0.006418
      dx2y2   :     0.003491
      dxy     :     0.002225

 14 C s       :     3.191814  s :     3.191814
      pz      :     0.932937  p :     2.961367
      px      :     1.021946
      py      :     1.006484
      dz2     :     0.008269  d :     0.034658
      dxz     :     0.005249
      dyz     :     0.012075
      dx2y2   :     0.004363
      dxy     :     0.004702

 15 C s       :     3.206128  s :     3.206128
      pz      :     1.025729  p :     2.896614
      px      :     0.947609
      py      :     0.923275
      dz2     :     0.011383  d :     0.036009
      dxz     :     0.003002
      dyz     :     0.010076
      dx2y2   :     0.005612
      dxy     :     0.005935

 16 S s       :     5.221506  s :     5.221506
      pz      :     3.002752  p :     9.031982
      px      :     2.966548
      py      :     3.062682
      dz2     :     0.125340  d :     0.537307
      dxz     :     0.106973
      dyz     :     0.070106
      dx2y2   :     0.121206
      dxy     :     0.113682

 17 O s       :     3.929821  s :     3.929821
      pz      :     1.599105  p :     4.596637
      px      :     1.499836
      py      :     1.497696
      dz2     :     0.003577  d :     0.026682
      dxz     :     0.004851
      dyz     :     0.004572
      dx2y2   :     0.006660
      dxy     :     0.007022

 18 O s       :     3.926927  s :     3.926927
      pz      :     1.448018  p :     4.579634
      px      :     1.435877
      py      :     1.695739
      dz2     :     0.005837  d :     0.027140
      dxz     :     0.008029
      dyz     :     0.003607
      dx2y2   :     0.004839
      dxy     :     0.004829

 19 C s       :     3.224296  s :     3.224296
      pz      :     1.035659  p :     2.851294
      px      :     0.960379
      py      :     0.855256
      dz2     :     0.003572  d :     0.038796
      dxz     :     0.006546
      dyz     :     0.003352
      dx2y2   :     0.013293
      dxy     :     0.012033

 20 C s       :     3.206048  s :     3.206048
      pz      :     0.952405  p :     2.905064
      px      :     1.023225
      py      :     0.929434
      dz2     :     0.003574  d :     0.036033
      dxz     :     0.002514
      dyz     :     0.005913
      dx2y2   :     0.012699
      dxy     :     0.011333

 21 C s       :     3.211241  s :     3.211241
      pz      :     0.954991  p :     2.901038
      px      :     0.986105
      py      :     0.959943
      dz2     :     0.003398  d :     0.035749
      dxz     :     0.004239
      dyz     :     0.004054
      dx2y2   :     0.010267
      dxy     :     0.013791

 22 C s       :     3.166035  s :     3.166035
      pz      :     1.000776  p :     2.714537
      px      :     0.849186
      py      :     0.864575
      dz2     :     0.003309  d :     0.038330
      dxz     :     0.006033
      dyz     :     0.003863
      dx2y2   :     0.013651
      dxy     :     0.011473

 23 C s       :     2.997413  s :     2.997413
      pz      :     0.801804  p :     2.363882
      px      :     0.728562
      py      :     0.833516
      dz2     :     0.006662  d :     0.109970
      dxz     :     0.020374
      dyz     :     0.009245
      dx2y2   :     0.029011
      dxy     :     0.044679

 24 O s       :     3.878195  s :     3.878195
      pz      :     1.406640  p :     4.539720
      px      :     1.362127
      py      :     1.770953
      dz2     :     0.002521  d :     0.025654
      dxz     :     0.008809
      dyz     :     0.000669
      dx2y2   :     0.007410
      dxy     :     0.006246

 25 O s       :     3.873221  s :     3.873221
      pz      :     1.809264  p :     4.730851
      px      :     1.669645
      py      :     1.251943
      dz2     :     0.003804  d :     0.020852
      dxz     :     0.003253
      dyz     :     0.000797
      dx2y2   :     0.005081
      dxy     :     0.007917

 26 C s       :     3.215613  s :     3.215613
      pz      :     0.941423  p :     2.887891
      px      :     1.009207
      py      :     0.937262
      dz2     :     0.003399  d :     0.035586
      dxz     :     0.002593
      dyz     :     0.005686
      dx2y2   :     0.012788
      dxy     :     0.011120

 27 C s       :     3.206973  s :     3.206973
      pz      :     0.962967  p :     2.909449
      px      :     0.951288
      py      :     0.995194
      dz2     :     0.003382  d :     0.035943
      dxz     :     0.004554
      dyz     :     0.004126
      dx2y2   :     0.010309
      dxy     :     0.013572

 28 N s       :     3.721216  s :     3.721216
      pz      :     1.253073  p :     3.652732
      px      :     1.100182
      py      :     1.299477
      dz2     :     0.005079  d :     0.035258
      dxz     :     0.007758
      dyz     :     0.005510
      dx2y2   :     0.009516
      dxy     :     0.007396

 29 C s       :     3.118661  s :     3.118661
      pz      :     0.891949  p :     2.619528
      px      :     0.819827
      py      :     0.907752
      dz2     :     0.006724  d :     0.058447
      dxz     :     0.011967
      dyz     :     0.006730
      dx2y2   :     0.015498
      dxy     :     0.017529

 30 C s       :     3.223817  s :     3.223817
      pz      :     0.945350  p :     2.889346
      px      :     1.007249
      py      :     0.936748
      dz2     :     0.007809  d :     0.044651
      dxz     :     0.008185
      dyz     :     0.011141
      dx2y2   :     0.009434
      dxy     :     0.008082

 31 C s       :     3.249087  s :     3.249087
      pz      :     0.995870  p :     2.976213
      px      :     1.064199
      py      :     0.916145
      dz2     :     0.010102  d :     0.038990
      dxz     :     0.004418
      dyz     :     0.008206
      dx2y2   :     0.010820
      dxy     :     0.005444

 32 C s       :     3.243841  s :     3.243841
      pz      :     0.979694  p :     2.988901
      px      :     1.026881
      py      :     0.982325
      dz2     :     0.008947  d :     0.039710
      dxz     :     0.008669
      dyz     :     0.005893
      dx2y2   :     0.006344
      dxy     :     0.009856

 33 C s       :     3.246609  s :     3.246609
      pz      :     0.961193  p :     2.975300
      px      :     1.028812
      py      :     0.985294
      dz2     :     0.007556  d :     0.040113
      dxz     :     0.006425
      dyz     :     0.010552
      dx2y2   :     0.011210
      dxy     :     0.004369

 34 C s       :     3.257030  s :     3.257030
      pz      :     0.978814  p :     2.975429
      px      :     1.062815
      py      :     0.933800
      dz2     :     0.003625  d :     0.040811
      dxz     :     0.012949
      dyz     :     0.009883
      dx2y2   :     0.009896
      dxy     :     0.004458

 35 C s       :     3.153351  s :     3.153351
      pz      :     0.938096  p :     2.701797
      px      :     0.865754
      py      :     0.897947
      dz2     :     0.005256  d :     0.040298
      dxz     :     0.007897
      dyz     :     0.005821
      dx2y2   :     0.010304
      dxy     :     0.011021

 36 C s       :     3.213300  s :     3.213300
      pz      :     0.977522  p :     2.953961
      px      :     1.003567
      py      :     0.972872
      dz2     :     0.005259  d :     0.035967
      dxz     :     0.006629
      dyz     :     0.004496
      dx2y2   :     0.008145
      dxy     :     0.011438

 37 C s       :     3.191974  s :     3.191974
      pz      :     0.974410  p :     2.896913
      px      :     0.979404
      py      :     0.943099
      dz2     :     0.005356  d :     0.036540
      dxz     :     0.005364
      dyz     :     0.005874
      dx2y2   :     0.012038
      dxy     :     0.007909

 38 C s       :     3.192522  s :     3.192522
      pz      :     0.975742  p :     2.888193
      px      :     0.954101
      py      :     0.958350
      dz2     :     0.003137  d :     0.036796
      dxz     :     0.007424
      dyz     :     0.006546
      dx2y2   :     0.009177
      dxy     :     0.010512

 39 C s       :     3.211153  s :     3.211153
      pz      :     0.997242  p :     2.958784
      px      :     0.962307
      py      :     0.999234
      dz2     :     0.004645  d :     0.035596
      dxz     :     0.006820
      dyz     :     0.005008
      dx2y2   :     0.008068
      dxy     :     0.011055

 40 C s       :     3.139744  s :     3.139744
      pz      :     0.927066  p :     2.691673
      px      :     0.883066
      py      :     0.881541
      dz2     :     0.005979  d :     0.041182
      dxz     :     0.007836
      dyz     :     0.005906
      dx2y2   :     0.010612
      dxy     :     0.010850

 41 H s       :     0.832469  s :     0.832469

 42 H s       :     0.837513  s :     0.837513

 43 H s       :     0.838841  s :     0.838841

 44 H s       :     0.849807  s :     0.849807

 45 H s       :     0.807183  s :     0.807183

 46 H s       :     0.869800  s :     0.869800

 47 H s       :     0.856073  s :     0.856073

 48 H s       :     0.842619  s :     0.842619

 49 H s       :     0.813441  s :     0.813441

 50 H s       :     0.814249  s :     0.814249

 51 H s       :     0.826663  s :     0.826663

 52 H s       :     0.565661  s :     0.565661

 53 H s       :     0.818653  s :     0.818653

 54 H s       :     0.817345  s :     0.817345

 55 H s       :     0.868741  s :     0.868741

 56 H s       :     0.828017  s :     0.828017

 57 H s       :     0.864233  s :     0.864233

 58 H s       :     0.867980  s :     0.867980

 59 H s       :     0.870744  s :     0.870744

 60 H s       :     0.865075  s :     0.865075

 61 H s       :     0.875427  s :     0.875427

 62 H s       :     0.871757  s :     0.871757

 63 H s       :     0.851842  s :     0.851842

 64 H s       :     0.857447  s :     0.857447

 65 H s       :     0.865580  s :     0.865580

 66 H s       :     0.864945  s :     0.864945

 67 H s       :     0.865705  s :     0.865705



                     *******************************
                     * LOEWDIN POPULATION ANALYSIS *
                     *******************************

----------------------
LOEWDIN ATOMIC CHARGES
----------------------
   0 C :   -0.361684
   1 C :   -0.023918
   2 C :    0.027426
   3 N :   -0.285736
   4 C :   -0.146053
   5 C :   -0.037618
   6 C :   -0.127453
   7 C :   -0.141274
   8 C :    0.075837
   9 O :   -0.163299
  10 C :    0.360836
  11 F :   -0.103297
  12 F :   -0.106147
  13 F :   -0.088434
  14 C :   -0.154409
  15 C :   -0.097720
  16 S :    1.262086
  17 O :   -0.573561
  18 O :   -0.561294
  19 C :   -0.174630
  20 C :   -0.104827
  21 C :   -0.099637
  22 C :   -0.040025
  23 C :    0.180256
  24 O :   -0.259723
  25 O :   -0.336430
  26 C :   -0.085469
[...]
      py      :     1.051712
      dz2     :     0.010386  d :     0.083662
      dxz     :     0.016374
      dyz     :     0.010136
      dx2y2   :     0.020383
      dxy     :     0.026383

 37 C s       :     2.915897  s :     2.915897
      pz      :     1.007617  p :     3.124775
      px      :     1.069313
      py      :     1.047845
      dz2     :     0.011005  d :     0.086405
      dxz     :     0.011634
      dyz     :     0.015536
      dx2y2   :     0.027660
      dxy     :     0.020571

 38 C s       :     2.916794  s :     2.916794
      pz      :     1.000205  p :     3.115394
      px      :     1.068609
      py      :     1.046580
      dz2     :     0.007086  d :     0.086844
      dxz     :     0.016814
      dyz     :     0.012584
      dx2y2   :     0.023840
      dxy     :     0.026520

 39 C s       :     2.916560  s :     2.916560
      pz      :     1.013481  p :     3.127415
      px      :     1.064222
      py      :     1.049712
      dz2     :     0.009637  d :     0.082690
      dxz     :     0.016530
      dyz     :     0.010139
      dx2y2   :     0.021140
      dxy     :     0.025243

 40 C s       :     2.858220  s :     2.858220
      pz      :     0.987130  p :     3.042036
      px      :     1.030563
      py      :     1.024344
      dz2     :     0.013072  d :     0.105136
      dxz     :     0.019008
      dyz     :     0.014857
      dx2y2   :     0.029103
      dxy     :     0.029096

 41 H s       :     0.862594  s :     0.862594

 42 H s       :     0.863476  s :     0.863476

 43 H s       :     0.864309  s :     0.864309

 44 H s       :     0.877792  s :     0.877792

 45 H s       :     0.846900  s :     0.846900

 46 H s       :     0.866721  s :     0.866721

 47 H s       :     0.857239  s :     0.857239

 48 H s       :     0.855617  s :     0.855617

 49 H s       :     0.842856  s :     0.842856

 50 H s       :     0.840149  s :     0.840149

 51 H s       :     0.845090  s :     0.845090

 52 H s       :     0.650013  s :     0.650013

 53 H s       :     0.839282  s :     0.839282

 54 H s       :     0.841209  s :     0.841209

 55 H s       :     0.876432  s :     0.876432

 56 H s       :     0.861289  s :     0.861289

 57 H s       :     0.877032  s :     0.877032

 58 H s       :     0.882486  s :     0.882486

 59 H s       :     0.882271  s :     0.882271

 60 H s       :     0.878961  s :     0.878961

 61 H s       :     0.885715  s :     0.885715

 62 H s       :     0.883072  s :     0.883072

 63 H s       :     0.874132  s :     0.874132

 64 H s       :     0.860283  s :     0.860283

 65 H s       :     0.865061  s :     0.865061

 66 H s       :     0.864865  s :     0.864865

 67 H s       :     0.863311  s :     0.863311



                      *****************************
                      * MAYER POPULATION ANALYSIS *
                      *****************************

  NA   - Mulliken gross atomic population
  ZA   - Total nuclear charge
  QA   - Mulliken gross atomic charge
  VA   - Mayer's total valence
  BVA  - Mayer's bonded valence
  FA   - Mayer's free valence

  ATOM       NA         ZA         QA         VA         BVA        FA
  0 C      6.5443     6.0000    -0.5443     3.8311     3.8311     0.0000
  1 C      5.9076     6.0000     0.0924     3.8622     3.8622    -0.0000
  2 C      5.6880     6.0000     0.3120     3.8778     3.8778    -0.0000
  3 N      7.6272     7.0000    -0.6272     2.7785     2.7785     0.0000
  4 C      6.2151     6.0000    -0.2151     3.8179     3.8179    -0.0000
  5 C      5.8625     6.0000     0.1375     3.9465     3.9465     0.0000
  6 C      6.1805     6.0000    -0.1805     3.9392     3.9392    -0.0000
  7 C      6.1640     6.0000    -0.1640     3.9156     3.9156     0.0000
  8 C      5.6675     6.0000     0.3325     3.8236     3.8236     0.0000
  9 O      8.5418     8.0000    -0.5418     1.9498     1.9498    -0.0000
 10 C      4.9308     6.0000     1.0692     4.0112     4.0112    -0.0000
 11 F      9.2815     9.0000    -0.2815     1.0827     1.0827    -0.0000
 12 F      9.2848     9.0000    -0.2848     1.0774     1.0774    -0.0000
 13 F      9.2773     9.0000    -0.2773     1.0879     1.0879     0.0000
 14 C      6.1878     6.0000    -0.1878     3.8888     3.8888     0.0000
 15 C      6.1388     6.0000    -0.1388     3.9105     3.9105     0.0000
 16 S     14.7908    16.0000     1.2092     5.0781     5.0781    -0.0000
 17 O      8.5531     8.0000    -0.5531     1.8767     1.8767     0.0000
 18 O      8.5337     8.0000    -0.5337     1.9001     1.9001    -0.0000
 19 C      6.1144     6.0000    -0.1144     3.8355     3.8355    -0.0000
 20 C      6.1471     6.0000    -0.1471     3.9232     3.9232     0.0000
 21 C      6.1480     6.0000    -0.1480     3.8666     3.8666    -0.0000
 22 C      5.9189     6.0000     0.0811     3.9264     3.9264     0.0000
 23 C      5.4713     6.0000     0.5287     3.9536     3.9536     0.0000
 24 O      8.4436     8.0000    -0.4436     2.0681     2.0681     0.0000
 25 O      8.6249     8.0000    -0.6249     1.8672     1.8672    -0.0000
 26 C      6.1391     6.0000    -0.1391     3.8946     3.8946     0.0000
 27 C      6.1524     6.0000    -0.1524     3.9108     3.9108    -0.0000
 28 N      7.4092     7.0000    -0.4092     2.9616     2.9616    -0.0000
 29 C      5.7966     6.0000     0.2034     3.8446     3.8446     0.0000
 30 C      6.1578     6.0000    -0.1578     3.8628     3.8628     0.0000
 31 C      6.2643     6.0000    -0.2643     3.8400     3.8400     0.0000
 32 C      6.2725     6.0000    -0.2725     3.8539     3.8539    -0.0000
 33 C      6.2620     6.0000    -0.2620     3.8569     3.8569    -0.0000
 34 C      6.2733     6.0000    -0.2733     3.8418     3.8418     0.0000
 35 C      5.8954     6.0000     0.1046     3.9570     3.9570     0.0000
 36 C      6.2032     6.0000    -0.2032     3.8898     3.8898    -0.0000
 37 C      6.1254     6.0000    -0.1254     3.9285     3.9285    -0.0000
 38 C      6.1175     6.0000    -0.1175     3.9278     3.9278     0.0000
 39 C      6.2055     6.0000    -0.2055     3.8779     3.8779    -0.0000
 40 C      5.8726     6.0000     0.1274     3.9716     3.9716    -0.0000
 41 H      0.8325     1.0000     0.1675     0.9384     0.9384     0.0000
 42 H      0.8375     1.0000     0.1625     0.9290     0.9290     0.0000
 43 H      0.8388     1.0000     0.1612     0.9317     0.9317     0.0000
 44 H      0.8498     1.0000     0.1502     0.9306     0.9306    -0.0000
 45 H      0.8072     1.0000     0.1928     0.9321     0.9321     0.0000
 46 H      0.8698     1.0000     0.1302     0.9398     0.9398    -0.0000
 47 H      0.8561     1.0000     0.1439     0.9376     0.9376    -0.0000
 48 H      0.8426     1.0000     0.1574     0.9476     0.9476     0.0000
 49 H      0.8134     1.0000     0.1866     0.9381     0.9381     0.0000
 50 H      0.8142     1.0000     0.1858     0.9360     0.9360     0.0000
 51 H      0.8267     1.0000     0.1733     0.9363     0.9363     0.0000
 52 H      0.5657     1.0000     0.4343     0.7953     0.7953    -0.0000
 53 H      0.8187     1.0000     0.1813     0.9383     0.9383     0.0000
 54 H      0.8173     1.0000     0.1827     0.9369     0.9369    -0.0000
 55 H      0.8687     1.0000     0.1313     0.9333     0.9333    -0.0000
 56 H      0.8280     1.0000     0.1720     0.9458     0.9458     0.0000
 57 H      0.8642     1.0000     0.1358     0.9381     0.9381     0.0000
 58 H      0.8680     1.0000     0.1320     0.9384     0.9384    -0.0000
 59 H      0.8707     1.0000     0.1293     0.9364     0.9364    -0.0000
 60 H      0.8651     1.0000     0.1349     0.9500     0.9500    -0.0000
 61 H      0.8754     1.0000     0.1246     0.9360     0.9360     0.0000
 62 H      0.8718     1.0000     0.1282     0.9402     0.9402    -0.0000
 63 H      0.8518     1.0000     0.1482     0.9456     0.9456     0.0000
 64 H      0.8574     1.0000     0.1426     0.9431     0.9431    -0.0000
 65 H      0.8656     1.0000     0.1344     0.9368     0.9368    -0.0000
 66 H      0.8649     1.0000     0.1351     0.9367     0.9367     0.0000
 67 H      0.8657     1.0000     0.1343     0.9428     0.9428     0.0000

  Mayer bond orders larger than 0.100000
B(  0-C ,  1-C ) :   0.9970 B(  0-C , 41-H ) :   0.9309 B(  0-C , 42-H ) :   0.9270 
B(  0-C , 43-H ) :   0.9287 B(  1-C ,  2-C ) :   1.4510 B(  1-C , 40-C ) :   1.2549 
B(  2-C ,  3-N ) :   0.8692 B(  2-C , 28-N ) :   1.2803 B(  3-N ,  4-C ) :   0.9195 
B(  3-N , 16-S ) :   0.8156 B(  4-C ,  5-C ) :   0.9731 B(  4-C , 44-H ) :   0.9225 
B(  4-C , 45-H ) :   0.9032 B(  5-C ,  6-C ) :   1.4320 B(  5-C , 15-C ) :   1.4274 
B(  6-C ,  7-C ) :   1.4272 B(  6-C , 46-H ) :   0.9226 B(  7-C ,  8-C ) :   1.4296 
B(  7-C , 47-H ) :   0.9199 B(  8-C ,  9-O ) :   0.8116 B(  8-C , 14-C ) :   1.3903 
B(  9-O , 10-C ) :   1.0025 B( 10-C , 11-F ) :   0.9722 B( 10-C , 12-F ) :   0.9691 
B( 10-C , 13-F ) :   1.0091 B( 14-C , 15-C ) :   1.4283 B( 14-C , 48-H ) :   0.9099 
B( 15-C , 49-H ) :   0.9010 B( 16-S , 17-O ) :   1.6073 B( 16-S , 18-O ) :   1.6500 
B( 16-S , 19-C ) :   0.8145 B( 19-C , 20-C ) :   1.3922 B( 19-C , 27-C ) :   1.3836 
B( 20-C , 21-C ) :   1.4184 B( 20-C , 50-H ) :   0.9087 B( 21-C , 22-C ) :   1.3812 
B( 21-C , 51-H ) :   0.9147 B( 22-C , 23-C ) :   1.0091 B( 22-C , 26-C ) :   1.4027 
B( 23-C , 24-O ) :   1.8638 B( 23-C , 25-O ) :   1.0230 B( 25-O , 52-H ) :   0.7417 
B( 26-C , 27-C ) :   1.4192 B( 26-C , 53-H ) :   0.9096 B( 27-C , 54-H ) :   0.9102 
B( 28-N , 29-C ) :   1.4576 B( 29-C , 30-C ) :   0.9830 B( 29-C , 35-C ) :   1.2084 
B( 30-C , 31-C ) :   1.0005 B( 30-C , 34-C ) :   0.9791 B( 30-C , 55-H ) :   0.9197 
B( 31-C , 32-C ) :   0.9870 B( 31-C , 56-H ) :   0.9265 B( 31-C , 57-H ) :   0.9477 
B( 32-C , 33-C ) :   1.0006 B( 32-C , 58-H ) :   0.9539 B( 32-C , 59-H ) :   0.9522 
B( 33-C , 34-C ) :   1.0019 B( 33-C , 60-H ) :   0.9424 B( 33-C , 61-H ) :   0.9514 
B( 34-C , 62-H ) :   0.9391 B( 34-C , 63-H ) :   0.9344 B( 35-C , 36-C ) :   1.2999 
B( 35-C , 40-C ) :   1.2829 B( 36-C , 37-C ) :   1.5046 B( 36-C , 39-C ) :   0.1049 
B( 36-C , 64-H ) :   0.9127 B( 37-C , 38-C ) :   1.3604 B( 37-C , 65-H ) :   0.9291 
B( 38-C , 39-C ) :   1.5071 B( 38-C , 66-H ) :   0.9291 B( 39-C , 40-C ) :   1.2903 
B( 39-C , 67-H ) :   0.9173 

-------
TIMINGS
-------

Total SCF time: 0 days 0 hours 9 min 24 sec 

Total time                  ....     564.346 sec
Sum of individual times     ....     563.897 sec  ( 99.9%)

SCF preparation             ....       0.799 sec  (  0.1%)
Fock matrix formation       ....     560.016 sec  ( 99.2%)
  Startup                   ....       0.124 sec  (  0.0% of F)
  Split-RI-J                ....      80.545 sec  ( 14.4% of F)
  Chain of spheres X        ....     435.339 sec  ( 77.7% of F)
  XC integration            ....      42.857 sec  (  7.7% of F)
    XC Preparation          ....       0.000 sec  (  0.0% of XC)
    Basis function eval.    ....      17.058 sec  ( 39.8% of XC)
    Density eval.           ....      10.767 sec  ( 25.1% of XC)
    XC-Functional eval.     ....       1.693 sec  (  4.0% of XC)
    XC-Potential eval.      ....      11.347 sec  ( 26.5% of XC)
Diagonalization             ....       0.000 sec  (  0.0%)
Density matrix formation    ....       0.526 sec  (  0.1%)
Total Energy calculation    ....       0.135 sec  (  0.0%)
Population analysis         ....       0.093 sec  (  0.0%)
Orbital Transformation      ....       0.252 sec  (  0.0%)
Orbital Orthonormalization  ....       0.000 sec  (  0.0%)
DIIS solution               ....       1.249 sec  (  0.2%)
SOSCF solution              ....       0.827 sec  (  0.1%)
Finished LeanSCF after 564.4 sec

Maximum memory used throughout the entire LEANSCF-calculation: 121.9 MB

-------------------------   --------------------
FINAL SINGLE POINT ENERGY     -2341.531804886328
-------------------------   --------------------


------------------------------------------------------------------------------
                              ORCA PROPERTY CALCULATIONS
------------------------------------------------------------------------------

GBWName                                 ... /home/nmrbox/aojoawo/Documents/ERDOS/inputs/CHEMBL3687397.gbw
Number of atoms                         ...     68
Number of basis functions               ...    632
Max core memory                         ...   1024 MB

Electric properties:
Dipole moment                           ... YES
Quadrupole moment                       ...  NO
Static polarizability (Dipole/Dipole)   ...  NO
Static polarizability (Dipole/Quad.)    ...  NO
Static polarizability (Quad./Quad.)     ...  NO
Static polarizability (Velocity)        ...  NO

Atomic electric properties:
Dipole moment                           ...  NO
Quadrupole moment                       ...  NO
Static polarizability                   ...  NO

Choice of electric origin               ... Center of mass
Position of electric origin             ...    -0.717754     0.272077    -0.119976

General magnetic properties:
Magnetizability                         ...  NO

EPR properties:
g-Tensor (aka g-matrix)                 ...  NO
Zero-Field splitting spin-orbit         ...  NO
Zero-field splitting spin-spin          ...  NO
Hyperfine couplings                     ...  NO (   0 nuclei)
Quadrupole couplings                    ...  NO (   0 nuclei)
Contact density                         ...  NO (   0 nuclei)

NMR properties:
Chemical shifts                         ...  NO (   0 nuclei)
Spin-rotation constants                 ...  NO (   0 nuclei)
Spin-spin couplings                     ...  NO (   0 nuclei,    0 pairs)

Choice of magnetic origin               ... GIAO
Position of magnetic origin             ...     0.000000     0.000000     0.000000

Properties with geometric perturbations:
SCF Hessian                             ...  NO
IR spectrum                             ...  NO
VCD spectrum                            ...  NO
X-ray spectroscopy properties:
SCF XES/XAS/RIXS spectra                ...  NO


-------------
DIPOLE MOMENT
-------------

Method             : SCF
Type of density    : Electron Density
Multiplicity       :   1
Irrep              :   0
Energy             : -2341.5318048863282456 Eh
Relativity type    : 
Basis              : AO
                                X                 Y                 Z
Electronic contribution:    -18.505905574      19.660780826       5.204957048
Nuclear contribution   :     19.597324073     -21.894068041      -3.538744700
                        -----------------------------------------
Total Dipole Moment    :      1.091418498      -2.233287215       1.666212348
                        -----------------------------------------
Magnitude (a.u.)       :      2.992495565
Magnitude (Debye)      :      7.606319243



--------------------
Rotational spectrum 
--------------------
 
Rotational constants in cm-1:             0.004377             0.001511             0.001312 
Rotational constants in MHz :           131.229293            45.297938            39.328075 

Dipole components along the rotational axes: 
x,y,z [a.u.] :    -1.120138     2.005119     1.918285 
x,y,z [Debye]:    -2.847165     5.096608     4.875893 

 

Dipole moment calculation done in   0.0 sec 

Maximum memory used throughout the entire PROP-calculation: 60.3 MB

--------------------------------
SUGGESTED CITATIONS FOR THIS RUN
--------------------------------

Below you find a list of papers that are relevant to this ORCA run
We neither can nor want to force you to cite these papers, but we appreciate if you do
You receive ORCA, which is the product of decades of hard work by many enthusiastic individuals, for free
The only thing we kindly ask in return is that you cite our papers,
We deeply appreciate it, if you show your appreciation for ORCA by not just citing the generic ORCA reference.

Please note that relegating all ORCA citations to the supporting information does *not* help us.
SI sections are not indexed - citations you put there will not count into any citation statistics
But we need these citations in order to attract the funding resources that allow us to do what we are doing

Therefore, if you are a happy ORCA user, please consider citing a few of the papers listed below in the main body of your paper

In addition to the list printed below, the program has created the file /home/nmrbox/aojoawo/Documents/ERDOS/inputs/CHEMBL3687397.bibtex that contains the list in bibtex format
You can import this file easily into all common literature databanks and citation aid programs


List of essential papers. We consider these as the minimum necessary citations

  1. Neese,F.
     Software update: the ORCA program system, version 5.0
     WIRES Comput. Molec. Sci., 2022 12(1)e1606
     doi.org/10.1002/wcms.1606

List of papers to cite with high priority. The work reported in these papers was absolutely
necessary for this run to complete.
Our perspective: the developers of density functionals and basis sets usually get cited in chemistry papers
Good! But without the algorithms to do something with them, the functionals or basis sets would not do anything.
Hence, in our opinion, the algorithm design and method developments papers are equally worthy of getting cited

  1. Neese,F.
     An improvement of the resolution of the identity approximation for the formation of the Coulomb matrix
     J. Comp. Chem., 2003 24(14)1740-1747
     doi.org/10.1002/jcc.10318
  2. Neese,F.; Wennmohs,F.; Hansen,A.; Becker,U.
     Efficient, approximate and parallel Hartree-Fock and hybrid DFT calculations. A 'chain-of-spheres' algorithm for the Hartree-Fock exchange
     Chem. Phys., 2009 356(1-3)98-109
     doi.org/10.1016/j.chemphys.2008.10.036
  3. Helmich-Paris,B.; de Souza,B.; Neese,F.; Izsák,R.
     An improved chain of spheres for exchange algorithm
     J. Chem. Phys., 2021 155 104109
     doi.org/doi: 10.1063/5.0058766.
  4. Neese,F.
     The SHARK Integral Generation and Digestion System
     J. Comp. Chem., 2022  1-16
     doi.org/10.1002/jcc.26942

List of suggested additional citations. These are papers that are important in the 'surrounding' of 
of this run, or papers that preceded the highly important papers. If you like your results we are grateful for a citation.

  1. Izsak,R.; Neese,F.
     An overlap fitted chain of spheres exchange method
     J. Chem. Phys., 2011 135 144105
     doi.org/10.1063/1.3646921
  2. Izsak,R.; Hansen,A.; Neese,F.
     The resolution of identity and chain of spheres approximations for the LPNO-CCSD singles Fock term
     Molec. Phys., 2012 110 2413-2417
     doi.org/10.1080/00268976.2012.687466
  3. Neese,F.
     The ORCA program system
     WIRES Comput. Molec. Sci., 2012 2(1)73-78
     doi.org/10.1002/wcms.81
  4. Izsak,R.; Neese,F.; Klopper,W.
     Robust fitting techniques in the chain of spheres approximation to the Fock exchange: The role of the complementary space
     J. Chem. Phys., 2013 139 
     doi.org/10.1063/1.4819264
  5. Neese,F.
     Software update: the ORCA program system, version 4.0
     WIRES Comput. Molec. Sci., 2018 8(1)1-6
     doi.org/10.1002/wcms.1327
  6. Neese,F.; Wennmohs,F.; Becker,U.; Riplinger,C.
     The ORCA quantum chemistry program package
     J. Chem. Phys., 2020 152 Art. No. L224108
     doi.org/10.1063/5.0004608

List of optional additional citations

  1. Neese,F.
     Approximate second-order SCF convergence for spin unrestricted wavefunctions
     Chem. Phys. Lett., 2000 325(1-3)93-98
     doi.org/10.1016/s0009-2614(00)00662-x

Timings for individual modules:

Sum of individual times          ...      587.105 sec (=   9.785 min)
Startup calculation              ...       14.871 sec (=   0.248 min)   2.5 %
SCF iterations                   ...      572.011 sec (=   9.534 min)  97.4 %
Property calculations            ...        0.223 sec (=   0.004 min)   0.0 %
                             ****ORCA TERMINATED NORMALLY****
TOTAL RUN TIME: 0 days 0 hours 9 minutes 47 seconds 977 msec
