
                                 *****************
                                 * O   R   C   A *
                                 *****************

                                            #,                                       
                                            ###                                      
                                            ####                                     
                                            #####                                    
                                            ######                                   
                                           ########,                                 
                                     ,,################,,,,,                         
                               ,,#################################,,                 
                          ,,##########################################,,             
                       ,#########################################, ''#####,          
                    ,#############################################,,   '####,        
                  ,##################################################,,,,####,       
                ,###########''''           ''''###############################       
              ,#####''   ,,,,##########,,,,          '''####'''          '####       
            ,##' ,,,,###########################,,,                        '##       
           ' ,,###''''                  '''############,,,                           
         ,,##''                                '''############,,,,        ,,,,,,###''
      ,#''                                            '''#######################'''  
     '                                                          ''''####''''         
             ,#######,   #######,   ,#######,      ##                                
            ,#'     '#,  ##    ##  ,#'     '#,    #''#        ,####,   ,####,        
            ##       ##  ##   ,#'  ##            #'  '#       #'       #'  '#        
            ##       ##  #######   ##           ,######,      #####,   #    #        
            '#,     ,#'  ##    ##  '#,     ,#' ,#      #,     #,   #   #,  ,#        
             '#######'   ##     ##  '#######'  #'      '#     '####' # '####'        



                #########################################################
                #                        -***-                          #
                #          Department of theory and spectroscopy        #
                #                                                       #
                #                      Frank Neese                      #
                #                                                       #
                #     Directorship, Architecture, Infrastructure        #
                #                    SHARK, DRIVERS                     #
                #        Core code/Algorithms in most modules           #
                #                                                       #
                #        Max Planck Institute fuer Kohlenforschung      #
                #                Kaiser Wilhelm Platz 1                 #
                #                 D-45470 Muelheim/Ruhr                 #
                #                      Germany                          #
                #                                                       #
                #                  All rights reserved                  #
                #                        -***-                          #
                #########################################################


                         Program Version 6.0.0  -   RELEASE  -


 With contributions from (in alphabetic order):
   Daniel Aravena         : Magnetic Suceptibility
   Michael Atanasov       : Ab Initio Ligand Field Theory (pilot matlab implementation)
   Alexander A. Auer      : GIAO ZORA, VPT2 properties, NMR spectrum
   Ute Becker             : All parallelization in ORCA, NUMFREQ, NUMCALC
   Giovanni Bistoni       : ED, misc. LED, open-shell LED, HFLD
   Martin Brehm           : Molecular dynamics
   Dmytro Bykov           : pre 5.0 version of the SCF Hessian
   Marcos Casanova-Páez   : Triplet and SCS-CIS(D). UHF-(DLPNO)-IP/EA/STEOM-CCSD. UHF-CVS-IP/STEOM-CCSD
   Vijay G. Chilkuri      : MRCI spin determinant printing, contributions to CSF-ICE
   Pauline Colinet        : FMM embedding
   Dipayan Datta          : RHF DLPNO-CCSD density
   Achintya Kumar Dutta   : EOM-CC, STEOM-CC
   Nicolas Foglia         : Exact transition moments, OPA infrastructure, MCD improvements
   Dmitry Ganyushin       : Spin-Orbit,Spin-Spin,Magnetic field MRCI
   Miquel Garcia          : C-PCM and meta-GGA Hessian, CCSD/C-PCM, Gaussian charge scheme
   Tiago L. C. Gouveia    : GS-ROHF, GS-ROCIS
   Yang Guo               : DLPNO-NEVPT2, F12-NEVPT2, CIM, IAO-localization
   Andreas Hansen         : Spin unrestricted coupled pair/coupled cluster methods
   Ingolf Harden          : AUTO-CI MPn and infrastructure 
   Benjamin Helmich-Paris : MC-RPA, TRAH-(SCF,CASSCF), AVAS, COSX integrals, SCF dyn. polar.
   Lee Huntington         : MR-EOM, pCC
   Robert Izsak           : Overlap fitted RIJCOSX, COSX-SCS-MP3, EOM
   Riya Kayal             : Wick's Theorem for AUTO-CI, AUTO-CI UHF-CCSDT
   Emily Kempfer          : AUTO-CI, RHF CISDT and CCSDT
   Christian Kollmar      : KDIIS, OOCD, Brueckner-CCSD(T), CCSD density, CASPT2, CASPT2-K, improved NEVPT2
   Axel Koslowski         : Symmetry handling
   Simone Kossmann        : Meta GGA functionals, TD-DFT gradient, OOMP2, (MP2 Hessian; deprecated post 5.0)
   Lucas Lang             : DCDCAS
   Marvin Lechner         : AUTO-CI (C++ implementation), FIC-MRCC
   Spencer Leger          : CASSCF response
   Dagmar Lenk            : GEPOL surface, SMD, ORCA-2-JSON
   Dimitrios Liakos       : Extrapolation schemes; Compound Job, initial MDCI parallelization
   Dimitrios Manganas     : Further ROCIS development; embedding schemes. LFT, Crystal Embedding
   Dimitrios Pantazis     : SARC Basis sets
   Anastasios Papadopoulos: AUTO-CI, single reference methods and gradients
   Taras Petrenko         : pre 6.0 DFT Hessian and TD-DFT gradient, (ASA, deprecated), ECA, 1-Electron XAS/XES, NRVS
   Peter Pinski           : DLPNO-MP2, DLPNO-MP2 Gradient
   Christoph Reimann      : Effective Core Potentials
   Marius Retegan         : Local ZFS, SOC
   Christoph Riplinger    : Optimizer, TS searches, QM/MM, DLPNO-CCSD(T), (RO)-DLPNO pert. Triples
   Michael Roemelt        : Original ROCIS implementation
   Masaaki Saitow         : Open-shell DLPNO-CCSD energy and density
   Barbara Sandhoefer     : DKH picture change effects
   Kantharuban Sivalingam : CASSCF convergence/infrastructure, NEVPT2 and variants, FIC-MRCI
   Bernardo de Souza      : ESD, SOC TD-DFT
   Georgi Stoychev        : AutoAux, RI-MP2 NMR, DLPNO-MP2 response, X2C
   Van Anh Tran           : RI-MP2 g-tensors
   Willem Van den Heuvel  : Paramagnetic NMR
   Zikuan Wang            : NOTCH, Electric field optimization 
   Frank Wennmohs         : Technical directorship and infrastructure
   Hang Xu                : AUTO-CI-Response properties 


 We gratefully acknowledge several colleagues who have allowed us to
 interface, adapt or use parts of their codes:
   Stefan Grimme, W. Hujo, H. Kruse, P. Pracht,  : VdW corrections, initial TS optimization,
                  C. Bannwarth, S. Ehlert,         DFT functionals, gCP, sTDA/sTD-DF
                  L. Wittmann, M. Mueller
   Ed Valeev, F. Pavosevic, A. Kumar             : LibInt (2-el integral package), F12 methods
   Garnet Chan, S. Sharma, J. Yang, R. Olivares  : DMRG
   Ulf Ekstrom                                   : XCFun DFT Library
   Mihaly Kallay                                 : mrcc  (arbitrary order and MRCC methods)
   Frank Weinhold                                : gennbo (NPA and NBO analysis)
   Simon Mueller                                 : openCOSMO-RS
   Christopher J. Cramer and Donald G. Truhlar   : smd solvation model
   Lars Goerigk                                  : TD-DFT with DH, B97 family of functionals
   V. Asgeirsson, H. Jonsson                     : NEB implementation
   FAccTs GmbH                                   : IRC, NEB, NEB-TS, DLPNO-Multilevel, CI-OPT
                                                   MM, QMMM, 2- and 3-layer-ONIOM, Crystal-QMMM,
                                                   LR-CPCM, SF, NACMEs, symmetry and pop. for TD-DFT,
                                                   nearIR, NL-DFT gradient (VV10), updates on ESD,
                                                   ML-optimized integration grids, MBIS, APM,
                                                   GOAT, DOCKER, SOLVATOR, interface openCOSMO-RS
   S Lehtola, MJT Oliveira, MAL Marques          : LibXC Library
   Liviu Ungur et al                             : ANISO software


 Your calculation uses the libint2 library for the computation of 2-el integrals
 For citations please refer to: http://libint.valeyev.net

 Your ORCA version has been built with support for libXC version: 6.2.2
 For citations please refer to: https://libxc.gitlab.io

 This ORCA versions uses:
   CBLAS   interface :  Fast vector & matrix operations
   LAPACKE interface :  Fast linear algebra routines
   SCALAPACK package :  Parallel linear algebra routines
   Shared memory     :  Shared parallel matrices
   BLAS/LAPACK       :  OpenBLAS 0.3.27  USE64BITINT DYNAMIC_ARCH NO_AFFINITY SkylakeX SINGLE_THREADED
        Core in use  :  SkylakeX
   Copyright (c) 2011-2014, The OpenBLAS Project


Warning: RI is on but no J-basis has been assigned. Assigning Def2/J (nothing to worry about!)
================================================================================

----- Orbital basis set information -----
Your calculation utilizes the basis: 6-31G*
   H-He, Li-Ne : W. J. Hehre, R. Ditchfield and J.A. Pople, J. Chem. Phys. 56, 2257 (1972).
                 Note: He and Ne are unpublished basis sets taken from the Gaussian program.
                 Note: Li and B from J. D. Dill and J. A. Pople, J. Chem. Phys. 62, 2921 (1975).
   Na - Ar     : M. M. Francl, W. J. Pietro, W. J. Hehre, J. S. Binkley, M. S. Gordon, 
                 D. J. DeFrees and J. A. Pople, J. Chem. Phys. 77, 3654 (1982).
   K - Zn      : V. A. Rassolov, J. A. Pople, M. A. Ratner, and T. L. Windus, J. Chem. Phys. 109, 1223 (1998).

----- AuxJ basis set information -----
Your calculation utilizes the auxiliary basis: def2/J
   F. Weigend, Phys. Chem. Chem. Phys. 8, 1057 (2006).

================================================================================
                                        WARNINGS
                       Please study these warnings very carefully!
================================================================================


================================================================================
                                       INPUT FILE
================================================================================
NAME = /home/nmrbox/aojoawo/Documents/ERDOS/inputs/CHEMBL5274340.inp
|  1> ! B3LYP 6-31G* SP
|  2> 
|  3> * xyz 0 1
|  4> C -6.8236 -1.0997 0.7433
|  5> C -6.3379 0.3403 0.6445
|  6> N -5.0387 0.3881 -0.0135
|  7> N -4.8669 0.4946 -1.3194
|  8> N -3.5713 0.4478 -1.5833
|  9> C -2.9730 0.2992 -0.3826
| 10> C -1.5134 0.1941 -0.2075
| 11> S -0.4176 0.2512 -1.4835
| 12> C 0.9389 0.0736 -0.5007
| 13> C 2.3463 0.0329 -0.9626
| 14> C 2.6603 0.1462 -2.3282
| 15> C 3.9893 0.1067 -2.7533
| 16> C 5.0199 -0.0459 -1.8250
| 17> C 4.7345 -0.1613 -0.4568
| 18> N 5.8200 -0.3177 0.4764
| 19> C 5.6344 -0.4462 1.9181
| 20> C 3.3914 -0.1208 -0.0324
| 21> N 0.5755 -0.0302 0.7979
| 22> C -0.7721 0.0347 0.9729
| 23> O -1.3174 -0.0561 2.2526
| 24> N -3.8815 0.2528 0.6103
| 25> H -7.8135 -1.1267 1.2454
| 26> H -6.9235 -1.5393 -0.2719
| 27> H -6.1043 -1.7053 1.3347
| 28> H -7.0728 0.9414 0.0665
| 29> H -6.2566 0.7756 1.6640
| 30> H 1.8828 0.2655 -3.0713
| 31> H 4.2214 0.1948 -3.8068
| 32> H 6.0448 -0.0744 -2.1734
| 33> H 6.7996 -0.3419 0.1119
| 34> H 5.1339 0.4608 2.3175
| 35> H 6.6208 -0.5545 2.4167
| 36> H 5.0241 -1.3462 2.1423
| 37> H 3.1548 -0.2084 1.0192
| 38> H -2.3085 -0.0132 2.4378
| 39> *
| 40> 
| 41>                          ****END OF INPUT****
================================================================================

                       ****************************
                       * Single Point Calculation *
                       ****************************

---------------------------------
CARTESIAN COORDINATES (ANGSTROEM)
---------------------------------
  C     -6.823600   -1.099700    0.743300
  C     -6.337900    0.340300    0.644500
  N     -5.038700    0.388100   -0.013500
  N     -4.866900    0.494600   -1.319400
  N     -3.571300    0.447800   -1.583300
  C     -2.973000    0.299200   -0.382600
  C     -1.513400    0.194100   -0.207500
  S     -0.417600    0.251200   -1.483500
  C      0.938900    0.073600   -0.500700
  C      2.346300    0.032900   -0.962600
  C      2.660300    0.146200   -2.328200
  C      3.989300    0.106700   -2.753300
  C      5.019900   -0.045900   -1.825000
  C      4.734500   -0.161300   -0.456800
  N      5.820000   -0.317700    0.476400
  C      5.634400   -0.446200    1.918100
  C      3.391400   -0.120800   -0.032400
  N      0.575500   -0.030200    0.797900
  C     -0.772100    0.034700    0.972900
  O     -1.317400   -0.056100    2.252600
  N     -3.881500    0.252800    0.610300
  H     -7.813500   -1.126700    1.245400
  H     -6.923500   -1.539300   -0.271900
  H     -6.104300   -1.705300    1.334700
  H     -7.072800    0.941400    0.066500
  H     -6.256600    0.775600    1.664000
  H      1.882800    0.265500   -3.071300
  H      4.221400    0.194800   -3.806800
  H      6.044800   -0.074400   -2.173400
  H      6.799600   -0.341900    0.111900
  H      5.133900    0.460800    2.317500
  H      6.620800   -0.554500    2.416700
  H      5.024100   -1.346200    2.142300
  H      3.154800   -0.208400    1.019200
  H     -2.308500   -0.013200    2.437800

----------------------------
CARTESIAN COORDINATES (A.U.)
----------------------------
  NO LB      ZA    FRAG     MASS         X           Y           Z
   0 C     6.0000    0    12.011  -12.894735   -2.078132    1.404633
   1 C     6.0000    0    12.011  -11.976895    0.643074    1.217928
   2 N     7.0000    0    14.007   -9.521763    0.733403   -0.025511
   3 N     7.0000    0    14.007   -9.197108    0.934659   -2.493305
   4 N     7.0000    0    14.007   -6.748779    0.846219   -2.992003
   5 C     6.0000    0    12.011   -5.618156    0.565406   -0.723009
   6 C     6.0000    0    12.011   -2.859912    0.366796   -0.392118
   7 S    16.0000    0    32.060   -0.789150    0.474699   -2.803409
   8 C     6.0000    0    12.011    1.774264    0.139084   -0.946186
   9 C     6.0000    0    12.011    4.433864    0.062172   -1.819050
  10 C     6.0000    0    12.011    5.027238    0.276278   -4.399660
  11 C     6.0000    0    12.011    7.538684    0.201634   -5.202983
  12 C     6.0000    0    12.011    9.486236   -0.086738   -3.448750
  13 C     6.0000    0    12.011    8.946908   -0.304813   -0.863227
  14 N     7.0000    0    14.007   10.998206   -0.600366    0.900266
  15 C     6.0000    0    12.011   10.647473   -0.843196    3.624684
  16 C     6.0000    0    12.011    6.408817   -0.228279   -0.061227
  17 N     7.0000    0    14.007    1.087537   -0.057070    1.507812
  18 C     6.0000    0    12.011   -1.459058    0.065573    1.838515
  19 O     8.0000    0    15.999   -2.489525   -0.106014    4.256797
  20 N     7.0000    0    14.007   -7.334972    0.477723    1.153300
  21 H     1.0000    0     1.008  -14.765375   -2.129154    2.353465
  22 H     1.0000    0     1.008  -13.083519   -2.908855   -0.513817
  23 H     1.0000    0     1.008  -11.535455   -3.222550    2.522217
  24 H     1.0000    0     1.008  -13.365655    1.778988    0.125667
  25 H     1.0000    0     1.008  -11.823261    1.465672    3.144504
  26 H     1.0000    0     1.008    3.557976    0.501722   -5.803916
  27 H     1.0000    0     1.008    7.977290    0.368119   -7.193809
  28 H     1.0000    0     1.008   11.423017   -0.140596   -4.107131
  29 H     1.0000    0     1.008   12.849382   -0.646097    0.211460
  30 H     1.0000    0     1.008    9.701665    0.870786    4.379440
  31 H     1.0000    0     1.008   12.511499   -1.047853    4.566901
  32 H     1.0000    0     1.008    9.494173   -2.543949    4.048360
  33 H     1.0000    0     1.008    5.961708   -0.393819    1.926009
  34 H     1.0000    0     1.008   -4.362433   -0.024944    4.606774

--------------------------------
INTERNAL COORDINATES (ANGSTROEM)
--------------------------------
 C      0   0   0     0.000000000000     0.00000000     0.00000000
 C      1   0   0     1.522913631826     0.00000000     0.00000000
 N      2   1   0     1.457109975259   110.16228431     0.00000000
 N      3   2   1     1.321450831473   124.39033391    89.04551670
 N      4   3   2     1.323031673846   108.75856322   182.83755498
 C      5   4   3     1.349713058394   105.10202422     0.42425470
 C      6   5   4     1.473817553159   123.54177186   179.67468882
 S      7   6   5     1.682918313526   123.52835847     0.18068468
 C      8   7   6     1.684496913028    94.49670653   180.02304003
 C      9   8   7     1.481817417903   125.86479005   180.00021482
 C     10   9   8     1.405808041661   120.84549294     0.00000000
 C     11  10   9     1.395890848168   120.41115594   179.99972689
 C     12  11  10     1.395408187592   120.24335730     0.00000000
 C     13  12  11     1.402405633189   120.51225654     0.00000000
 N     14  13  12     1.440011614536   119.19441245   180.00033442
 C     15  14  13     1.459266425297   123.63758328   179.99595300
 C     10   9   8     1.407526106330   120.14670833   180.00492194
 N      9   8   7     1.352477711461   110.60444787     0.00000000
 C     18   9   8     1.360464174464   112.70574085     0.00000000
 O     19  18   9     1.393997424675   120.16266719   180.00557587
 N      3   2   1     1.321568904749   124.34829834   273.15394451
 H      1   2   3     1.110286188332   109.67472339   180.01094755
 H      1   2   3     1.110792154275   110.09621333   299.78952802
 H      1   2   3     1.110809529127   110.09179715    60.24939480
 H      2   1   3     1.111522928239   109.52502096   120.73385812
 H      2   1   3     1.111519693933   109.51945405   239.33131621
 H     11  10   9     1.082098124016   121.02951820     0.00000000
 H     12  11  10     1.082355888791   119.88614499   180.00476019
 H     13  12  11     1.082873409037   119.20046811   179.99802186
 H     15  14  13     1.045496078424   118.87369697     0.00000000
 H     16  15  14     1.110256551433   109.92591208   299.39682348
 H     16  15  14     1.110547527123   109.82701350   179.99711116
 H     16  15  14     1.110284526597   109.92510814    60.60070344
 H     17  10   9     1.081441574936   119.27733041     0.00000000
 H     20  19  18     1.009167310212   123.35846955   179.95680507

---------------------------
INTERNAL COORDINATES (A.U.)
---------------------------
 C      0   0   0     0.000000000000     0.00000000     0.00000000
 C      1   0   0     2.877889689766     0.00000000     0.00000000
 N      2   1   0     2.753538800245   110.16228431     0.00000000
 N      3   2   1     2.497180170926   124.39033391    89.04551670
 N      4   3   2     2.500167530073   108.75856322   182.83755498
 C      5   4   3     2.550588039742   105.10202422     0.42425470
 C      6   5   4     2.785111546837   123.54177186   179.67468882
 S      7   6   5     3.180254718324   123.52835847     0.18068468
 C      8   7   6     3.183237839058    94.49670653   180.02304003
 C      9   8   7     2.800229100311   125.86479005   180.00021482
 C     10   9   8     2.656592195604   120.84549294     0.00000000
 C     11  10   9     2.637851415885   120.41115594   179.99972689
 C     12  11  10     2.636939319581   120.24335730     0.00000000
 C     13  12  11     2.650162575395   120.51225654     0.00000000
 N     14  13  12     2.721227581140   119.19441245   180.00033442
 C     15  14  13     2.757613900238   123.63758328   179.99595300
 C     10   9   8     2.659838867308   120.14670833   180.00492194
 N      9   8   7     2.555812476895   110.60444787     0.00000000
 C     18   9   8     2.570904704748   112.70574085     0.00000000
 O     19  18   9     2.634273364027   120.16266719   180.00557587
 N      3   2   1     2.497403297082   124.34829834   273.15394451
 H      1   2   3     2.098136826222   109.67472339   180.01094755
 H      1   2   3     2.099092963289   110.09621333   299.78952802
 H      1   2   3     2.099125797001   110.09179715    60.24939480
 H      2   1   3     2.100473925945   109.52502096   120.73385812
 H      2   1   3     2.100467813993   109.51945405   239.33131621
 H     11  10   9     2.044869104421   121.02951820     0.00000000
 H     12  11  10     2.045356209251   119.88614499   180.00476019
 H     13  12  11     2.046334180786   119.20046811   179.99802186
 H     15  14  13     1.975701262310   118.87369697     0.00000000
 H     16  15  14     2.098080820600   109.92591208   299.39682348
 H     16  15  14     2.098630684967   109.82701350   179.99711116
 H     16  15  14     2.098133685998   109.92510814    60.60070344
 H     17  10   9     2.043628406465   119.27733041     0.00000000
 H     20  19  18     1.907049839606   123.35846955   179.95680507

---------------------
BASIS SET INFORMATION
---------------------
There are 5 groups of distinct atoms

 Group   1 Type C   : 10s4p1d contracted to 3s2p1d pattern {631/31/1}
 Group   2 Type N   : 10s4p1d contracted to 3s2p1d pattern {631/31/1}
 Group   3 Type S   : 16s10p1d contracted to 4s3p1d pattern {6631/631/1}
 Group   4 Type O   : 10s4p1d contracted to 3s2p1d pattern {631/31/1}
 Group   5 Type H   : 4s contracted to 2s pattern {31}

Atom   0C    basis set group =>   1
Atom   1C    basis set group =>   1
Atom   2N    basis set group =>   2
Atom   3N    basis set group =>   2
Atom   4N    basis set group =>   2
Atom   5C    basis set group =>   1
Atom   6C    basis set group =>   1
Atom   7S    basis set group =>   3
Atom   8C    basis set group =>   1
Atom   9C    basis set group =>   1
Atom  10C    basis set group =>   1
Atom  11C    basis set group =>   1
Atom  12C    basis set group =>   1
Atom  13C    basis set group =>   1
Atom  14N    basis set group =>   2
Atom  15C    basis set group =>   1
Atom  16C    basis set group =>   1
Atom  17N    basis set group =>   2
Atom  18C    basis set group =>   1
Atom  19O    basis set group =>   4
Atom  20N    basis set group =>   2
Atom  21H    basis set group =>   5
Atom  22H    basis set group =>   5
Atom  23H    basis set group =>   5
Atom  24H    basis set group =>   5
Atom  25H    basis set group =>   5
Atom  26H    basis set group =>   5
Atom  27H    basis set group =>   5
Atom  28H    basis set group =>   5
Atom  29H    basis set group =>   5
Atom  30H    basis set group =>   5
Atom  31H    basis set group =>   5
Atom  32H    basis set group =>   5
Atom  33H    basis set group =>   5
Atom  34H    basis set group =>   5
---------------------------------
AUXILIARY/J BASIS SET INFORMATION
---------------------------------
There are 5 groups of distinct atoms

 Group   1 Type C   : 12s5p4d2f1g contracted to 6s4p3d1f1g pattern {711111/2111/211/2/1}
 Group   2 Type N   : 12s5p4d2f1g contracted to 6s4p3d1f1g pattern {711111/2111/211/2/1}
 Group   3 Type S   : 14s5p5d2f1g contracted to 8s4p3d1f1g pattern {71111111/2111/311/2/1}
 Group   4 Type O   : 12s5p4d2f1g contracted to 6s4p3d1f1g pattern {711111/2111/211/2/1}
 Group   5 Type H   : 5s2p1d contracted to 3s1p1d pattern {311/2/1}

Atom   0C    basis set group =>   1
Atom   1C    basis set group =>   1
Atom   2N    basis set group =>   2
Atom   3N    basis set group =>   2
Atom   4N    basis set group =>   2
Atom   5C    basis set group =>   1
Atom   6C    basis set group =>   1
Atom   7S    basis set group =>   3
Atom   8C    basis set group =>   1
Atom   9C    basis set group =>   1
Atom  10C    basis set group =>   1
Atom  11C    basis set group =>   1
Atom  12C    basis set group =>   1
Atom  13C    basis set group =>   1
Atom  14N    basis set group =>   2
Atom  15C    basis set group =>   1
Atom  16C    basis set group =>   1
Atom  17N    basis set group =>   2
Atom  18C    basis set group =>   1
Atom  19O    basis set group =>   4
Atom  20N    basis set group =>   2
Atom  21H    basis set group =>   5
Atom  22H    basis set group =>   5
Atom  23H    basis set group =>   5
Atom  24H    basis set group =>   5
Atom  25H    basis set group =>   5
Atom  26H    basis set group =>   5
Atom  27H    basis set group =>   5
Atom  28H    basis set group =>   5
Atom  29H    basis set group =>   5
Atom  30H    basis set group =>   5
Atom  31H    basis set group =>   5
Atom  32H    basis set group =>   5
Atom  33H    basis set group =>   5
Atom  34H    basis set group =>   5
------------------------------------------------------------------------------
                             ORCA STARTUP CALCULATIONS
                           -- RI-GTO INTEGRALS CHOSEN --
------------------------------------------------------------------------------
------------------------------------------------------------------------------
                   ___                                                        
                  /   \      - P O W E R E D   B Y -                         
                 /     \                                                     
                 |  |  |   _    _      __       _____    __    __             
                 |  |  |  | |  | |    /  \     |  _  \  |  |  /  |          
                  \  \/   | |  | |   /    \    | | | |  |  | /  /          
                 / \  \   | |__| |  /  /\  \   | |_| |  |  |/  /          
                |  |  |   |  __  | /  /__\  \  |    /   |      \           
                |  |  |   | |  | | |   __   |  |    \   |  |\   \          
                \     /   | |  | | |  |  |  |  | |\  \  |  | \   \       
                 \___/    |_|  |_| |__|  |__|  |_| \__\ |__|  \__/        
                                                                              
                      - O R C A' S   B I G   F R I E N D -                    
                                      &                                       
                       - I N T E G R A L  F E E D E R -                       
                                                                              
 v1 FN, 2020, v2 2021, v3 2022-2024                                           
------------------------------------------------------------------------------


----------------------
SHARK INTEGRAL PACKAGE
----------------------

Number of atoms                             ...     35
Number of basis functions                   ...    326
Number of shells                            ...    156
Maximum angular momentum                    ...      2
Integral batch strategy                     ... SHARK/LIBINT Hybrid
RI-J (if used) integral strategy            ... SPLIT-RIJ (Revised 2003 algorithm where possible)
Printlevel                                  ...      1
Contraction scheme used                     ... SEGMENTED contraction
Prescreening option                         ... SCHWARTZ
   Thresh                                   ... 1.000e-10
   Tcut                                     ... 1.000e-11
   Tpresel                                  ... 1.000e-11 
Coulomb Range Separation                    ... NOT USED
Exchange Range Separation                   ... NOT USED
Multipole approximations                    ... NOT USED
Finite Nucleus Model                        ... NOT USED
CABS basis                                  ... NOT available
Auxiliary Coulomb fitting basis             ... AVAILABLE
   # of basis functions in Aux-J            ...   1185
   # of shells in Aux-J                     ...    387
   Maximum angular momentum in Aux-J        ...      4
Auxiliary J/K fitting basis                 ... NOT available
Auxiliary Correlation fitting basis         ... NOT available
Auxiliary 'external' fitting basis          ... NOT available

Checking pre-screening integrals            ... done (  0.0 sec) Dimension = 156
Check shell pair data                       ... done (  0.0 sec)
Shell pair information
Shell pair cut-off parameter TPreSel        ...   1.0e-11
Total number of shell pairs                 ...     12246
Shell pairs after pre-screening             ...      7283
Total number of primitive shell pairs       ...     74049
Primitive shell pairs kept                  ...     24936
          la=0 lb=0:   2309 shell pairs
          la=1 lb=0:   2536 shell pairs
          la=1 lb=1:    712 shell pairs
          la=2 lb=0:   1015 shell pairs
          la=2 lb=1:    587 shell pairs
          la=2 lb=2:    124 shell pairs

Calculating one electron integrals          ... done (  0.1 sec)
Calculating RI/J V-Matrix + Cholesky decomp.... done (  0.2 sec)
Calculating Nuclear repulsion               ... done (  0.0 sec) ENN=   1671.799024978161 Eh

Diagonalization of the overlap matrix:
Smallest eigenvalue                        ... 4.319e-04
Time for diagonalization                   ...    0.016 sec
Threshold for overlap eigenvalues          ... 1.000e-07
Number of eigenvalues below threshold      ... 0
Time for construction of square roots      ...    0.021 sec
Total time needed                          ...    0.049 sec

-------------------
DFT GRID GENERATION
-------------------

General Integration Accuracy     IntAcc      ... 4.388
Radial Grid Type                 RadialGrid  ... OptM3 with GC (2021)
Angular Grid (max. ang.)         AngularGrid ... 4 (Lebedev-302)
Angular grid pruning method      GridPruning ... 4 (adaptive)
Weight generation scheme         WeightScheme... mBecke (2022)
Basis function cutoff            BFCut       ... 1.0000e-10
Integration weight cutoff        WCut        ... 1.0000e-14
Partially contracted basis set               ... off
Rotationally invariant grid construction     ... off
Angular grids for H and He will be reduced by one unit

Total number of grid points                  ...   172303
Total number of batches                      ...     2708
Average number of points per batch           ...       63
Average number of grid points per atom       ...     4923

--------------------
COSX GRID GENERATION
--------------------

GRIDX 1
-------
General Integration Accuracy     IntAcc      ... 3.816
Radial Grid Type                 RadialGrid  ... OptM3 with GC (2021)
Angular Grid (max. ang.)         AngularGrid ... 1 (Lebedev-50)
Angular grid pruning method      GridPruning ... 4 (adaptive)
Weight generation scheme         WeightScheme... mBecke (2022)
Basis function cutoff            BFCut       ... 1.0000e-10
Integration weight cutoff        WCut        ... 1.0000e-14
Partially contracted basis set               ... on
Rotationally invariant grid construction     ... off
Angular grids for H and He will be reduced by one unit

Total number of grid points                  ...    22967
Total number of batches                      ...      201
Average number of points per batch           ...      114
Average number of grid points per atom       ...      656
UseSFitting                                  ... on

GRIDX 2
-------
General Integration Accuracy     IntAcc      ... 4.020
Radial Grid Type                 RadialGrid  ... OptM3 with GC (2021)
Angular Grid (max. ang.)         AngularGrid ... 2 (Lebedev-110)
Angular grid pruning method      GridPruning ... 4 (adaptive)
Weight generation scheme         WeightScheme... mBecke (2022)
Basis function cutoff            BFCut       ... 1.0000e-10
Integration weight cutoff        WCut        ... 1.0000e-14
Partially contracted basis set               ... on
Rotationally invariant grid construction     ... off
Angular grids for H and He will be reduced by one unit

Total number of grid points                  ...    48033
Total number of batches                      ...      394
Average number of points per batch           ...      121
Average number of grid points per atom       ...     1372
UseSFitting                                  ... on

GRIDX 3
-------
General Integration Accuracy     IntAcc      ... 4.338
Radial Grid Type                 RadialGrid  ... OptM3 with GC (2021)
Angular Grid (max. ang.)         AngularGrid ... 3 (Lebedev-194)
Angular grid pruning method      GridPruning ... 4 (adaptive)
Weight generation scheme         WeightScheme... mBecke (2022)
Basis function cutoff            BFCut       ... 1.0000e-10
Integration weight cutoff        WCut        ... 1.0000e-14
Partially contracted basis set               ... on
Rotationally invariant grid construction     ... off
Angular grids for H and He will be reduced by one unit

Total number of grid points                  ...   105882
Total number of batches                      ...      845
Average number of points per batch           ...      125
Average number of grid points per atom       ...     3025
UseSFitting                                  ... on
Initializing property integral containers    ... done (  0.0 sec)

SHARK setup successfully completed in   4.7 seconds

Maximum memory used throughout the entire STARTUP-calculation: 70.4 MB
-------------------------------------------------------------------------------
                                 ORCA GUESS
                   Start orbitals & Density for SCF / CASSCF
-------------------------------------------------------------------------------

------------
SCF SETTINGS
------------
Hamiltonian:
 Density Functional     Method          .... DFT(GTOs)
 Exchange Functional    Exchange        .... B88
   X-Alpha parameter    XAlpha          ....  0.666667
   Becke's b parameter  XBeta           ....  0.004200
 Correlation Functional Correlation     .... LYP
 LDA part of GGA corr.  LDAOpt          .... VWN-5
 Gradients option       PostSCFGGA      .... off
 Hybrid DFT is turned on
   Fraction HF Exchange ScalHFX         ....  0.200000
   Scaling of DF-GGA-X  ScalDFX         ....  0.720000
   Scaling of DF-GGA-C  ScalDFC         ....  0.810000
   Scaling of DF-LDA-C  ScalLDAC        ....  1.000000
   Perturbative correction              ....  0.000000
   NL short-range parameter             ....  4.800000
 RI-approximation to the Coulomb term is turned on
   Number of AuxJ basis functions       .... 1185
   RIJ-COSX (HFX calculated with COS-X)).... on


General Settings:
 Integral files         IntName         .... /home/nmrbox/aojoawo/Documents/ERDOS/inputs/CHEMBL5274340
 Hartree-Fock type      HFTyp           .... RHF
 Total Charge           Charge          ....    0
 Multiplicity           Mult            ....    1
 Number of Electrons    NEL             ....  158
 Basis Dimension        Dim             ....  326
 Nuclear Repulsion      ENuc            ....   1671.7990249782 Eh

Convergence Acceleration:
 AO-DIIS                CNVDIIS         .... on
   Start iteration      DIISMaxIt       ....    12
   Startup error        DIISStart       ....  0.200000
   # of expansion vecs  DIISMaxEq       ....     5
   Bias factor          DIISBfac        ....   1.050
   Max. coefficient     DIISMaxC        ....  10.000
 MO-DIIS                CNVKDIIS        .... off
 Trust-Rad. Augm. Hess. CNVTRAH         .... auto
   Auto Start mean grad. ratio tolernc. ....  1.125000
   Auto Start start iteration           ....    50
   Auto Start num. interpolation iter.  ....    10
   Max. Number of Micro iterations      ....    24
   Max. Number of Macro iterations      .... Maxiter - #DIIS iter
   Number of Davidson start vectors     ....     2
   Converg. threshold    (grad. norm)   ....   5.000e-05
   Grad. Scal. Fac. for Micro threshold ....   0.100
   Minimum threshold for Micro iter.    ....   1.000e-02
   NR start threshold (gradient norm)   ....   1.000e-04
   Initial trust radius                 ....   0.400
   Minimum AH scaling param. (alpha)    ....   1.000
   Maximum AH scaling param. (alpha)    .... 1000.000
   Quad. conv. algorithm                .... NR
   White noise on init. David. guess    .... on
   Maximum white noise                  ....   0.010
   Pseudo random numbers                .... off
   Inactive MOs                         .... canonical
   Orbital update algorithm             .... Taylor
   Preconditioner                       .... Diag
   Full preconditioner red. dimension   ....   250
 SOSCF                  CNVSOSCF        .... on
   Start iteration      SOSCFMaxIt      ....   150
   Startup grad/error   SOSCFStart      ....  0.003300
   Hessian update       SOSCFHessUp     .... L-BFGS
 Level Shifting         CNVShift        .... on
   Level shift para.    LevelShift      ....    0.2500
   Turn off err/grad.   ShiftErr        ....    0.0010
 Zerner damping         CNVZerner       .... off
 Static damping         CNVDamp         .... on
   Fraction old density DampFac         ....    0.7000
   Max. Damping (<1)    DampMax         ....    0.9800
   Min. Damping (>=0)   DampMin         ....    0.0000
   Turn off err/grad.   DampErr         ....    0.1000

SCF Procedure:
 Maximum # iterations   MaxIter         ....   125
 SCF integral mode      SCFMode         .... Direct
   Integral package                     .... SHARK and LIBINT hybrid scheme
 Reset frequency        DirectResetFreq ....    20
 Integral Threshold     Thresh          ....  1.000e-10 Eh
 Primitive CutOff       TCut            ....  1.000e-11 Eh

Convergence Tolerance:
 Convergence Check Mode ConvCheckMode   .... Total+1el-Energy
 Convergence forced     ConvForced      .... 0
 Energy Change          TolE            ....  1.000e-06 Eh
 1-El. energy change                    ....  1.000e-03 Eh
 Orbital Gradient       TolG            ....  5.000e-05
 Orbital Rotation angle TolX            ....  5.000e-05
 DIIS Error             TolErr          ....  1.000e-06

------------------------------
INITIAL GUESS: MODEL POTENTIAL
------------------------------
Loading Hartree-Fock densities                     ... done
Calculating cut-offs                               ... done
Initializing the effective Hamiltonian             ... done
Setting up the integral package (SHARK)            ... done
Starting the Coulomb interaction                   ... done (   0.7 sec)
Making the grid                                    ... done (   0.5 sec)
Mapping shells                                     ... done
Starting the XC term evaluation                    ... done (   0.4 sec)
  promolecular density results
     # of electrons  =    157.998310892
     EX              =   -143.659004353
     EC              =     -5.534328840
     EX+EC           =   -149.193333193
Transforming the Hamiltonian                       ... done (   0.0 sec)
Diagonalizing the Hamiltonian                      ... done (   0.0 sec)
Back transforming the eigenvectors                 ... done (   0.0 sec)
Now organizing SCF variables                       ... done
                      ------------------
                      INITIAL GUESS DONE (   1.8 sec)
                      ------------------
             **** ENERGY FILE WAS UPDATED (/home/nmrbox/aojoawo/Documents/ERDOS/inputs/CHEMBL5274340.en.tmp) ****
Finished Guess after   2.2 sec
Maximum memory used throughout the entire GUESS-calculation: 36.2 MB

-------------------------------------------------------------------------------------------
                                      ORCA LEAN-SCF
                              memory conserving SCF solver
-------------------------------------------------------------------------------------------

----------------------------------------D-I-I-S--------------------------------------------
Iteration    Energy (Eh)           Delta-E    RMSDP     MaxDP     DIISErr   Damp  Time(sec)
-------------------------------------------------------------------------------------------
               ***  Starting incremental Fock matrix formation  ***
    1    -1304.5738473338722088     0.00e+00  2.45e-03  9.14e-02  2.19e-01  0.700  17.6
Warning: op=0 Small HOMO/LUMO gap (   0.100) - skipping pre-diagonalization
         Will do a full diagonalization
    2    -1304.8031897414809919    -2.29e-01  1.70e-03  5.79e-02  9.62e-02  0.700   8.7
                               ***Turning on AO-DIIS***
    3    -1304.8925943551855653    -8.94e-02  7.13e-04  2.28e-02  3.27e-02  0.700   8.7
    4    -1304.9451002806783890    -5.25e-02  1.24e-03  5.87e-02  1.66e-02  0.000   8.0
    5    -1305.0608302772118350    -1.16e-01  2.74e-04  9.88e-03  6.13e-03  0.000   8.3
                              *** Initializing SOSCF ***
---------------------------------------S-O-S-C-F--------------------------------------
Iteration    Energy (Eh)           Delta-E    RMSDP     MaxDP     MaxGrad    Time(sec)
--------------------------------------------------------------------------------------
    6    -1305.0616685503939607    -8.38e-04  9.53e-05  3.11e-03  2.58e-03     7.3
               *** Restarting incremental Fock matrix formation ***
    7    -1305.0617318018746573    -6.33e-05  7.36e-05  2.58e-03  3.81e-04    17.7
    8    -1305.0617165229143666     1.53e-05  4.31e-05  1.95e-03  7.32e-04    11.2
    9    -1305.0617484807369237    -3.20e-05  2.19e-05  7.75e-04  1.70e-04    10.1
   10    -1305.0617470436338863     1.44e-06  1.13e-05  5.67e-04  2.14e-04     9.4
   11    -1305.0617495822355068    -2.54e-06  5.31e-06  2.44e-04  3.87e-05     8.3
   12    -1305.0617495392991714     4.29e-08  3.05e-06  1.73e-04  6.02e-05     7.4
                 **** Energy Check signals convergence ****

               *****************************************************
               *                     SUCCESS                       *
               *           SCF CONVERGED AFTER  12 CYCLES          *
               *****************************************************

Recomputing exchange energy using gridx3       ... done (   29.717 sec)
Old exchange energy                            :    -29.035901441 Eh
New exchange energy                            :    -29.035899871 Eh
Exchange energy change after final integration :      0.000001570 Eh
Total energy after final integration           :  -1305.061747970 Eh
             **** ENERGY FILE WAS UPDATED (/home/nmrbox/aojoawo/Documents/ERDOS/inputs/CHEMBL5274340.en.tmp) ****

----------------
TOTAL SCF ENERGY
----------------

Total Energy       :      -1305.06174796972709 Eh          -35512.53558 eV

Components:
Nuclear Repulsion  :       1671.79902497816079 Eh           45491.96424 eV
Electronic Energy  :      -2976.86077451745996 Eh          -81004.49986 eV
One Electron Energy:      -5103.79015614874061 Eh         -138881.19073 eV
Two Electron Energy:       2126.92938163128065 Eh           57876.69087 eV

Virial components:
Potential Energy   :      -2603.44270907190730 Eh          -70843.27772 eV
Kinetic Energy     :       1298.38096110217998 Eh           35330.74213 eV
Virial Ratio       :          2.00514547507064

DFT components:
N(Alpha)           :       79.000050665278 electrons
N(Beta)            :       79.000050665278 electrons
N(Total)           :      158.000101330556 electrons
E(X)               :     -115.417178549989 Eh       
E(C)               :       -6.502483558173 Eh       
E(XC)              :     -121.919662108162 Eh       

---------------
SCF CONVERGENCE
---------------

  Last Energy change         ...   -4.2936e-08  Tolerance :   1.0000e-06
  Last MAX-Density change    ...    1.7333e-04  Tolerance :   1.0000e-05
  Last RMS-Density change    ...    3.0453e-06  Tolerance :   1.0000e-06
  Last DIIS Error            ...    2.5755e-03  Tolerance :   1.0000e-06
  Last Orbital Gradient      ...    6.0179e-05  Tolerance :   5.0000e-05
  Last Orbital Rotation      ...    1.1318e-04  Tolerance :   5.0000e-05


----------------
ORBITAL ENERGIES
----------------

  NO   OCC          E(Eh)            E(eV) 
   0   2.0000     -88.893005     -2418.9016 
   1   2.0000     -19.164369      -521.4890 
   2   2.0000     -14.463248      -393.5650 
   3   2.0000     -14.401661      -391.8891 
   4   2.0000     -14.375947      -391.1894 
   5   2.0000     -14.361261      -390.7898 
   6   2.0000     -14.335188      -390.0803 
   7   2.0000     -14.323969      -389.7750 
   8   2.0000     -10.280257      -279.7400 
   9   2.0000     -10.259659      -279.1795 
  10   2.0000     -10.255439      -279.0647 
  11   2.0000     -10.249419      -278.9009 
  12   2.0000     -10.223617      -278.1988 
  13   2.0000     -10.214531      -277.9515 
  14   2.0000     -10.208347      -277.7833 
  15   2.0000     -10.199585      -277.5448 
  16   2.0000     -10.198535      -277.5162 
  17   2.0000     -10.179385      -276.9951 
  18   2.0000     -10.175179      -276.8807 
  19   2.0000     -10.172954      -276.8201 
  20   2.0000     -10.172651      -276.8119 
  21   2.0000      -7.969791      -216.8690 
  22   2.0000      -5.932726      -161.4377 
  23   2.0000      -5.928779      -161.3303 
  24   2.0000      -5.926854      -161.2779 
  25   2.0000      -1.150798       -31.3148 
  26   2.0000      -1.033593       -28.1255 
  27   2.0000      -0.955304       -25.9951 
  28   2.0000      -0.951124       -25.8814 
  29   2.0000      -0.907106       -24.6836 
  30   2.0000      -0.900182       -24.4952 
  31   2.0000      -0.839208       -22.8360 
  32   2.0000      -0.814571       -22.1656 
  33   2.0000      -0.789952       -21.4957 
  34   2.0000      -0.769368       -20.9356 
  35   2.0000      -0.734099       -19.9759 
  36   2.0000      -0.721252       -19.6263 
  37   2.0000      -0.690830       -18.7984 
  38   2.0000      -0.669461       -18.2170 
  39   2.0000      -0.664023       -18.0690 
  40   2.0000      -0.620725       -16.8908 
  41   2.0000      -0.613658       -16.6985 
  42   2.0000      -0.601254       -16.3609 
  43   2.0000      -0.580568       -15.7981 
  44   2.0000      -0.559781       -15.2324 
  45   2.0000      -0.537993       -14.6395 
  46   2.0000      -0.525403       -14.2969 
  47   2.0000      -0.507247       -13.8029 
  48   2.0000      -0.503240       -13.6939 
  49   2.0000      -0.487936       -13.2774 
  50   2.0000      -0.476182       -12.9576 
  51   2.0000      -0.461304       -12.5527 
  52   2.0000      -0.455841       -12.4041 
  53   2.0000      -0.434071       -11.8117 
  54   2.0000      -0.430395       -11.7116 
  55   2.0000      -0.427991       -11.6462 
  56   2.0000      -0.419997       -11.4287 
  57   2.0000      -0.417633       -11.3644 
  58   2.0000      -0.410506       -11.1704 
  59   2.0000      -0.400065       -10.8863 
  60   2.0000      -0.397510       -10.8168 
  61   2.0000      -0.385780       -10.4976 
  62   2.0000      -0.382460       -10.4073 
  63   2.0000      -0.376420       -10.2429 
  64   2.0000      -0.370514       -10.0822 
  65   2.0000      -0.355911        -9.6848 
  66   2.0000      -0.343972        -9.3599 
  67   2.0000      -0.343272        -9.3409 
  68   2.0000      -0.331492        -9.0204 
  69   2.0000      -0.322394        -8.7728 
  70   2.0000      -0.315406        -8.5826 
  71   2.0000      -0.306774        -8.3478 
  72   2.0000      -0.291158        -7.9228 
  73   2.0000      -0.284479        -7.7411 
  74   2.0000      -0.265728        -7.2308 
  75   2.0000      -0.263589        -7.1726 
  76   2.0000      -0.248559        -6.7636 
  77   2.0000      -0.204364        -5.5610 
  78   2.0000      -0.187236        -5.0949 
  79   0.0000      -0.052229        -1.4212 
  80   0.0000      -0.025203        -0.6858 
  81   0.0000       0.010257         0.2791 
  82   0.0000       0.023444         0.6379 
  83   0.0000       0.043732         1.1900 
  84   0.0000       0.061201         1.6654 
  85   0.0000       0.075291         2.0488 
  86   0.0000       0.079002         2.1498 
  87   0.0000       0.086256         2.3471 
  88   0.0000       0.093686         2.5493 
  89   0.0000       0.107732         2.9315 
*Only the first 10 virtual orbitals were printed.

                    ********************************
                    * MULLIKEN POPULATION ANALYSIS *
                    ********************************

-----------------------
MULLIKEN ATOMIC CHARGES
-----------------------
   0 C :   -0.444720
   1 C :   -0.147492
   2 N :   -0.023624
   3 N :   -0.060464
   4 N :   -0.320528
   5 C :    0.428788
   6 C :   -0.246500
   7 S :    0.292820
   8 C :   -0.016087
   9 C :    0.146808
  10 C :   -0.208157
  11 C :   -0.131569
  12 C :   -0.185460
  13 C :    0.372527
  14 N :   -0.655027
  15 C :   -0.285036
  16 C :   -0.238027
  17 N :   -0.407442
  18 C :    0.490630
  19 O :   -0.656746
  20 N :   -0.362127
  21 H :    0.159578
  22 H :    0.176701
  23 H :    0.171062
  24 H :    0.192043
  25 H :    0.185344
  26 H :    0.138572
  27 H :    0.130441
  28 H :    0.116881
  29 H :    0.316361
  30 H :    0.159298
  31 H :    0.149967
  32 H :    0.159140
  33 H :    0.161271
  34 H :    0.440775
Sum of atomic charges:   -0.0000000

--------------------------------
MULLIKEN REDUCED ORBITAL CHARGES
--------------------------------
  0 C s       :     3.312776  s :     3.312776
      pz      :     1.094397  p :     3.098503
      px      :     1.061038
      py      :     0.943068
      dz2     :     0.006142  d :     0.033441
      dxz     :     0.006718
      dyz     :     0.007338
      dx2y2   :     0.007474
      dxy     :     0.005768

  1 C s       :     3.226733  s :     3.226733
      pz      :     1.030601  p :     2.868715
      px      :     0.821069
      py      :     1.017045
      dz2     :     0.007533  d :     0.052043
      dxz     :     0.011482
      dyz     :     0.009729
      dx2y2   :     0.011784
      dxy     :     0.011515

  2 N s       :     3.428371  s :     3.428371
      pz      :     1.027492  p :     3.513548
      px      :     1.061724
      py      :     1.424333
      dz2     :     0.021449  d :     0.081705
      dxz     :     0.025082
      dyz     :     0.013703
      dx2y2   :     0.010220
      dxy     :     0.011250

  3 N s       :     3.670920  s :     3.670920
      pz      :     1.008229  p :     3.319328
      px      :     1.177064
      py      :     1.134036
      dz2     :     0.023302  d :     0.070216
      dxz     :     0.012781
      dyz     :     0.011547
      dx2y2   :     0.011328
      dxy     :     0.011257

  4 N s       :     3.739475  s :     3.739475
      pz      :     1.415745  p :     3.526908
      px      :     0.939438
      py      :     1.171726
      dz2     :     0.012977  d :     0.054145
      dxz     :     0.014909
      dyz     :     0.008061
      dx2y2   :     0.009419
      dxy     :     0.008779

  5 C s       :     3.012892  s :     3.012892
      pz      :     0.765241  p :     2.484869
      px      :     0.745956
      py      :     0.973673
      dz2     :     0.019259  d :     0.073451
      dxz     :     0.022837
      dyz     :     0.010898
      dx2y2   :     0.008886
      dxy     :     0.011570

  6 C s       :     3.215391  s :     3.215391
      pz      :     0.872446  p :     2.993732
      px      :     0.900614
      py      :     1.220672
      dz2     :     0.007026  d :     0.037377
      dxz     :     0.012444
      dyz     :     0.005948
      dx2y2   :     0.005797
      dxy     :     0.006161

  7 S s       :     5.801562  s :     5.801562
      pz      :     3.260257  p :     9.799510
      px      :     2.931800
      py      :     3.607454
      dz2     :     0.013557  d :     0.106107
      dxz     :     0.047183
      dyz     :     0.010651
      dx2y2   :     0.013115
      dxy     :     0.021602

  8 C s       :     3.183061  s :     3.183061
      pz      :     0.833975  p :     2.772529
      px      :     0.918299
      py      :     1.020256
      dz2     :     0.014080  d :     0.060497
      dxz     :     0.021904
      dyz     :     0.010620
      dx2y2   :     0.006289
      dxy     :     0.007603

  9 C s       :     3.135558  s :     3.135558
      pz      :     0.852138  p :     2.676842
      px      :     0.838847
      py      :     0.985857
      dz2     :     0.010256  d :     0.040792
      dxz     :     0.011572
      dyz     :     0.007343
      dx2y2   :     0.006093
      dxy     :     0.005528

 10 C s       :     3.187392  s :     3.187392
      pz      :     0.967217  p :     2.985271
      px      :     0.974479
      py      :     1.043575
      dz2     :     0.008359  d :     0.035494
      dxz     :     0.013956
      dyz     :     0.004244
      dx2y2   :     0.004920
      dxy     :     0.004015

 11 C s       :     3.193542  s :     3.193542
      pz      :     0.981315  p :     2.900868
      px      :     0.936053
      py      :     0.983500
      dz2     :     0.011606  d :     0.037160
      dxz     :     0.010722
      dyz     :     0.002334
      dx2y2   :     0.005393
      dxy     :     0.007105

 12 C s       :     3.178998  s :     3.178998
      pz      :     0.955457  p :     2.971675
      px      :     0.963665
      py      :     1.052553
      dz2     :     0.010261  d :     0.034787
      dxz     :     0.010069
      dyz     :     0.005468
      dx2y2   :     0.006559
      dxy     :     0.002430

 13 C s       :     3.068590  s :     3.068590
      pz      :     0.785808  p :     2.503022
      px      :     0.778514
      py      :     0.938701
      dz2     :     0.011229  d :     0.055860
      dxz     :     0.017499
      dyz     :     0.009212
      dx2y2   :     0.006872
      dxy     :     0.011047

 14 N s       :     3.591957  s :     3.591957
      pz      :     1.108512  p :     4.033408
      px      :     1.157875
      py      :     1.767021
      dz2     :     0.007681  d :     0.029663
      dxz     :     0.009993
      dyz     :     0.004451
      dx2y2   :     0.005683
      dxy     :     0.001854

 15 C s       :     3.258620  s :     3.258620
      pz      :     0.810890  p :     2.977241
      px      :     1.081858
      py      :     1.084492
      dz2     :     0.014492  d :     0.049176
      dxz     :     0.008201
      dyz     :     0.012558
      dx2y2   :     0.005435
      dxy     :     0.008490

 16 C s       :     3.201716  s :     3.201716
      pz      :     0.992832  p :     3.002612
      px      :     0.957955
      py      :     1.051825
      dz2     :     0.010825  d :     0.033699
      dxz     :     0.009740
      dyz     :     0.002332
      dx2y2   :     0.005308
      dxy     :     0.005494

 17 N s       :     3.713512  s :     3.713512
      pz      :     1.243314  p :     3.656022
      px      :     1.201355
      py      :     1.211353
      dz2     :     0.012165  d :     0.037909
      dxz     :     0.005548
      dyz     :     0.006801
      dx2y2   :     0.006975
      dxy     :     0.006419

 18 C s       :     2.994668  s :     2.994668
      pz      :     0.680024  p :     2.427759
      px      :     0.798851
      py      :     0.948884
      dz2     :     0.022546  d :     0.086943
      dxz     :     0.027760
      dyz     :     0.015145
      dx2y2   :     0.009709
      dxy     :     0.011782

 19 O s       :     3.884590  s :     3.884590
      pz      :     1.482031  p :     4.750168
      px      :     1.419597
      py      :     1.848539
      dz2     :     0.008794  d :     0.021987
      dxz     :     0.001490
      dyz     :     0.004064
      dx2y2   :     0.006798
      dxy     :     0.000841

 20 N s       :     3.717778  s :     3.717778
      pz      :     1.464216  p :     3.591828
      px      :     0.881378
      py      :     1.246233
      dz2     :     0.008466  d :     0.052522
      dxz     :     0.019512
      dyz     :     0.007992
      dx2y2   :     0.006629
      dxy     :     0.009923

 21 H s       :     0.840422  s :     0.840422

 22 H s       :     0.823299  s :     0.823299

 23 H s       :     0.828938  s :     0.828938

 24 H s       :     0.807957  s :     0.807957

 25 H s       :     0.814656  s :     0.814656

 26 H s       :     0.861428  s :     0.861428

 27 H s       :     0.869559  s :     0.869559

 28 H s       :     0.883119  s :     0.883119

 29 H s       :     0.683639  s :     0.683639

 30 H s       :     0.840702  s :     0.840702

 31 H s       :     0.850033  s :     0.850033

 32 H s       :     0.840860  s :     0.840860

 33 H s       :     0.838729  s :     0.838729

 34 H s       :     0.559225  s :     0.559225



                     *******************************
                     * LOEWDIN POPULATION ANALYSIS *
                     *******************************

----------------------
LOEWDIN ATOMIC CHARGES
----------------------
   0 C :   -0.362260
   1 C :   -0.153198
   2 N :    0.097112
   3 N :   -0.068678
   4 N :   -0.122553
   5 C :    0.000313
   6 C :   -0.270402
   7 S :    0.421638
   8 C :   -0.109700
   9 C :   -0.021709
  10 C :   -0.154687
  11 C :   -0.120740
  12 C :   -0.156008
  13 C :    0.048610
  14 N :   -0.267024
  15 C :   -0.275071
  16 C :   -0.151631
  17 N :   -0.164917
  18 C :    0.100535
  19 O :   -0.338511
  20 N :   -0.160779
  21 H :    0.136114
  22 H :    0.140359
  23 H :    0.137441
  24 H :    0.152053
  25 H :    0.148416
  26 H :    0.136147
  27 H :    0.133816
  28 H :    0.127453
  29 H :    0.246377
  30 H :    0.122857
  31 H :    0.130748
  32 H :    0.122788
  33 H :    0.150729
  34 H :    0.344367

-------------------------------
LOEWDIN REDUCED ORBITAL CHARGES
-------------------------------
  0 C s       :     2.987983  s :     2.987983
      pz      :     1.138723  p :     3.308129
      px      :     1.118744
      py      :     1.050662
      dz2     :     0.011671  d :     0.066149
      dxz     :     0.011895
      dyz     :     0.014406
      dx2y2   :     0.015891
      dxy     :     0.012286

  1 C s       :     2.929874  s :     2.929874
      pz      :     1.083367  p :     3.113429
      px      :     0.930832
      py      :     1.099231
      dz2     :     0.015846  d :     0.109895
      dxz     :     0.024537
      dyz     :     0.018099
      dx2y2   :     0.026637
      dxy     :     0.024775

  2 N s       :     3.067168  s :     3.067168
      pz      :     1.136887  p :     3.645921
      px      :     1.142334
      py      :     1.366701
      dz2     :     0.056477  d :     0.189799
      dxz     :     0.062443
      dyz     :     0.028217
      dx2y2   :     0.021265
      dxy     :     0.021398

  3 N s       :     3.306191  s :     3.306191
      pz      :     1.177351  p :     3.608290
      px      :     1.297047
      py      :     1.133891
      dz2     :     0.056086  d :     0.154198
      dxz     :     0.032919
      dyz     :     0.022519
      dx2y2   :     0.023549
      dxy     :     0.019125

  4 N s       :     3.298973  s :     3.298973
      pz      :     1.452737  p :     3.707515
      px      :     1.092195
      py      :     1.162583
      dz2     :     0.027316  d :     0.116066
      dxz     :     0.035329
      dyz     :     0.010614
      dx2y2   :     0.024710
      dxy     :     0.018096

  5 C s       :     2.860047  s :     2.860047
      pz      :     0.993722  p :     2.963721
      px      :     1.000923
      py      :     0.969076
      dz2     :     0.049275  d :     0.175919
      dxz     :     0.062540
      dyz     :     0.022649
      dx2y2   :     0.019307
      dxy     :     0.022148

  6 C s       :     2.917999  s :     2.917999
      pz      :     1.042520  p :     3.256347
      px      :     1.024937
      py      :     1.188891
      dz2     :     0.020680  d :     0.096056
      dxz     :     0.037321
      dyz     :     0.012656
      dx2y2   :     0.013362
      dxy     :     0.012037

  7 S s       :     5.516730  s :     5.516730
      pz      :     3.370754  p :     9.935760
      px      :     2.981938
      py      :     3.583068
      dz2     :     0.015216  d :     0.125871
      dxz     :     0.057587
      dyz     :     0.010728
      dx2y2   :     0.016751
      dxy     :     0.025589

  8 C s       :     2.918859  s :     2.918859
      pz      :     1.009726  p :     3.050871
      px      :     1.037394
      py      :     1.003751
      dz2     :     0.036665  d :     0.139970
      dxz     :     0.055229
      dyz     :     0.020996
      dx2y2   :     0.013097
      dxy     :     0.013982

  9 C s       :     2.865089  s :     2.865089
      pz      :     1.064414  p :     3.052427
      px      :     1.006185
      py      :     0.981829
      dz2     :     0.029059  d :     0.104193
      dxz     :     0.032913
      dyz     :     0.015747
      dx2y2   :     0.014951
      dxy     :     0.011524

 10 C s       :     2.910248  s :     2.910248
      pz      :     1.055502  p :     3.161283
      px      :     1.070295
      py      :     1.035485
      dz2     :     0.021407  d :     0.083157
      dxz     :     0.033855
      dyz     :     0.008631
      dx2y2   :     0.011130
      dxy     :     0.008134

 11 C s       :     2.914338  s :     2.914338
      pz      :     1.071303  p :     3.119007
      px      :     1.070176
      py      :     0.977528
      dz2     :     0.024828  d :     0.087395
      dxz     :     0.028142
      dyz     :     0.004069
      dx2y2   :     0.014428
      dxy     :     0.015927

 12 C s       :     2.912660  s :     2.912660
      pz      :     1.051505  p :     3.161371
      px      :     1.070293
      py      :     1.039573
      dz2     :     0.027301  d :     0.081977
      dxz     :     0.026710
      dyz     :     0.011637
      dx2y2   :     0.011981
      dxy     :     0.004349

 13 C s       :     2.859422  s :     2.859422
      pz      :     1.012023  p :     2.958303
      px      :     1.002250
      py      :     0.944030
      dz2     :     0.028895  d :     0.133665
      dxz     :     0.046221
      dyz     :     0.019222
      dx2y2   :     0.016332
      dxy     :     0.022994

 14 N s       :     3.136423  s :     3.136423
      pz      :     1.154637  p :     4.061655
      px      :     1.170921
      py      :     1.736097
      dz2     :     0.020531  d :     0.068946
      dxz     :     0.025310
      dyz     :     0.009904
      dx2y2   :     0.009200
      dxy     :     0.004001

 15 C s       :     2.970071  s :     2.970071
      pz      :     0.936677  p :     3.207283
      px      :     1.136284
      py      :     1.134323
      dz2     :     0.030093  d :     0.097716
      dxz     :     0.016675
      dyz     :     0.026132
      dx2y2   :     0.009114
      dxy     :     0.015702

 16 C s       :     2.910781  s :     2.910781
      pz      :     1.084393  p :     3.162518
      px      :     1.032547
      py      :     1.045578
      dz2     :     0.023244  d :     0.078333
      dxz     :     0.025763
      dyz     :     0.003861
      dx2y2   :     0.014027
      dxy     :     0.011439

 17 N s       :     3.248039  s :     3.248039
      pz      :     1.346760  p :     3.834571
      px      :     1.281459
      py      :     1.206352
      dz2     :     0.030026  d :     0.082308
      dxz     :     0.012978
      dyz     :     0.011489
      dx2y2   :     0.016037
      dxy     :     0.011778

 18 C s       :     2.845233  s :     2.845233
      pz      :     0.910186  p :     2.851528
      px      :     0.983815
      py      :     0.957527
      dz2     :     0.055611  d :     0.202705
      dxz     :     0.069448
      dyz     :     0.031225
      dx2y2   :     0.023115
      dxy     :     0.023305

 19 O s       :     3.526320  s :     3.526320
      pz      :     1.504486  p :     4.770112
      px      :     1.430126
      py      :     1.835499
      dz2     :     0.017599  d :     0.042080
      dxz     :     0.005495
      dyz     :     0.007146
      dx2y2   :     0.010052
      dxy     :     0.001788

 20 N s       :     3.274734  s :     3.274734
      pz      :     1.508364  p :     3.769687
      px      :     1.023241
      py      :     1.238082
      dz2     :     0.015881  d :     0.116357
      dxz     :     0.047619
      dyz     :     0.009524
      dx2y2   :     0.019297
      dxy     :     0.024036

 21 H s       :     0.863886  s :     0.863886

 22 H s       :     0.859641  s :     0.859641

 23 H s       :     0.862559  s :     0.862559

 24 H s       :     0.847947  s :     0.847947

 25 H s       :     0.851584  s :     0.851584

 26 H s       :     0.863853  s :     0.863853

 27 H s       :     0.866184  s :     0.866184

 28 H s       :     0.872547  s :     0.872547

 29 H s       :     0.753623  s :     0.753623

 30 H s       :     0.877143  s :     0.877143

 31 H s       :     0.869252  s :     0.869252

 32 H s       :     0.877212  s :     0.877212

 33 H s       :     0.849271  s :     0.849271

 34 H s       :     0.655633  s :     0.655633



                      *****************************
                      * MAYER POPULATION ANALYSIS *
                      *****************************

  NA   - Mulliken gross atomic population
  ZA   - Total nuclear charge
  QA   - Mulliken gross atomic charge
  VA   - Mayer's total valence
  BVA  - Mayer's bonded valence
  FA   - Mayer's free valence

  ATOM       NA         ZA         QA         VA         BVA        FA
  0 C      6.4447     6.0000    -0.4447     3.8123     3.8123    -0.0000
  1 C      6.1475     6.0000    -0.1475     3.7806     3.7806    -0.0000
  2 N      7.0236     7.0000    -0.0236     3.4823     3.4823    -0.0000
  3 N      7.0605     7.0000    -0.0605     2.8533     2.8533     0.0000
  4 N      7.3205     7.0000    -0.3205     2.9117     2.9117     0.0000
  5 C      5.5712     6.0000     0.4288     3.7846     3.7846     0.0000
  6 C      6.2465     6.0000    -0.2465     3.7210     3.7210    -0.0000
  7 S     15.7072    16.0000     0.2928     2.4756     2.4756     0.0000
  8 C      6.0161     6.0000    -0.0161     3.8291     3.8291    -0.0000
  9 C      5.8532     6.0000     0.1468     3.9735     3.9735     0.0000
 10 C      6.2082     6.0000    -0.2082     3.9159     3.9159    -0.0000
 11 C      6.1316     6.0000    -0.1316     3.9729     3.9729    -0.0000
 12 C      6.1855     6.0000    -0.1855     3.9119     3.9119    -0.0000
 13 C      5.6275     6.0000     0.3725     3.8464     3.8464    -0.0000
 14 N      7.6550     7.0000    -0.6550     2.9244     2.9244    -0.0000
 15 C      6.2850     6.0000    -0.2850     3.8196     3.8196    -0.0000
 16 C      6.2380     6.0000    -0.2380     3.8615     3.8615    -0.0000
 17 N      7.4074     7.0000    -0.4074     2.9638     2.9638    -0.0000
 18 C      5.5094     6.0000     0.4906     3.8697     3.8697    -0.0000
 19 O      8.6567     8.0000    -0.6567     1.8401     1.8401    -0.0000
 20 N      7.3621     7.0000    -0.3621     2.8496     2.8496     0.0000
 21 H      0.8404     1.0000     0.1596     0.9345     0.9345    -0.0000
 22 H      0.8233     1.0000     0.1767     0.9323     0.9323    -0.0000
 23 H      0.8289     1.0000     0.1711     0.9336     0.9336     0.0000
 24 H      0.8080     1.0000     0.1920     0.9261     0.9261    -0.0000
 25 H      0.8147     1.0000     0.1853     0.9272     0.9272     0.0000
 26 H      0.8614     1.0000     0.1386     0.9371     0.9371     0.0000
 27 H      0.8696     1.0000     0.1304     0.9377     0.9377     0.0000
 28 H      0.8831     1.0000     0.1169     0.9393     0.9393     0.0000
 29 H      0.6836     1.0000     0.3164     0.8685     0.8685    -0.0000
 30 H      0.8407     1.0000     0.1593     0.9262     0.9262    -0.0000
 31 H      0.8500     1.0000     0.1500     0.9373     0.9373     0.0000
 32 H      0.8409     1.0000     0.1591     0.9262     0.9262    -0.0000
 33 H      0.8387     1.0000     0.1613     0.9474     0.9474    -0.0000
 34 H      0.5592     1.0000     0.4408     0.7983     0.7983    -0.0000

  Mayer bond orders larger than 0.100000
B(  0-C ,  1-C ) :   1.0032 B(  0-C , 21-H ) :   0.9417 B(  0-C , 22-H ) :   0.9434 
B(  0-C , 23-H ) :   0.9444 B(  1-C ,  2-N ) :   0.8982 B(  1-C , 24-H ) :   0.9259 
B(  1-C , 25-H ) :   0.9275 B(  2-N ,  3-N ) :   1.2489 B(  2-N , 20-N ) :   1.2188 
B(  3-N ,  4-N ) :   1.4262 B(  3-N , 20-N ) :   0.1318 B(  4-N ,  5-C ) :   1.2862 
B(  5-C ,  6-C ) :   1.0583 B(  5-C , 20-N ) :   1.3581 B(  6-C ,  7-S ) :   1.0777 
B(  6-C ,  8-C ) :   0.1196 B(  6-C , 18-C ) :   1.3806 B(  7-S ,  8-C ) :   1.1518 
B(  8-C ,  9-C ) :   1.0213 B(  8-C , 17-N ) :   1.4281 B(  9-C , 10-C ) :   1.3907 
B(  9-C , 16-C ) :   1.3994 B( 10-C , 11-C ) :   1.4309 B( 10-C , 26-H ) :   0.9167 
B( 11-C , 12-C ) :   1.4661 B( 11-C , 27-H ) :   0.9288 B( 12-C , 13-C ) :   1.3591 
B( 12-C , 28-H ) :   0.9248 B( 13-C , 14-N ) :   0.9893 B( 13-C , 16-C ) :   1.3523 
B( 14-N , 15-C ) :   0.9724 B( 14-N , 29-H ) :   0.8439 B( 15-C , 30-H ) :   0.9329 
B( 15-C , 31-H ) :   0.9514 B( 15-C , 32-H ) :   0.9330 B( 16-C , 33-H ) :   0.8986 
B( 17-N , 18-C ) :   1.3196 B( 18-C , 19-O ) :   1.0084 B( 19-O , 34-H ) :   0.7202 


-------
TIMINGS
-------

Total SCF time: 0 days 0 hours 2 min 32 sec 

Total time                  ....     152.890 sec
Sum of individual times     ....     152.506 sec  ( 99.7%)

SCF preparation             ....       0.239 sec  (  0.2%)
Fock matrix formation       ....     150.865 sec  ( 98.7%)
  Startup                   ....       0.084 sec  (  0.1% of F)
  Split-RI-J                ....      17.191 sec  ( 11.4% of F)
  Chain of spheres X        ....     116.888 sec  ( 77.5% of F)
  XC integration            ....      15.796 sec  ( 10.5% of F)
    XC Preparation          ....       0.000 sec  (  0.0% of XC)
    Basis function eval.    ....       6.147 sec  ( 38.9% of XC)
    Density eval.           ....       3.179 sec  ( 20.1% of XC)
    XC-Functional eval.     ....       0.857 sec  (  5.4% of XC)
    XC-Potential eval.      ....       4.284 sec  ( 27.1% of XC)
Diagonalization             ....       0.000 sec  (  0.0%)
Density matrix formation    ....       0.249 sec  (  0.2%)
Total Energy calculation    ....       0.065 sec  (  0.0%)
Population analysis         ....       0.050 sec  (  0.0%)
Orbital Transformation      ....       0.096 sec  (  0.1%)
Orbital Orthonormalization  ....       0.000 sec  (  0.0%)
DIIS solution               ....       0.541 sec  (  0.4%)
SOSCF solution              ....       0.400 sec  (  0.3%)
Finished LeanSCF after 153.0 sec

Maximum memory used throughout the entire LEANSCF-calculation: 45.9 MB

-------------------------   --------------------
FINAL SINGLE POINT ENERGY     -1305.061747969727
-------------------------   --------------------


------------------------------------------------------------------------------
                              ORCA PROPERTY CALCULATIONS
------------------------------------------------------------------------------

GBWName                                 ... /home/nmrbox/aojoawo/Documents/ERDOS/inputs/CHEMBL5274340.gbw
Number of atoms                         ...     35
Number of basis functions               ...    326
Max core memory                         ...   1024 MB

Electric properties:
Dipole moment                           ... YES
Quadrupole moment                       ...  NO
Static polarizability (Dipole/Dipole)   ...  NO
Static polarizability (Dipole/Quad.)    ...  NO
Static polarizability (Quad./Quad.)     ...  NO
Static polarizability (Velocity)        ...  NO

Atomic electric properties:
Dipole moment                           ...  NO
Quadrupole moment                       ...  NO
Static polarizability                   ...  NO

Choice of electric origin               ... Center of mass
Position of electric origin             ...    -0.387170     0.077454    -0.516223

General magnetic properties:
Magnetizability                         ...  NO

EPR properties:
g-Tensor (aka g-matrix)                 ...  NO
Zero-Field splitting spin-orbit         ...  NO
Zero-field splitting spin-spin          ...  NO
Hyperfine couplings                     ...  NO (   0 nuclei)
Quadrupole couplings                    ...  NO (   0 nuclei)
Contact density                         ...  NO (   0 nuclei)

NMR properties:
Chemical shifts                         ...  NO (   0 nuclei)
Spin-rotation constants                 ...  NO (   0 nuclei)
Spin-spin couplings                     ...  NO (   0 nuclei,    0 pairs)

Choice of magnetic origin               ... GIAO
Position of magnetic origin             ...     0.000000     0.000000     0.000000

Properties with geometric perturbations:
SCF Hessian                             ...  NO
IR spectrum                             ...  NO
VCD spectrum                            ...  NO
X-ray spectroscopy properties:
SCF XES/XAS/RIXS spectra                ...  NO


-------------
DIPOLE MOMENT
-------------

Method             : SCF
Type of density    : Electron Density
Multiplicity       :   1
Irrep              :   0
Energy             : -1305.0617479697270937 Eh
Relativity type    : 
Basis              : AO
                                X                 Y                 Z
Electronic contribution:     -5.236139922       4.370976592      -7.977953778
Nuclear contribution   :      4.881555433      -4.548118393       8.760465893
                        -----------------------------------------
Total Dipole Moment    :     -0.354584489      -0.177141801       0.782512115
                        -----------------------------------------
Magnitude (a.u.)       :      0.877174206
Magnitude (Debye)      :      2.229599642



--------------------
Rotational spectrum 
--------------------
 
Rotational constants in cm-1:             0.029335             0.003583             0.003232 
Rotational constants in MHz :           879.439951           107.401353            96.907727 

Dipole components along the rotational axes: 
x,y,z [a.u.] :    -0.394577     0.779171    -0.081466 
x,y,z [Debye]:    -1.002934     1.980495    -0.207069 

 

Dipole moment calculation done in   0.0 sec 

Maximum memory used throughout the entire PROP-calculation: 21.8 MB

--------------------------------
SUGGESTED CITATIONS FOR THIS RUN
--------------------------------

Below you find a list of papers that are relevant to this ORCA run
We neither can nor want to force you to cite these papers, but we appreciate if you do
You receive ORCA, which is the product of decades of hard work by many enthusiastic individuals, for free
The only thing we kindly ask in return is that you cite our papers,
We deeply appreciate it, if you show your appreciation for ORCA by not just citing the generic ORCA reference.

Please note that relegating all ORCA citations to the supporting information does *not* help us.
SI sections are not indexed - citations you put there will not count into any citation statistics
But we need these citations in order to attract the funding resources that allow us to do what we are doing

Therefore, if you are a happy ORCA user, please consider citing a few of the papers listed below in the main body of your paper

In addition to the list printed below, the program has created the file /home/nmrbox/aojoawo/Documents/ERDOS/inputs/CHEMBL5274340.bibtex that contains the list in bibtex format
You can import this file easily into all common literature databanks and citation aid programs


List of essential papers. We consider these as the minimum necessary citations

  1. Neese,F.
     Software update: the ORCA program system, version 5.0
     WIRES Comput. Molec. Sci., 2022 12(1)e1606
     doi.org/10.1002/wcms.1606

List of papers to cite with high priority. The work reported in these papers was absolutely
necessary for this run to complete.
Our perspective: the developers of density functionals and basis sets usually get cited in chemistry papers
Good! But without the algorithms to do something with them, the functionals or basis sets would not do anything.
Hence, in our opinion, the algorithm design and method developments papers are equally worthy of getting cited

  1. Neese,F.
     An improvement of the resolution of the identity approximation for the formation of the Coulomb matrix
     J. Comp. Chem., 2003 24(14)1740-1747
     doi.org/10.1002/jcc.10318
  2. Neese,F.; Wennmohs,F.; Hansen,A.; Becker,U.
     Efficient, approximate and parallel Hartree-Fock and hybrid DFT calculations. A 'chain-of-spheres' algorithm for the Hartree-Fock exchange
     Chem. Phys., 2009 356(1-3)98-109
     doi.org/10.1016/j.chemphys.2008.10.036
  3. Helmich-Paris,B.; de Souza,B.; Neese,F.; Izsák,R.
     An improved chain of spheres for exchange algorithm
     J. Chem. Phys., 2021 155 104109
     doi.org/doi: 10.1063/5.0058766.
  4. Neese,F.
     The SHARK Integral Generation and Digestion System
     J. Comp. Chem., 2022  1-16
     doi.org/10.1002/jcc.26942

List of suggested additional citations. These are papers that are important in the 'surrounding' of 
of this run, or papers that preceded the highly important papers. If you like your results we are grateful for a citation.

  1. Izsak,R.; Neese,F.
     An overlap fitted chain of spheres exchange method
     J. Chem. Phys., 2011 135 144105
     doi.org/10.1063/1.3646921
  2. Izsak,R.; Hansen,A.; Neese,F.
     The resolution of identity and chain of spheres approximations for the LPNO-CCSD singles Fock term
     Molec. Phys., 2012 110 2413-2417
     doi.org/10.1080/00268976.2012.687466
  3. Neese,F.
     The ORCA program system
     WIRES Comput. Molec. Sci., 2012 2(1)73-78
     doi.org/10.1002/wcms.81
  4. Izsak,R.; Neese,F.; Klopper,W.
     Robust fitting techniques in the chain of spheres approximation to the Fock exchange: The role of the complementary space
     J. Chem. Phys., 2013 139 
     doi.org/10.1063/1.4819264
  5. Neese,F.
     Software update: the ORCA program system, version 4.0
     WIRES Comput. Molec. Sci., 2018 8(1)1-6
     doi.org/10.1002/wcms.1327
  6. Neese,F.; Wennmohs,F.; Becker,U.; Riplinger,C.
     The ORCA quantum chemistry program package
     J. Chem. Phys., 2020 152 Art. No. L224108
     doi.org/10.1063/5.0004608

List of optional additional citations

  1. Neese,F.
     Approximate second-order SCF convergence for spin unrestricted wavefunctions
     Chem. Phys. Lett., 2000 325(1-3)93-98
     doi.org/10.1016/s0009-2614(00)00662-x

Timings for individual modules:

Sum of individual times          ...      160.192 sec (=   2.670 min)
Startup calculation              ...        4.796 sec (=   0.080 min)   3.0 %
SCF iterations                   ...      155.260 sec (=   2.588 min)  96.9 %
Property calculations            ...        0.137 sec (=   0.002 min)   0.1 %
                             ****ORCA TERMINATED NORMALLY****
TOTAL RUN TIME: 0 days 0 hours 2 minutes 41 seconds 78 msec
