
                                 *****************
                                 * O   R   C   A *
                                 *****************

                                            #,                                       
                                            ###                                      
                                            ####                                     
                                            #####                                    
                                            ######                                   
                                           ########,                                 
                                     ,,################,,,,,                         
                               ,,#################################,,                 
                          ,,##########################################,,             
                       ,#########################################, ''#####,          
                    ,#############################################,,   '####,        
                  ,##################################################,,,,####,       
                ,###########''''           ''''###############################       
              ,#####''   ,,,,##########,,,,          '''####'''          '####       
            ,##' ,,,,###########################,,,                        '##       
           ' ,,###''''                  '''############,,,                           
         ,,##''                                '''############,,,,        ,,,,,,###''
      ,#''                                            '''#######################'''  
     '                                                          ''''####''''         
             ,#######,   #######,   ,#######,      ##                                
            ,#'     '#,  ##    ##  ,#'     '#,    #''#        ,####,   ,####,        
            ##       ##  ##   ,#'  ##            #'  '#       #'       #'  '#        
            ##       ##  #######   ##           ,######,      #####,   #    #        
            '#,     ,#'  ##    ##  '#,     ,#' ,#      #,     #,   #   #,  ,#        
             '#######'   ##     ##  '#######'  #'      '#     '####' # '####'        



                #########################################################
                #                        -***-                          #
                #          Department of theory and spectroscopy        #
                #                                                       #
                #                      Frank Neese                      #
                #                                                       #
                #     Directorship, Architecture, Infrastructure        #
                #                    SHARK, DRIVERS                     #
                #        Core code/Algorithms in most modules           #
                #                                                       #
                #        Max Planck Institute fuer Kohlenforschung      #
                #                Kaiser Wilhelm Platz 1                 #
                #                 D-45470 Muelheim/Ruhr                 #
                #                      Germany                          #
                #                                                       #
                #                  All rights reserved                  #
                #                        -***-                          #
                #########################################################


                         Program Version 6.0.0  -   RELEASE  -


 With contributions from (in alphabetic order):
   Daniel Aravena         : Magnetic Suceptibility
   Michael Atanasov       : Ab Initio Ligand Field Theory (pilot matlab implementation)
   Alexander A. Auer      : GIAO ZORA, VPT2 properties, NMR spectrum
   Ute Becker             : All parallelization in ORCA, NUMFREQ, NUMCALC
   Giovanni Bistoni       : ED, misc. LED, open-shell LED, HFLD
   Martin Brehm           : Molecular dynamics
   Dmytro Bykov           : pre 5.0 version of the SCF Hessian
   Marcos Casanova-Páez   : Triplet and SCS-CIS(D). UHF-(DLPNO)-IP/EA/STEOM-CCSD. UHF-CVS-IP/STEOM-CCSD
   Vijay G. Chilkuri      : MRCI spin determinant printing, contributions to CSF-ICE
   Pauline Colinet        : FMM embedding
   Dipayan Datta          : RHF DLPNO-CCSD density
   Achintya Kumar Dutta   : EOM-CC, STEOM-CC
   Nicolas Foglia         : Exact transition moments, OPA infrastructure, MCD improvements
   Dmitry Ganyushin       : Spin-Orbit,Spin-Spin,Magnetic field MRCI
   Miquel Garcia          : C-PCM and meta-GGA Hessian, CCSD/C-PCM, Gaussian charge scheme
   Tiago L. C. Gouveia    : GS-ROHF, GS-ROCIS
   Yang Guo               : DLPNO-NEVPT2, F12-NEVPT2, CIM, IAO-localization
   Andreas Hansen         : Spin unrestricted coupled pair/coupled cluster methods
   Ingolf Harden          : AUTO-CI MPn and infrastructure 
   Benjamin Helmich-Paris : MC-RPA, TRAH-(SCF,CASSCF), AVAS, COSX integrals, SCF dyn. polar.
   Lee Huntington         : MR-EOM, pCC
   Robert Izsak           : Overlap fitted RIJCOSX, COSX-SCS-MP3, EOM
   Riya Kayal             : Wick's Theorem for AUTO-CI, AUTO-CI UHF-CCSDT
   Emily Kempfer          : AUTO-CI, RHF CISDT and CCSDT
   Christian Kollmar      : KDIIS, OOCD, Brueckner-CCSD(T), CCSD density, CASPT2, CASPT2-K, improved NEVPT2
   Axel Koslowski         : Symmetry handling
   Simone Kossmann        : Meta GGA functionals, TD-DFT gradient, OOMP2, (MP2 Hessian; deprecated post 5.0)
   Lucas Lang             : DCDCAS
   Marvin Lechner         : AUTO-CI (C++ implementation), FIC-MRCC
   Spencer Leger          : CASSCF response
   Dagmar Lenk            : GEPOL surface, SMD, ORCA-2-JSON
   Dimitrios Liakos       : Extrapolation schemes; Compound Job, initial MDCI parallelization
   Dimitrios Manganas     : Further ROCIS development; embedding schemes. LFT, Crystal Embedding
   Dimitrios Pantazis     : SARC Basis sets
   Anastasios Papadopoulos: AUTO-CI, single reference methods and gradients
   Taras Petrenko         : pre 6.0 DFT Hessian and TD-DFT gradient, (ASA, deprecated), ECA, 1-Electron XAS/XES, NRVS
   Peter Pinski           : DLPNO-MP2, DLPNO-MP2 Gradient
   Christoph Reimann      : Effective Core Potentials
   Marius Retegan         : Local ZFS, SOC
   Christoph Riplinger    : Optimizer, TS searches, QM/MM, DLPNO-CCSD(T), (RO)-DLPNO pert. Triples
   Michael Roemelt        : Original ROCIS implementation
   Masaaki Saitow         : Open-shell DLPNO-CCSD energy and density
   Barbara Sandhoefer     : DKH picture change effects
   Kantharuban Sivalingam : CASSCF convergence/infrastructure, NEVPT2 and variants, FIC-MRCI
   Bernardo de Souza      : ESD, SOC TD-DFT
   Georgi Stoychev        : AutoAux, RI-MP2 NMR, DLPNO-MP2 response, X2C
   Van Anh Tran           : RI-MP2 g-tensors
   Willem Van den Heuvel  : Paramagnetic NMR
   Zikuan Wang            : NOTCH, Electric field optimization 
   Frank Wennmohs         : Technical directorship and infrastructure
   Hang Xu                : AUTO-CI-Response properties 


 We gratefully acknowledge several colleagues who have allowed us to
 interface, adapt or use parts of their codes:
   Stefan Grimme, W. Hujo, H. Kruse, P. Pracht,  : VdW corrections, initial TS optimization,
                  C. Bannwarth, S. Ehlert,         DFT functionals, gCP, sTDA/sTD-DF
                  L. Wittmann, M. Mueller
   Ed Valeev, F. Pavosevic, A. Kumar             : LibInt (2-el integral package), F12 methods
   Garnet Chan, S. Sharma, J. Yang, R. Olivares  : DMRG
   Ulf Ekstrom                                   : XCFun DFT Library
   Mihaly Kallay                                 : mrcc  (arbitrary order and MRCC methods)
   Frank Weinhold                                : gennbo (NPA and NBO analysis)
   Simon Mueller                                 : openCOSMO-RS
   Christopher J. Cramer and Donald G. Truhlar   : smd solvation model
   Lars Goerigk                                  : TD-DFT with DH, B97 family of functionals
   V. Asgeirsson, H. Jonsson                     : NEB implementation
   FAccTs GmbH                                   : IRC, NEB, NEB-TS, DLPNO-Multilevel, CI-OPT
                                                   MM, QMMM, 2- and 3-layer-ONIOM, Crystal-QMMM,
                                                   LR-CPCM, SF, NACMEs, symmetry and pop. for TD-DFT,
                                                   nearIR, NL-DFT gradient (VV10), updates on ESD,
                                                   ML-optimized integration grids, MBIS, APM,
                                                   GOAT, DOCKER, SOLVATOR, interface openCOSMO-RS
   S Lehtola, MJT Oliveira, MAL Marques          : LibXC Library
   Liviu Ungur et al                             : ANISO software


 Your calculation uses the libint2 library for the computation of 2-el integrals
 For citations please refer to: http://libint.valeyev.net

 Your ORCA version has been built with support for libXC version: 6.2.2
 For citations please refer to: https://libxc.gitlab.io

 This ORCA versions uses:
   CBLAS   interface :  Fast vector & matrix operations
   LAPACKE interface :  Fast linear algebra routines
   SCALAPACK package :  Parallel linear algebra routines
   Shared memory     :  Shared parallel matrices
   BLAS/LAPACK       :  OpenBLAS 0.3.27  USE64BITINT DYNAMIC_ARCH NO_AFFINITY SkylakeX SINGLE_THREADED
        Core in use  :  SkylakeX
   Copyright (c) 2011-2014, The OpenBLAS Project


Warning: RI is on but no J-basis has been assigned. Assigning Def2/J (nothing to worry about!)
================================================================================

----- Orbital basis set information -----
Your calculation utilizes the basis: 6-31G*
   H-He, Li-Ne : W. J. Hehre, R. Ditchfield and J.A. Pople, J. Chem. Phys. 56, 2257 (1972).
                 Note: He and Ne are unpublished basis sets taken from the Gaussian program.
                 Note: Li and B from J. D. Dill and J. A. Pople, J. Chem. Phys. 62, 2921 (1975).
   Na - Ar     : M. M. Francl, W. J. Pietro, W. J. Hehre, J. S. Binkley, M. S. Gordon, 
                 D. J. DeFrees and J. A. Pople, J. Chem. Phys. 77, 3654 (1982).
   K - Zn      : V. A. Rassolov, J. A. Pople, M. A. Ratner, and T. L. Windus, J. Chem. Phys. 109, 1223 (1998).

----- AuxJ basis set information -----
Your calculation utilizes the auxiliary basis: def2/J
   F. Weigend, Phys. Chem. Chem. Phys. 8, 1057 (2006).

================================================================================
                                        WARNINGS
                       Please study these warnings very carefully!
================================================================================


================================================================================
                                       INPUT FILE
================================================================================
NAME = /home/nmrbox/aojoawo/Documents/ERDOS/inputs/CHEMBL3687367.inp
|  1> ! B3LYP 6-31G* SP
|  2> 
|  3> * xyz 0 1
|  4> C -1.4276 -0.2959 2.0914
|  5> C -0.4769 -1.1962 1.3331
|  6> C 0.3835 -0.6672 0.3416
|  7> N 0.3781 0.7285 0.0189
|  8> C -0.2133 1.1796 -1.2407
|  9> C -1.7008 1.0447 -1.1777
| 10> C -2.4068 -0.1404 -1.3827
| 11> C -3.7710 -0.0073 -1.0940
| 12> C -4.7470 -1.0112 -1.1734
| 13> Cl -4.3490 -2.6450 -1.6853
| 14> C -6.0716 -0.6929 -0.8239
| 15> C -6.4070 0.6065 -0.3979
| 16> C -5.4223 1.6013 -0.3129
| 17> C -4.1177 1.2678 -0.6662
| 18> S -2.7534 2.2451 -0.6213
| 19> S 1.3175 1.8268 0.9779
| 20> O 1.6694 1.1916 2.2945
| 21> O 0.5107 3.0660 1.2490
| 22> C 2.7960 2.2244 0.1121
| 23> C 3.7955 1.2555 -0.0329
| 24> C 4.9669 1.5507 -0.7362
| 25> C 5.1529 2.8220 -1.3089
| 26> C 6.3902 3.1403 -2.0550
| 27> O 7.2938 2.2720 -2.1932
| 28> O 6.5677 4.4034 -2.6138
| 29> C 4.1419 3.7884 -1.1648
| 30> C 2.9708 3.4901 -0.4614
| 31> N 1.2095 -1.4900 -0.3554
| 32> C 1.2588 -2.8260 -0.1379
| 33> C 0.4332 -3.4115 0.8249
| 34> C 0.4741 -4.7971 1.0438
| 35> C -0.3578 -5.3812 1.9993
| 36> C -1.2341 -4.5900 2.7413
| 37> C -1.2849 -3.2089 2.5343
| 38> C -0.4509 -2.5948 1.5736
| 39> H -2.4749 -0.6042 1.8881
| 40> H -1.2233 -0.3666 3.1802
| 41> H -1.3365 0.7705 1.8076
| 42> H 0.1864 0.5749 -2.0833
| 43> H 0.0491 2.2416 -1.4364
| 44> H -1.9384 -1.0653 -1.6945
| 45> H -6.8423 -1.4512 -0.8780
| 46> H -7.4295 0.8377 -0.1290
| 47> H -5.6702 2.5998 0.0233
| 48> H 3.6660 0.2698 0.3962
| 49> H 5.7252 0.7836 -0.8326
| 50> H 7.4110 4.6316 -3.1264
| 51> H 4.2532 4.7746 -1.5976
| 52> H 2.2020 4.2462 -0.3695
| 53> H 1.9401 -3.4298 -0.7243
| 54> H 1.1468 -5.4273 0.4745
| 55> H -0.3241 -6.4504 2.1641
| 56> H -1.8784 -5.0485 3.4805
| 57> H -1.9807 -2.6358 3.1313
| 58> *
| 59> 
| 60>                          ****END OF INPUT****
================================================================================

                       ****************************
                       * Single Point Calculation *
                       ****************************

---------------------------------
CARTESIAN COORDINATES (ANGSTROEM)
---------------------------------
  C     -1.427600   -0.295900    2.091400
  C     -0.476900   -1.196200    1.333100
  C      0.383500   -0.667200    0.341600
  N      0.378100    0.728500    0.018900
  C     -0.213300    1.179600   -1.240700
  C     -1.700800    1.044700   -1.177700
  C     -2.406800   -0.140400   -1.382700
  C     -3.771000   -0.007300   -1.094000
  C     -4.747000   -1.011200   -1.173400
  Cl    -4.349000   -2.645000   -1.685300
  C     -6.071600   -0.692900   -0.823900
  C     -6.407000    0.606500   -0.397900
  C     -5.422300    1.601300   -0.312900
  C     -4.117700    1.267800   -0.666200
  S     -2.753400    2.245100   -0.621300
  S      1.317500    1.826800    0.977900
  O      1.669400    1.191600    2.294500
  O      0.510700    3.066000    1.249000
  C      2.796000    2.224400    0.112100
  C      3.795500    1.255500   -0.032900
  C      4.966900    1.550700   -0.736200
  C      5.152900    2.822000   -1.308900
  C      6.390200    3.140300   -2.055000
  O      7.293800    2.272000   -2.193200
  O      6.567700    4.403400   -2.613800
  C      4.141900    3.788400   -1.164800
  C      2.970800    3.490100   -0.461400
  N      1.209500   -1.490000   -0.355400
  C      1.258800   -2.826000   -0.137900
  C      0.433200   -3.411500    0.824900
  C      0.474100   -4.797100    1.043800
  C     -0.357800   -5.381200    1.999300
  C     -1.234100   -4.590000    2.741300
  C     -1.284900   -3.208900    2.534300
  C     -0.450900   -2.594800    1.573600
  H     -2.474900   -0.604200    1.888100
  H     -1.223300   -0.366600    3.180200
  H     -1.336500    0.770500    1.807600
  H      0.186400    0.574900   -2.083300
  H      0.049100    2.241600   -1.436400
  H     -1.938400   -1.065300   -1.694500
  H     -6.842300   -1.451200   -0.878000
  H     -7.429500    0.837700   -0.129000
  H     -5.670200    2.599800    0.023300
  H      3.666000    0.269800    0.396200
  H      5.725200    0.783600   -0.832600
  H      7.411000    4.631600   -3.126400
  H      4.253200    4.774600   -1.597600
  H      2.202000    4.246200   -0.369500
  H      1.940100   -3.429800   -0.724300
  H      1.146800   -5.427300    0.474500
  H     -0.324100   -6.450400    2.164100
  H     -1.878400   -5.048500    3.480500
  H     -1.980700   -2.635800    3.131300

----------------------------
CARTESIAN COORDINATES (A.U.)
----------------------------
  NO LB      ZA    FRAG     MASS         X           Y           Z
   0 C     6.0000    0    12.011   -2.697773   -0.559170    3.952173
   1 C     6.0000    0    12.011   -0.901210   -2.260490    2.519194
   2 C     6.0000    0    12.011    0.724710   -1.260825    0.645530
   3 N     7.0000    0    14.007    0.714505    1.376665    0.035716
   4 C     6.0000    0    12.011   -0.403079    2.229121   -2.344583
   5 C     6.0000    0    12.011   -3.214046    1.974197   -2.225530
   6 C     6.0000    0    12.011   -4.548193   -0.265318   -2.612924
   7 C     6.0000    0    12.011   -7.126157   -0.013795   -2.067360
   8 C     6.0000    0    12.011   -8.970530   -1.910891   -2.217405
   9 Cl   17.0000    0    35.453   -8.218419   -4.998326   -3.184755
  10 C     6.0000    0    12.011  -11.473661   -1.309391   -1.556945
  11 C     6.0000    0    12.011  -12.107475    1.146119   -0.751922
  12 C     6.0000    0    12.011  -10.246662    3.026018   -0.591295
  13 C     6.0000    0    12.011   -7.781325    2.395795   -1.258936
  14 S    16.0000    0    32.060   -5.203172    4.242624   -1.174087
  15 S    16.0000    0    32.060    2.489714    3.452152    1.847963
  16 O     8.0000    0    15.999    3.154709    2.251798    4.335977
  17 O     8.0000    0    15.999    0.965083    5.793900    2.360268
  18 C     6.0000    0    12.011    5.283674    4.203507    0.211838
  19 C     6.0000    0    12.011    7.172456    2.372551   -0.062172
  20 C     6.0000    0    12.011    9.386081    2.930398   -1.391216
  21 C     6.0000    0    12.011    9.737570    5.332807   -2.473463
  22 C     6.0000    0    12.011   12.075728    5.934307   -3.883387
  23 O     8.0000    0    15.999   13.783284    4.293458   -4.144547
  24 O     8.0000    0    15.999   12.411154    8.321220   -4.939366
  25 C     6.0000    0    12.011    7.827057    7.159038   -2.201153
  26 C     6.0000    0    12.011    5.613998    6.595333   -0.871920
  27 N     7.0000    0    14.007    2.285624   -2.815692   -0.671609
  28 C     6.0000    0    12.011    2.378787   -5.340366   -0.260593
  29 C     6.0000    0    12.011    0.818629   -6.446801    1.558835
  30 C     6.0000    0    12.011    0.895919   -9.065205    1.972496
  31 C     6.0000    0    12.011   -0.676144  -10.168994    3.778129
  32 C     6.0000    0    12.011   -2.332111   -8.673843    5.180306
  33 C     6.0000    0    12.011   -2.428109   -6.063942    4.789133
  34 C     6.0000    0    12.011   -0.852078   -4.903461    2.973673
  35 H     1.0000    0     1.008   -4.676883   -1.141773    3.567992
  36 H     1.0000    0     1.008   -2.311702   -0.692774    6.009707
  37 H     1.0000    0     1.008   -2.525619    1.456034    3.415869
  38 H     1.0000    0     1.008    0.352245    1.086404   -3.936866
  39 H     1.0000    0     1.008    0.092786    4.236010   -2.714403
  40 H     1.0000    0     1.008   -3.663045   -2.013125   -3.202141
  41 H     1.0000    0     1.008  -12.930073   -2.742371   -1.659180
  42 H     1.0000    0     1.008  -14.039720    1.583024   -0.243775
  43 H     1.0000    0     1.008  -10.715125    4.912910    0.044031
  44 H     1.0000    0     1.008    6.927736    0.509848    0.748709
  45 H     1.0000    0     1.008   10.819060    1.480789   -1.573386
  46 H     1.0000    0     1.008   14.004760    8.752456   -5.908040
  47 H     1.0000    0     1.008    8.037383    9.022686   -3.019026
  48 H     1.0000    0     1.008    4.161177    8.024155   -0.698254
  49 H     1.0000    0     1.008    3.666258   -6.481383   -1.368729
  50 H     1.0000    0     1.008    2.167138  -10.256111    0.896675
  51 H     1.0000    0     1.008   -0.612460  -12.189489    4.089556
  52 H     1.0000    0     1.008   -3.549662   -9.540282    6.577192
  53 H     1.0000    0     1.008   -3.742981   -4.980940    5.917299

--------------------------------
INTERNAL COORDINATES (ANGSTROEM)
--------------------------------
 C      0   0   0     0.000000000000     0.00000000     0.00000000
 C      1   0   0     1.513072856805     0.00000000     0.00000000
 C      2   1   0     1.415344979148   120.70747187     0.00000000
 N      3   2   1     1.432530257970   121.30987124   359.63776654
 C      4   3   2     1.462818283315   119.73203376   253.15578073
 C      5   4   3     1.494932526905   109.76498002    71.34689880
 C      6   5   4     1.394604965573   125.04411955   279.33579426
 C      7   6   5     1.400751562555   112.45666293   172.31853126
 C      8   7   6     1.402389236268   126.73431732   181.19297245
 Cl     9   8   7     1.757767916990   121.61921976   359.53596438
 C      9   8   7     1.406424651377   118.64526387   179.11598982
 C     11   9   8     1.407980653276   120.55777263   359.73474569
 C     12  11   9     1.402314561716   120.38168557   359.82878065
 C      8   7   6     1.388918190535   113.19244727   359.84635194
 S     14   8   7     1.678822739303   109.86554797   359.43102921
 S      4   3   2     1.734478668073   119.36321697    84.12414854
 O     16   4   3     1.503578468188   110.08398634   341.91990792
 O     16   4   3     1.503342306329   109.32954836   222.92496961
 C     16   4   3     1.758879657623   109.04094758   101.76546668
 C     19  16   4     1.399568669269   119.65740340   289.21065341
 C     20  19  16     1.397838291792   120.29085787   179.00977287
 C     21  20  19     1.406692923136   120.43105461   359.81705116
 C     22  21  20     1.479490246673   120.68553017   180.03007363
 O     23  22  21     1.260768452175   120.43039506     0.34225869
 O     23  22  21     1.392546336751   120.27194012   180.26234916
 C     22  21  20     1.405992450193   118.97204728   359.87810890
 C     26  22  21     1.398295269248   120.47457668     0.08496783
 N      3   2   1     1.358339000397   120.18067974   181.60441834
 C     28   3   2     1.354486153491   122.49385901   359.56386405
 C     29  28   3     1.396928577272   120.17059500     0.56309450
 C     30  29  28     1.403380696746   120.27195304   179.43901819
 C     31  30  29     1.395066546800   120.18801354   180.44381545
 C     32  31  30     1.394440077594   120.10775563     0.00000000
 C     33  32  31     1.397450124334   120.31686970   359.96417463
 C     34  33  32     1.412663901995   120.59051299   359.95196809
 H      1   2   3     1.110503070685   109.61061792   117.77636827
 H      1   2   3     1.110055142774   109.75706156   238.19768476
 H      1   2   3     1.107271696559   113.13535404   358.02096107
 H      5   4   3     1.111484115946   109.85328555   310.37474290
 H      5   4   3     1.111303851339   110.54060517   191.84546144
 H      7   6   5     1.082616187760   123.31820466   354.46808439
 H     11   9   8     1.082554474380   119.97083520   179.95548325
 H     12  11   9     1.082250848926   119.82756619   180.18066265
 H     13  12  11     1.082352576566   120.82635615   180.62809693
 H     20  19  16     1.082821107109   120.24690734   359.21419139
 H     21  20  19     1.082937791380   118.81544841   179.91445660
 H     25  23  22     1.012911096790   120.90013956   179.99480873
 H     26  22  21     1.082725251391   120.74253899   180.26691253
 H     27  26  22     1.082213592596   119.25136221   180.49538867
 H     29  28   3     1.082870763295   119.07311316   180.14807204
 H     31  30  29     1.083411196176   120.69341511     0.27638966
 H     32  31  30     1.082350853467   119.95511474   179.91761177
 H     33  32  31     1.082479274628   119.80711756   179.91611154
 H     34  33  32     1.081198524786   117.74011457   179.89648217

---------------------------
INTERNAL COORDINATES (A.U.)
---------------------------
 C      0   0   0     0.000000000000     0.00000000     0.00000000
 C      1   0   0     2.859293320031     0.00000000     0.00000000
 C      2   1   0     2.674614395611   120.70747187     0.00000000
 N      3   2   1     2.707089866119   121.30987124   359.63776654
 C      4   3   2     2.764325939158   119.73203376   253.15578073
 C      5   4   3     2.825013064542   109.76498002    71.34689880
 C      6   5   4     2.635421449939   125.04411955   279.33579426
 C      7   6   5     2.647036834891   112.45666293   172.31853126
 C      8   7   6     2.650131589705   126.73431732   181.19297245
 Cl     9   8   7     3.321699970105   121.61921976   359.53596438
 C      9   8   7     2.657757419098   118.64526387   179.11598982
 C     11   9   8     2.660697836552   120.55777263   359.73474569
 C     12  11   9     2.649990475253   120.38168557   359.82878065
 C      8   7   6     2.624675002533   113.19244727   359.84635194
 S     14   8   7     3.172515204682   109.86554797   359.43102921
 S      4   3   2     3.277689667786   119.36321697    84.12414854
 O     16   4   3     2.841351525737   110.08398634   341.91990792
 O     16   4   3     2.840905244500   109.32954836   222.92496961
 C     16   4   3     3.323800855433   109.04094758   101.76546668
 C     19  16   4     2.644801490535   119.65740340   289.21065341
 C     20  19  16     2.641531550995   120.29085787   179.00977287
 C     21  20  19     2.658264379252   120.43105461   359.81705116
 C     22  21  20     2.795831384019   120.68553017   180.03007363
 O     23  22  21     2.382507092899   120.43039506     0.34225869
 O     23  22  21     2.631531205256   120.27194012   180.26234916
 C     22  21  20     2.656940677226   118.97204728   359.87810890
 C     26  22  21     2.642395113235   120.47457668     0.08496783
 N      3   2   1     2.566888707775   120.18067974   181.60441834
 C     28   3   2     2.559607882287   122.49385901   359.56386405
 C     29  28   3     2.639812439693   120.17059500     0.56309450
 C     30  29  28     2.652005178482   120.27195304   179.43901819
 C     31  30  29     2.636293712047   120.18801354   180.44381545
 C     32  31  30     2.635109856816   120.10775563     0.00000000
 C     33  32  31     2.640798020805   120.31686970   359.96417463
 C     34  33  32     2.669547894047   120.59051299   359.95196809
 H      1   2   3     2.098546674473   109.61061792   117.77636827
 H      1   2   3     2.097700213395   109.75706156   238.19768476
 H      1   2   3     2.092440262338   113.13535404   358.02096107
 H      5   4   3     2.100400581341   109.85328555   310.37474290
 H      5   4   3     2.100059930602   110.54060517   191.84546144
 H      7   6   5     2.045848103016   123.31820466   354.46808439
 H     11   9   8     2.045731481629   119.97083520   179.95548325
 H     12  11   9     2.045157712673   119.82756619   180.18066265
 H     13  12  11     2.045349950055   120.82635615   180.62809693
 H     20  19  16     2.046235344465   120.24690734   359.21419139
 H     21  20  19     2.046455845783   118.81544841   179.91445660
 H     25  23  22     1.914124570943   120.90013956   179.99480873
 H     26  22  21     2.046054203410   120.74253899   180.26691253
 H     27  26  22     2.045087308414   119.25136221   180.49538867
 H     29  28   3     2.046329181059   119.07311316   180.14807204
 H     31  30  29     2.047350451197   120.69341511     0.27638966
 H     32  31  30     2.045346693868   119.95511474   179.91761177
 H     33  32  31     2.045589374693   119.80711756   179.91611154
 H     34  33  32     2.043169108246   117.74011457   179.89648217

---------------------
BASIS SET INFORMATION
---------------------
There are 6 groups of distinct atoms

 Group   1 Type C   : 10s4p1d contracted to 3s2p1d pattern {631/31/1}
 Group   2 Type N   : 10s4p1d contracted to 3s2p1d pattern {631/31/1}
 Group   3 Type Cl  : 16s10p1d contracted to 4s3p1d pattern {6631/631/1}
 Group   4 Type S   : 16s10p1d contracted to 4s3p1d pattern {6631/631/1}
 Group   5 Type O   : 10s4p1d contracted to 3s2p1d pattern {631/31/1}
 Group   6 Type H   : 4s contracted to 2s pattern {31}

Atom   0C    basis set group =>   1
Atom   1C    basis set group =>   1
Atom   2C    basis set group =>   1
Atom   3N    basis set group =>   2
Atom   4C    basis set group =>   1
Atom   5C    basis set group =>   1
Atom   6C    basis set group =>   1
Atom   7C    basis set group =>   1
Atom   8C    basis set group =>   1
Atom   9Cl   basis set group =>   3
Atom  10C    basis set group =>   1
Atom  11C    basis set group =>   1
Atom  12C    basis set group =>   1
Atom  13C    basis set group =>   1
Atom  14S    basis set group =>   4
Atom  15S    basis set group =>   4
Atom  16O    basis set group =>   5
Atom  17O    basis set group =>   5
Atom  18C    basis set group =>   1
Atom  19C    basis set group =>   1
Atom  20C    basis set group =>   1
Atom  21C    basis set group =>   1
Atom  22C    basis set group =>   1
Atom  23O    basis set group =>   5
Atom  24O    basis set group =>   5
Atom  25C    basis set group =>   1
Atom  26C    basis set group =>   1
Atom  27N    basis set group =>   2
Atom  28C    basis set group =>   1
Atom  29C    basis set group =>   1
Atom  30C    basis set group =>   1
Atom  31C    basis set group =>   1
Atom  32C    basis set group =>   1
Atom  33C    basis set group =>   1
Atom  34C    basis set group =>   1
Atom  35H    basis set group =>   6
Atom  36H    basis set group =>   6
Atom  37H    basis set group =>   6
Atom  38H    basis set group =>   6
Atom  39H    basis set group =>   6
Atom  40H    basis set group =>   6
Atom  41H    basis set group =>   6
Atom  42H    basis set group =>   6
Atom  43H    basis set group =>   6
Atom  44H    basis set group =>   6
Atom  45H    basis set group =>   6
Atom  46H    basis set group =>   6
Atom  47H    basis set group =>   6
Atom  48H    basis set group =>   6
Atom  49H    basis set group =>   6
Atom  50H    basis set group =>   6
Atom  51H    basis set group =>   6
Atom  52H    basis set group =>   6
Atom  53H    basis set group =>   6
---------------------------------
AUXILIARY/J BASIS SET INFORMATION
---------------------------------
There are 6 groups of distinct atoms

 Group   1 Type C   : 12s5p4d2f1g contracted to 6s4p3d1f1g pattern {711111/2111/211/2/1}
 Group   2 Type N   : 12s5p4d2f1g contracted to 6s4p3d1f1g pattern {711111/2111/211/2/1}
 Group   3 Type Cl  : 14s5p5d2f1g contracted to 8s4p3d1f1g pattern {71111111/2111/311/2/1}
 Group   4 Type S   : 14s5p5d2f1g contracted to 8s4p3d1f1g pattern {71111111/2111/311/2/1}
 Group   5 Type O   : 12s5p4d2f1g contracted to 6s4p3d1f1g pattern {711111/2111/211/2/1}
 Group   6 Type H   : 5s2p1d contracted to 3s1p1d pattern {311/2/1}

Atom   0C    basis set group =>   1
Atom   1C    basis set group =>   1
Atom   2C    basis set group =>   1
Atom   3N    basis set group =>   2
Atom   4C    basis set group =>   1
Atom   5C    basis set group =>   1
Atom   6C    basis set group =>   1
Atom   7C    basis set group =>   1
Atom   8C    basis set group =>   1
Atom   9Cl   basis set group =>   3
Atom  10C    basis set group =>   1
Atom  11C    basis set group =>   1
Atom  12C    basis set group =>   1
Atom  13C    basis set group =>   1
Atom  14S    basis set group =>   4
Atom  15S    basis set group =>   4
Atom  16O    basis set group =>   5
Atom  17O    basis set group =>   5
Atom  18C    basis set group =>   1
Atom  19C    basis set group =>   1
Atom  20C    basis set group =>   1
Atom  21C    basis set group =>   1
Atom  22C    basis set group =>   1
Atom  23O    basis set group =>   5
Atom  24O    basis set group =>   5
Atom  25C    basis set group =>   1
Atom  26C    basis set group =>   1
Atom  27N    basis set group =>   2
Atom  28C    basis set group =>   1
Atom  29C    basis set group =>   1
Atom  30C    basis set group =>   1
Atom  31C    basis set group =>   1
Atom  32C    basis set group =>   1
Atom  33C    basis set group =>   1
Atom  34C    basis set group =>   1
Atom  35H    basis set group =>   6
Atom  36H    basis set group =>   6
Atom  37H    basis set group =>   6
Atom  38H    basis set group =>   6
Atom  39H    basis set group =>   6
Atom  40H    basis set group =>   6
Atom  41H    basis set group =>   6
Atom  42H    basis set group =>   6
Atom  43H    basis set group =>   6
Atom  44H    basis set group =>   6
Atom  45H    basis set group =>   6
Atom  46H    basis set group =>   6
Atom  47H    basis set group =>   6
Atom  48H    basis set group =>   6
Atom  49H    basis set group =>   6
Atom  50H    basis set group =>   6
Atom  51H    basis set group =>   6
Atom  52H    basis set group =>   6
Atom  53H    basis set group =>   6
------------------------------------------------------------------------------
                             ORCA STARTUP CALCULATIONS
                           -- RI-GTO INTEGRALS CHOSEN --
------------------------------------------------------------------------------
------------------------------------------------------------------------------
                   ___                                                        
                  /   \      - P O W E R E D   B Y -                         
                 /     \                                                     
                 |  |  |   _    _      __       _____    __    __             
                 |  |  |  | |  | |    /  \     |  _  \  |  |  /  |          
                  \  \/   | |  | |   /    \    | | | |  |  | /  /          
                 / \  \   | |__| |  /  /\  \   | |_| |  |  |/  /          
                |  |  |   |  __  | /  /__\  \  |    /   |      \           
                |  |  |   | |  | | |   __   |  |    \   |  |\   \          
                \     /   | |  | | |  |  |  |  | |\  \  |  | \   \       
                 \___/    |_|  |_| |__|  |__|  |_| \__\ |__|  \__/        
                                                                              
                      - O R C A' S   B I G   F R I E N D -                    
                                      &                                       
                       - I N T E G R A L  F E E D E R -                       
                                                                              
 v1 FN, 2020, v2 2021, v3 2022-2024                                           
------------------------------------------------------------------------------


----------------------
SHARK INTEGRAL PACKAGE
----------------------

Number of atoms                             ...     54
Number of basis functions                   ...    540
Number of shells                            ...    254
Maximum angular momentum                    ...      2
Integral batch strategy                     ... SHARK/LIBINT Hybrid
RI-J (if used) integral strategy            ... SPLIT-RIJ (Revised 2003 algorithm where possible)
Printlevel                                  ...      1
Contraction scheme used                     ... SEGMENTED contraction
Prescreening option                         ... SCHWARTZ
   Thresh                                   ... 1.000e-10
   Tcut                                     ... 1.000e-11
   Tpresel                                  ... 1.000e-11 
Coulomb Range Separation                    ... NOT USED
Exchange Range Separation                   ... NOT USED
Multipole approximations                    ... NOT USED
Finite Nucleus Model                        ... NOT USED
CABS basis                                  ... NOT available
Auxiliary Coulomb fitting basis             ... AVAILABLE
   # of basis functions in Aux-J            ...   1930
   # of shells in Aux-J                     ...    626
   Maximum angular momentum in Aux-J        ...      4
Auxiliary J/K fitting basis                 ... NOT available
Auxiliary Correlation fitting basis         ... NOT available
Auxiliary 'external' fitting basis          ... NOT available

Checking pre-screening integrals            ... done (  0.0 sec) Dimension = 254
Check shell pair data                       ... done (  0.0 sec)
Shell pair information
Shell pair cut-off parameter TPreSel        ...   1.0e-11
Total number of shell pairs                 ...     32385
Shell pairs after pre-screening             ...     17906
Total number of primitive shell pairs       ...    204085
Primitive shell pairs kept                  ...     56435
          la=0 lb=0:   5510 shell pairs
          la=1 lb=0:   6463 shell pairs
          la=1 lb=1:   1883 shell pairs
          la=2 lb=0:   2343 shell pairs
          la=2 lb=1:   1452 shell pairs
          la=2 lb=2:    255 shell pairs

Calculating one electron integrals          ... done (  0.2 sec)
Calculating RI/J V-Matrix + Cholesky decomp.... done (  0.4 sec)
Calculating Nuclear repulsion               ... done (  0.0 sec) ENN=   4171.343743625704 Eh

Diagonalization of the overlap matrix:
Smallest eigenvalue                        ... 3.533e-04
Time for diagonalization                   ...    0.032 sec
Threshold for overlap eigenvalues          ... 1.000e-07
Number of eigenvalues below threshold      ... 0
Time for construction of square roots      ...    0.035 sec
Total time needed                          ...    0.078 sec

-------------------
DFT GRID GENERATION
-------------------

General Integration Accuracy     IntAcc      ... 4.388
Radial Grid Type                 RadialGrid  ... OptM3 with GC (2021)
Angular Grid (max. ang.)         AngularGrid ... 4 (Lebedev-302)
Angular grid pruning method      GridPruning ... 4 (adaptive)
Weight generation scheme         WeightScheme... mBecke (2022)
Basis function cutoff            BFCut       ... 1.0000e-10
Integration weight cutoff        WCut        ... 1.0000e-14
Partially contracted basis set               ... off
Rotationally invariant grid construction     ... off
Angular grids for H and He will be reduced by one unit

Total number of grid points                  ...   272874
Total number of batches                      ...     4292
Average number of points per batch           ...       63
Average number of grid points per atom       ...     5053

--------------------
COSX GRID GENERATION
--------------------

GRIDX 1
-------
General Integration Accuracy     IntAcc      ... 3.816
Radial Grid Type                 RadialGrid  ... OptM3 with GC (2021)
Angular Grid (max. ang.)         AngularGrid ... 1 (Lebedev-50)
Angular grid pruning method      GridPruning ... 4 (adaptive)
Weight generation scheme         WeightScheme... mBecke (2022)
Basis function cutoff            BFCut       ... 1.0000e-10
Integration weight cutoff        WCut        ... 1.0000e-14
Partially contracted basis set               ... on
Rotationally invariant grid construction     ... off
Angular grids for H and He will be reduced by one unit

Total number of grid points                  ...    37493
Total number of batches                      ...      319
Average number of points per batch           ...      117
Average number of grid points per atom       ...      694
UseSFitting                                  ... on

GRIDX 2
-------
General Integration Accuracy     IntAcc      ... 4.020
Radial Grid Type                 RadialGrid  ... OptM3 with GC (2021)
Angular Grid (max. ang.)         AngularGrid ... 2 (Lebedev-110)
Angular grid pruning method      GridPruning ... 4 (adaptive)
Weight generation scheme         WeightScheme... mBecke (2022)
Basis function cutoff            BFCut       ... 1.0000e-10
Integration weight cutoff        WCut        ... 1.0000e-14
Partially contracted basis set               ... on
Rotationally invariant grid construction     ... off
Angular grids for H and He will be reduced by one unit

Total number of grid points                  ...    75403
Total number of batches                      ...      616
Average number of points per batch           ...      122
Average number of grid points per atom       ...     1396
UseSFitting                                  ... on

GRIDX 3
-------
General Integration Accuracy     IntAcc      ... 4.338
Radial Grid Type                 RadialGrid  ... OptM3 with GC (2021)
Angular Grid (max. ang.)         AngularGrid ... 3 (Lebedev-194)
Angular grid pruning method      GridPruning ... 4 (adaptive)
Weight generation scheme         WeightScheme... mBecke (2022)
Basis function cutoff            BFCut       ... 1.0000e-10
Integration weight cutoff        WCut        ... 1.0000e-14
Partially contracted basis set               ... on
Rotationally invariant grid construction     ... off
Angular grids for H and He will be reduced by one unit

Total number of grid points                  ...   166635
Total number of batches                      ...     1328
Average number of points per batch           ...      125
Average number of grid points per atom       ...     3086
UseSFitting                                  ... on
Initializing property integral containers    ... done (  0.0 sec)

SHARK setup successfully completed in  10.2 seconds

Maximum memory used throughout the entire STARTUP-calculation: 121.7 MB
-------------------------------------------------------------------------------
                                 ORCA GUESS
                   Start orbitals & Density for SCF / CASSCF
-------------------------------------------------------------------------------

------------
SCF SETTINGS
------------
Hamiltonian:
 Density Functional     Method          .... DFT(GTOs)
 Exchange Functional    Exchange        .... B88
   X-Alpha parameter    XAlpha          ....  0.666667
   Becke's b parameter  XBeta           ....  0.004200
 Correlation Functional Correlation     .... LYP
 LDA part of GGA corr.  LDAOpt          .... VWN-5
 Gradients option       PostSCFGGA      .... off
 Hybrid DFT is turned on
   Fraction HF Exchange ScalHFX         ....  0.200000
   Scaling of DF-GGA-X  ScalDFX         ....  0.720000
   Scaling of DF-GGA-C  ScalDFC         ....  0.810000
   Scaling of DF-LDA-C  ScalLDAC        ....  1.000000
   Perturbative correction              ....  0.000000
   NL short-range parameter             ....  4.800000
 RI-approximation to the Coulomb term is turned on
   Number of AuxJ basis functions       .... 1930
   RIJ-COSX (HFX calculated with COS-X)).... on


General Settings:
 Integral files         IntName         .... /home/nmrbox/aojoawo/Documents/ERDOS/inputs/CHEMBL3687367
 Hartree-Fock type      HFTyp           .... RHF
 Total Charge           Charge          ....    0
 Multiplicity           Mult            ....    1
 Number of Electrons    NEL             ....  270
 Basis Dimension        Dim             ....  540
 Nuclear Repulsion      ENuc            ....   4171.3437436257 Eh

Convergence Acceleration:
 AO-DIIS                CNVDIIS         .... on
   Start iteration      DIISMaxIt       ....    12
   Startup error        DIISStart       ....  0.200000
   # of expansion vecs  DIISMaxEq       ....     5
   Bias factor          DIISBfac        ....   1.050
   Max. coefficient     DIISMaxC        ....  10.000
 MO-DIIS                CNVKDIIS        .... off
 Trust-Rad. Augm. Hess. CNVTRAH         .... auto
   Auto Start mean grad. ratio tolernc. ....  1.125000
   Auto Start start iteration           ....    50
   Auto Start num. interpolation iter.  ....    10
   Max. Number of Micro iterations      ....    24
   Max. Number of Macro iterations      .... Maxiter - #DIIS iter
   Number of Davidson start vectors     ....     2
   Converg. threshold    (grad. norm)   ....   5.000e-05
   Grad. Scal. Fac. for Micro threshold ....   0.100
   Minimum threshold for Micro iter.    ....   1.000e-02
   NR start threshold (gradient norm)   ....   1.000e-04
   Initial trust radius                 ....   0.400
   Minimum AH scaling param. (alpha)    ....   1.000
   Maximum AH scaling param. (alpha)    .... 1000.000
   Quad. conv. algorithm                .... NR
   White noise on init. David. guess    .... on
   Maximum white noise                  ....   0.010
   Pseudo random numbers                .... off
   Inactive MOs                         .... canonical
   Orbital update algorithm             .... Taylor
   Preconditioner                       .... Diag
   Full preconditioner red. dimension   ....   250
 SOSCF                  CNVSOSCF        .... on
   Start iteration      SOSCFMaxIt      ....   150
   Startup grad/error   SOSCFStart      ....  0.003300
   Hessian update       SOSCFHessUp     .... L-BFGS
 Level Shifting         CNVShift        .... on
   Level shift para.    LevelShift      ....    0.2500
   Turn off err/grad.   ShiftErr        ....    0.0010
 Zerner damping         CNVZerner       .... off
 Static damping         CNVDamp         .... on
   Fraction old density DampFac         ....    0.7000
   Max. Damping (<1)    DampMax         ....    0.9800
   Min. Damping (>=0)   DampMin         ....    0.0000
   Turn off err/grad.   DampErr         ....    0.1000

SCF Procedure:
 Maximum # iterations   MaxIter         ....   125
 SCF integral mode      SCFMode         .... Direct
   Integral package                     .... SHARK and LIBINT hybrid scheme
 Reset frequency        DirectResetFreq ....    20
 Integral Threshold     Thresh          ....  1.000e-10 Eh
 Primitive CutOff       TCut            ....  1.000e-11 Eh

Convergence Tolerance:
 Convergence Check Mode ConvCheckMode   .... Total+1el-Energy
 Convergence forced     ConvForced      .... 0
 Energy Change          TolE            ....  1.000e-06 Eh
 1-El. energy change                    ....  1.000e-03 Eh
 Orbital Gradient       TolG            ....  5.000e-05
 Orbital Rotation angle TolX            ....  5.000e-05
 DIIS Error             TolErr          ....  1.000e-06

------------------------------
INITIAL GUESS: MODEL POTENTIAL
------------------------------
Loading Hartree-Fock densities                     ... done
Calculating cut-offs                               ... done
Initializing the effective Hamiltonian             ... done
Setting up the integral package (SHARK)            ... done
Starting the Coulomb interaction                   ... done (   2.5 sec)
Making the grid                                    ... done (   1.3 sec)
Mapping shells                                     ... done
Starting the XC term evaluation                    ... done (   1.0 sec)
  promolecular density results
     # of electrons  =    269.991014547
     EX              =   -262.937174524
     EC              =     -9.647431815
     EX+EC           =   -272.584606339
Transforming the Hamiltonian                       ... done (   0.0 sec)
Diagonalizing the Hamiltonian                      ... done (   0.0 sec)
Back transforming the eigenvectors                 ... done (   0.0 sec)
Now organizing SCF variables                       ... done
                      ------------------
                      INITIAL GUESS DONE (   4.9 sec)
                      ------------------
             **** ENERGY FILE WAS UPDATED (/home/nmrbox/aojoawo/Documents/ERDOS/inputs/CHEMBL3687367.en.tmp) ****
Finished Guess after   5.3 sec
Maximum memory used throughout the entire GUESS-calculation: 67.5 MB

-------------------------------------------------------------------------------------------
                                      ORCA LEAN-SCF
                              memory conserving SCF solver
-------------------------------------------------------------------------------------------

----------------------------------------D-I-I-S--------------------------------------------
Iteration    Energy (Eh)           Delta-E    RMSDP     MaxDP     DIISErr   Damp  Time(sec)
-------------------------------------------------------------------------------------------
               ***  Starting incremental Fock matrix formation  ***
    1    -2667.0765418496630446     0.00e+00  2.47e-03  1.88e-01  2.96e-01  0.700  50.1
    2    -2667.5480499522909668    -4.72e-01  1.51e-03  7.77e-02  9.80e-02  0.700  23.4
                               ***Turning on AO-DIIS***
    3    -2667.7075212186946374    -1.59e-01  6.31e-04  2.13e-02  3.61e-02  0.700  22.6
    4    -2667.8124189960362855    -1.05e-01  1.17e-03  6.06e-02  1.58e-02  0.000  20.7
    5    -2668.0495653883817795    -2.37e-01  2.48e-04  9.17e-03  7.87e-03  0.000  21.9
                              *** Initializing SOSCF ***
---------------------------------------S-O-S-C-F--------------------------------------
Iteration    Energy (Eh)           Delta-E    RMSDP     MaxDP     MaxGrad    Time(sec)
--------------------------------------------------------------------------------------
    6    -2668.0514559588173142    -1.89e-03  8.10e-05  3.00e-03  2.66e-03    18.6
               *** Restarting incremental Fock matrix formation ***
    7    -2668.0517018638875015    -2.46e-04  6.62e-05  3.13e-03  4.04e-04    50.3
    8    -2668.0516550484862819     4.68e-05  4.03e-05  1.81e-03  7.47e-04    29.3
    9    -2668.0517301549907643    -7.51e-05  1.36e-05  7.66e-04  1.24e-04    26.4
   10    -2668.0517275510574109     2.60e-06  8.42e-06  4.99e-04  2.46e-04    21.7
   11    -2668.0517312119764028    -3.66e-06  3.54e-06  1.57e-04  3.94e-05    19.9
   12    -2668.0517312249039605    -1.29e-08  2.20e-06  1.13e-04  6.56e-05    16.7
                 **** Energy Check signals convergence ****

               *****************************************************
               *                     SUCCESS                       *
               *           SCF CONVERGED AFTER  12 CYCLES          *
               *****************************************************

Recomputing exchange energy using gridx3       ... done (   88.913 sec)
Old exchange energy                            :    -53.081633689 Eh
New exchange energy                            :    -53.081690235 Eh
Exchange energy change after final integration :     -0.000056546 Eh
Total energy after final integration           :  -2668.051787771 Eh
             **** ENERGY FILE WAS UPDATED (/home/nmrbox/aojoawo/Documents/ERDOS/inputs/CHEMBL3687367.en.tmp) ****

----------------
TOTAL SCF ENERGY
----------------

Total Energy       :      -2668.05178777062747 Eh          -72601.38013 eV

Components:
Nuclear Repulsion  :       4171.34374362570361 Eh          113508.03390 eV
Electronic Energy  :      -6839.39547485060757 Eh         -186109.41249 eV
One Electron Energy:     -11960.28204348527652 Eh         -325455.82026 eV
Two Electron Energy:       5120.88656863466895 Eh          139346.40777 eV

Virial components:
Potential Energy   :      -5324.83001113259343 Eh         -144895.99097 eV
Kinetic Energy     :       2656.77822336196550 Eh           72294.61084 eV
Virial Ratio       :          2.00424332159513

DFT components:
N(Alpha)           :      134.999840990694 electrons
N(Beta)            :      134.999840990694 electrons
N(Total)           :      269.999681981388 electrons
E(X)               :     -210.884214281830 Eh       
E(C)               :      -11.326140565382 Eh       
E(XC)              :     -222.210354847212 Eh       

---------------
SCF CONVERGENCE
---------------

  Last Energy change         ...    1.2928e-08  Tolerance :   1.0000e-06
  Last MAX-Density change    ...    1.1251e-04  Tolerance :   1.0000e-05
  Last RMS-Density change    ...    2.1980e-06  Tolerance :   1.0000e-06
  Last DIIS Error            ...    2.6601e-03  Tolerance :   1.0000e-06
  Last Orbital Gradient      ...    6.5638e-05  Tolerance :   5.0000e-05
  Last Orbital Rotation      ...    1.2857e-04  Tolerance :   5.0000e-05


----------------
ORBITAL ENERGIES
----------------

  NO   OCC          E(Eh)            E(eV) 
   0   2.0000    -101.531090     -2762.8014 
   1   2.0000     -89.097713     -2424.4720 
   2   2.0000     -88.889048     -2418.7940 
   3   2.0000     -19.194866      -522.3188 
   4   2.0000     -19.136312      -520.7255 
   5   2.0000     -19.128085      -520.5016 
   6   2.0000     -19.127052      -520.4736 
   7   2.0000     -14.372897      -391.1064 
   8   2.0000     -14.333287      -390.0286 
   9   2.0000     -10.333672      -281.1935 
  10   2.0000     -10.257274      -279.1146 
  11   2.0000     -10.247505      -278.8488 
  12   2.0000     -10.245974      -278.8071 
  13   2.0000     -10.239518      -278.6315 
  14   2.0000     -10.229579      -278.3610 
  15   2.0000     -10.225169      -278.2410 
  16   2.0000     -10.220343      -278.1097 
  17   2.0000     -10.217705      -278.0379 
  18   2.0000     -10.216937      -278.0170 
  19   2.0000     -10.216133      -277.9951 
  20   2.0000     -10.215101      -277.9670 
  21   2.0000     -10.214575      -277.9527 
  22   2.0000     -10.209101      -277.8038 
  23   2.0000     -10.204985      -277.6917 
  24   2.0000     -10.200238      -277.5626 
  25   2.0000     -10.198886      -277.5258 
  26   2.0000     -10.197883      -277.4985 
  27   2.0000     -10.197122      -277.4778 
  28   2.0000     -10.196765      -277.4681 
  29   2.0000     -10.196047      -277.4486 
  30   2.0000     -10.195642      -277.4375 
  31   2.0000     -10.195603      -277.4365 
  32   2.0000     -10.194750      -277.4133 
  33   2.0000     -10.187560      -277.2176 
  34   2.0000     -10.171921      -276.7921 
  35   2.0000      -9.462603      -257.4905 
  36   2.0000      -8.133539      -221.3249 
  37   2.0000      -7.966570      -216.7814 
  38   2.0000      -7.225641      -196.6197 
  39   2.0000      -7.216262      -196.3645 
  40   2.0000      -7.215934      -196.3555 
  41   2.0000      -6.098561      -165.9503 
  42   2.0000      -6.096608      -165.8971 
  43   2.0000      -6.096129      -165.8841 
  44   2.0000      -5.929830      -161.3589 
  45   2.0000      -5.925789      -161.2489 
  46   2.0000      -5.922971      -161.1722 
  47   2.0000      -1.084873       -29.5209 
  48   2.0000      -1.079403       -29.3720 
  49   2.0000      -0.993530       -27.0353 
  50   2.0000      -0.965743       -26.2792 
  51   2.0000      -0.963075       -26.2066 
  52   2.0000      -0.922351       -25.0984 
  53   2.0000      -0.911782       -24.8108 
  54   2.0000      -0.887816       -24.1587 
  55   2.0000      -0.872318       -23.7370 
  56   2.0000      -0.863694       -23.5023 
  57   2.0000      -0.827048       -22.5051 
  58   2.0000      -0.808070       -21.9887 
  59   2.0000      -0.803075       -21.8528 
  60   2.0000      -0.777568       -21.1587 
  61   2.0000      -0.773681       -21.0529 
  62   2.0000      -0.765720       -20.8363 
  63   2.0000      -0.763487       -20.7755 
  64   2.0000      -0.740819       -20.1587 
  65   2.0000      -0.719674       -19.5833 
  66   2.0000      -0.708495       -19.2791 
  67   2.0000      -0.698813       -19.0157 
  68   2.0000      -0.684745       -18.6329 
  69   2.0000      -0.652717       -17.7613 
  70   2.0000      -0.643417       -17.5083 
  71   2.0000      -0.636459       -17.3189 
  72   2.0000      -0.619588       -16.8598 
  73   2.0000      -0.605863       -16.4864 
  74   2.0000      -0.596107       -16.2209 
  75   2.0000      -0.594183       -16.1685 
  76   2.0000      -0.591481       -16.0950 
  77   2.0000      -0.566741       -15.4218 
  78   2.0000      -0.559860       -15.2346 
  79   2.0000      -0.540258       -14.7012 
  80   2.0000      -0.532210       -14.4822 
  81   2.0000      -0.518837       -14.1183 
  82   2.0000      -0.508964       -13.8496 
  83   2.0000      -0.501355       -13.6426 
  84   2.0000      -0.490881       -13.3575 
  85   2.0000      -0.485145       -13.2015 
  86   2.0000      -0.482504       -13.1296 
  87   2.0000      -0.479534       -13.0488 
  88   2.0000      -0.470900       -12.8138 
  89   2.0000      -0.467960       -12.7338 
  90   2.0000      -0.458845       -12.4858 
  91   2.0000      -0.450835       -12.2678 
  92   2.0000      -0.447603       -12.1799 
  93   2.0000      -0.445494       -12.1225 
  94   2.0000      -0.442186       -12.0325 
  95   2.0000      -0.440407       -11.9841 
  96   2.0000      -0.434314       -11.8183 
  97   2.0000      -0.429686       -11.6923 
  98   2.0000      -0.427824       -11.6417 
  99   2.0000      -0.423785       -11.5318 
 100   2.0000      -0.417510       -11.3610 
 101   2.0000      -0.414690       -11.2843 
 102   2.0000      -0.413232       -11.2446 
 103   2.0000      -0.404511       -11.0073 
 104   2.0000      -0.399760       -10.8780 
 105   2.0000      -0.392656       -10.6847 
 106   2.0000      -0.389603       -10.6016 
 107   2.0000      -0.383574       -10.4376 
 108   2.0000      -0.377545       -10.2735 
 109   2.0000      -0.372528       -10.1370 
 110   2.0000      -0.367869       -10.0102 
 111   2.0000      -0.366211        -9.9651 
 112   2.0000      -0.364627        -9.9220 
 113   2.0000      -0.359221        -9.7749 
 114   2.0000      -0.353904        -9.6302 
 115   2.0000      -0.349914        -9.5216 
 116   2.0000      -0.343750        -9.3539 
 117   2.0000      -0.329541        -8.9673 
 118   2.0000      -0.321112        -8.7379 
 119   2.0000      -0.319427        -8.6920 
 120   2.0000      -0.311273        -8.4702 
 121   2.0000      -0.306873        -8.3504 
 122   2.0000      -0.300605        -8.1799 
 123   2.0000      -0.288243        -7.8435 
 124   2.0000      -0.283123        -7.7042 
 125   2.0000      -0.277859        -7.5609 
 126   2.0000      -0.276929        -7.5356 
 127   2.0000      -0.276567        -7.5258 
 128   2.0000      -0.272756        -7.4221 
 129   2.0000      -0.266470        -7.2510 
 130   2.0000      -0.258458        -7.0330 
 131   2.0000      -0.254350        -6.9212 
 132   2.0000      -0.241649        -6.5756 
 133   2.0000      -0.223465        -6.0808 
 134   2.0000      -0.212812        -5.7909 
 135   0.0000      -0.081164        -2.2086 
 136   0.0000      -0.060429        -1.6444 
 137   0.0000      -0.038796        -1.0557 
 138   0.0000      -0.032561        -0.8860 
 139   0.0000      -0.027785        -0.7561 
 140   0.0000      -0.008129        -0.2212 
 141   0.0000       0.013971         0.3802 
 142   0.0000       0.019085         0.5193 
 143   0.0000       0.022937         0.6242 
 144   0.0000       0.034811         0.9472 
 145   0.0000       0.042186         1.1479 
*Only the first 10 virtual orbitals were printed.

                    ********************************
                    * MULLIKEN POPULATION ANALYSIS *
                    ********************************

-----------------------
MULLIKEN ATOMIC CHARGES
-----------------------
   0 C :   -0.549538
   1 C :    0.136512
   2 C :    0.302206
   3 N :   -0.605733
   4 C :   -0.211270
   5 C :   -0.117219
   6 C :   -0.167551
   7 C :    0.150728
   8 C :   -0.126504
   9 Cl:   -0.007533
  10 C :   -0.154792
  11 C :   -0.109072
  12 C :   -0.174880
  13 C :   -0.115645
  14 S :    0.257220
  15 S :    1.220817
  16 O :   -0.544978
  17 O :   -0.551957
  18 C :   -0.125586
  19 C :   -0.134301
  20 C :   -0.141978
  21 C :    0.083021
  22 C :    0.527913
  23 O :   -0.444602
  24 O :   -0.623918
  25 C :   -0.146248
  26 C :   -0.153822
  27 N :   -0.403549
  28 C :   -0.059741
  29 C :    0.140627
  30 C :   -0.203584
  31 C :   -0.124477
  32 C :   -0.119783
  33 C :   -0.191942
  34 C :    0.117149
  35 H :    0.161642
  36 H :    0.171105
  37 H :    0.206001
  38 H :    0.190853
  39 H :    0.177482
  40 H :    0.163256
  41 H :    0.148269
  42 H :    0.139801
  43 H :    0.146286
  44 H :    0.188564
  45 H :    0.180494
  46 H :    0.433754
  47 H :    0.171945
  48 H :    0.183994
  49 H :    0.151236
  50 H :    0.138471
  51 H :    0.136767
  52 H :    0.139132
  53 H :    0.144961
Sum of atomic charges:   -0.0000000

--------------------------------
MULLIKEN REDUCED ORBITAL CHARGES
--------------------------------
  0 C s       :     3.323138  s :     3.323138
      pz      :     1.067610  p :     3.192506
      px      :     1.037687
      py      :     1.087209
      dz2     :     0.010737  d :     0.033894
      dxz     :     0.003884
      dyz     :     0.004166
      dx2y2   :     0.009760
      dxy     :     0.005347

  1 C s       :     3.180438  s :     3.180438
      pz      :     0.887078  p :     2.642931
      px      :     0.876812
      py      :     0.879041
      dz2     :     0.007946  d :     0.040119
      dxz     :     0.005493
      dyz     :     0.008227
      dx2y2   :     0.009807
      dxy     :     0.008646

  2 C s       :     3.046818  s :     3.046818
      pz      :     0.955540  p :     2.577778
      px      :     0.945241
      py      :     0.676998
      dz2     :     0.012019  d :     0.073197
      dxz     :     0.008891
      dyz     :     0.015552
      dx2y2   :     0.018804
      dxy     :     0.017931

  3 N s       :     3.598380  s :     3.598380
      pz      :     1.297934  p :     3.973536
      px      :     1.519539
      py      :     1.156063
      dz2     :     0.006789  d :     0.033817
      dxz     :     0.004643
      dyz     :     0.009377
      dx2y2   :     0.006225
      dxy     :     0.006783

  4 C s       :     3.250647  s :     3.250647
      pz      :     0.879730  p :     2.904457
      px      :     0.941481
      py      :     1.083246
      dz2     :     0.015027  d :     0.056166
      dxz     :     0.013783
      dyz     :     0.008924
      dx2y2   :     0.012327
      dxy     :     0.006105

  5 C s       :     3.201890  s :     3.201890
      pz      :     1.050466  p :     2.874111
      px      :     0.891790
      py      :     0.931855
      dz2     :     0.004469  d :     0.041219
      dxz     :     0.006079
      dyz     :     0.006782
      dx2y2   :     0.009887
      dxy     :     0.014002

  6 C s       :     3.184099  s :     3.184099
      pz      :     1.032304  p :     2.946280
      px      :     0.986701
      py      :     0.927275
      dz2     :     0.003331  d :     0.037171
      dxz     :     0.006224
      dyz     :     0.004964
      dx2y2   :     0.011536
      dxy     :     0.011116

  7 C s       :     3.103151  s :     3.103151
      pz      :     0.984469  p :     2.701858
      px      :     0.910573
      py      :     0.806816
      dz2     :     0.004497  d :     0.044262
      dxz     :     0.008177
      dyz     :     0.006406
      dx2y2   :     0.012670
      dxy     :     0.012512

  8 C s       :     3.171404  s :     3.171404
      pz      :     1.039734  p :     2.906747
      px      :     1.040816
      py      :     0.826197
      dz2     :     0.004435  d :     0.048354
      dxz     :     0.007325
      dyz     :     0.007558
      dx2y2   :     0.014649
      dxy     :     0.014387

  9 Cls       :     5.922211  s :     5.922211
      pz      :     3.868748  p :    11.055961
      px      :     3.908932
      py      :     3.278281
      dz2     :     0.004146  d :     0.029361
      dxz     :     0.000859
      dyz     :     0.008509
      dx2y2   :     0.010381
      dxy     :     0.005466

 10 C s       :     3.205607  s :     3.205607
      pz      :     0.998857  p :     2.914223
      px      :     0.958515
      py      :     0.956851
      dz2     :     0.004502  d :     0.034962
      dxz     :     0.004681
      dyz     :     0.004186
      dx2y2   :     0.008916
      dxy     :     0.012677

 11 C s       :     3.186693  s :     3.186693
      pz      :     0.994602  p :     2.886430
      px      :     0.969099
      py      :     0.922730
      dz2     :     0.003591  d :     0.035949
      dxz     :     0.003806
      dyz     :     0.006173
      dx2y2   :     0.012524
      dxy     :     0.009856

 12 C s       :     3.193687  s :     3.193687
      pz      :     1.004553  p :     2.944797
      px      :     0.946199
      py      :     0.994044
      dz2     :     0.003199  d :     0.036397
      dxz     :     0.006651
      dyz     :     0.004224
      dx2y2   :     0.012862
      dxy     :     0.009462

 13 C s       :     3.198849  s :     3.198849
      pz      :     1.063048  p :     2.871546
      px      :     0.853507
      py      :     0.954991
      dz2     :     0.004687  d :     0.045250
      dxz     :     0.008207
      dyz     :     0.006686
      dx2y2   :     0.011124
      dxy     :     0.014545

 14 S s       :     5.808833  s :     5.808833
      pz      :     3.599197  p :     9.830134
      px      :     2.943340
      py      :     3.287597
      dz2     :     0.013077  d :     0.103813
      dxz     :     0.019547
      dyz     :     0.012172
      dx2y2   :     0.015317
      dxy     :     0.043700

 15 S s       :     5.213097  s :     5.213097
      pz      :     3.017179  p :     9.028907
      px      :     3.040010
      py      :     2.971717
      dz2     :     0.089042  d :     0.537179
      dxz     :     0.118142
      dyz     :     0.123270
      dx2y2   :     0.100054
      dxy     :     0.106671

 16 O s       :     3.929972  s :     3.929972
      pz      :     1.258967  p :     4.587954
      px      :     1.691566
      py      :     1.637422
      dz2     :     0.009385  d :     0.027052
      dxz     :     0.006788
      dyz     :     0.007497
      dx2y2   :     0.001823
      dxy     :     0.001558

 17 O s       :     3.927246  s :     3.927246
      pz      :     1.646940  p :     4.598000
      px      :     1.568525
      py      :     1.382535
      dz2     :     0.003346  d :     0.026711
      dxz     :     0.002798
      dyz     :     0.005612
      dx2y2   :     0.007525
      dxy     :     0.007430

 18 C s       :     3.222273  s :     3.222273
      pz      :     1.004037  p :     2.864631
      px      :     0.883251
      py      :     0.977343
      dz2     :     0.003837  d :     0.038683
      dxz     :     0.006547
      dyz     :     0.007062
      dx2y2   :     0.011350
      dxy     :     0.009887

 19 C s       :     3.203196  s :     3.203196
      pz      :     0.959647  p :     2.895188
      px      :     0.924574
      py      :     1.010968
      dz2     :     0.004161  d :     0.035916
      dxz     :     0.005811
      dyz     :     0.006264
      dx2y2   :     0.010583
      dxy     :     0.009097

 20 C s       :     3.215125  s :     3.215125
      pz      :     0.940367  p :     2.891211
      px      :     0.960955
      py      :     0.989888
      dz2     :     0.005623  d :     0.035642
      dxz     :     0.004598
      dyz     :     0.005500
      dx2y2   :     0.008184
      dxy     :     0.011738

 21 C s       :     3.165455  s :     3.165455
      pz      :     0.961850  p :     2.713118
      px      :     0.876808
      py      :     0.874459
      dz2     :     0.004092  d :     0.038406
      dxz     :     0.006618
      dyz     :     0.006708
      dx2y2   :     0.010674
      dxy     :     0.010316

 22 C s       :     2.997122  s :     2.997122
      pz      :     0.810920  p :     2.364740
      px      :     0.875129
      py      :     0.678691
      dz2     :     0.010625  d :     0.110225
      dxz     :     0.013423
      dyz     :     0.022099
      dx2y2   :     0.038997
      dxy     :     0.025080

 23 O s       :     3.877980  s :     3.877980
      pz      :     1.510679  p :     4.541003
      px      :     1.489309
      py      :     1.541015
      dz2     :     0.002635  d :     0.025619
      dxz     :     0.004334
      dyz     :     0.004278
      dx2y2   :     0.006797
      dxy     :     0.007576

 24 O s       :     3.872397  s :     3.872397
      pz      :     1.653282  p :     4.730613
      px      :     1.564214
      py      :     1.513117
      dz2     :     0.001760  d :     0.020909
      dxz     :     0.005088
      dyz     :     0.003650
      dx2y2   :     0.008178
      dxy     :     0.002233

 25 C s       :     3.210791  s :     3.210791
      pz      :     0.957661  p :     2.899798
      px      :     0.945288
      py      :     0.996849
      dz2     :     0.003993  d :     0.035658
      dxz     :     0.005793
      dyz     :     0.006118
      dx2y2   :     0.010984
      dxy     :     0.008770

 26 C s       :     3.209613  s :     3.209613
      pz      :     0.947068  p :     2.908286
      px      :     0.997889
      py      :     0.963329
      dz2     :     0.005858  d :     0.035923
      dxz     :     0.004466
      dyz     :     0.005687
      dx2y2   :     0.008002
      dxy     :     0.011910

 27 N s       :     3.679104  s :     3.679104
      pz      :     1.349395  p :     3.689402
      px      :     1.264583
      py      :     1.075425
      dz2     :     0.005663  d :     0.035043
      dxz     :     0.005384
      dyz     :     0.008675
      dx2y2   :     0.007734
      dxy     :     0.007587

 28 C s       :     3.162769  s :     3.162769
      pz      :     0.970442  p :     2.843245
      px      :     0.972172
      py      :     0.900631
      dz2     :     0.006772  d :     0.053727
      dxz     :     0.005679
      dyz     :     0.015279
      dx2y2   :     0.010853
      dxy     :     0.015144

 29 C s       :     3.138075  s :     3.138075
      pz      :     0.902360  p :     2.679438
      px      :     0.908048
      py      :     0.869029
      dz2     :     0.007065  d :     0.041860
      dxz     :     0.005768
      dyz     :     0.010002
      dx2y2   :     0.009133
      dxy     :     0.009891

 30 C s       :     3.210558  s :     3.210558
      pz      :     0.980855  p :     2.956811
      px      :     0.983337
      py      :     0.992619
      dz2     :     0.005340  d :     0.036215
      dxz     :     0.005442
      dyz     :     0.008939
      dx2y2   :     0.007241
      dxy     :     0.009252

 31 C s       :     3.194007  s :     3.194007
      pz      :     0.958239  p :     2.894032
      px      :     0.955948
      py      :     0.979844
      dz2     :     0.007486  d :     0.036438
      dxz     :     0.005505
      dyz     :     0.006593
      dx2y2   :     0.010778
      dxy     :     0.006078

 32 C s       :     3.196385  s :     3.196385
      pz      :     0.970107  p :     2.886880
      px      :     0.963236
      py      :     0.953537
      dz2     :     0.004453  d :     0.036518
      dxz     :     0.006146
      dyz     :     0.009244
      dx2y2   :     0.007658
      dxy     :     0.009017

 33 C s       :     3.209287  s :     3.209287
      pz      :     0.994110  p :     2.947111
      px      :     0.995786
      py      :     0.957214
      dz2     :     0.004678  d :     0.035545
      dxz     :     0.005895
      dyz     :     0.009047
      dx2y2   :     0.006592
      dxy     :     0.009333

 34 C s       :     3.136641  s :     3.136641
      pz      :     0.903525  p :     2.704927
      px      :     0.913697
      py      :     0.887705
      dz2     :     0.007328  d :     0.041282
      dxz     :     0.005614
      dyz     :     0.009722
      dx2y2   :     0.009148
      dxy     :     0.009472

 35 H s       :     0.838358  s :     0.838358

 36 H s       :     0.828895  s :     0.828895

 37 H s       :     0.793999  s :     0.793999

 38 H s       :     0.809147  s :     0.809147

 39 H s       :     0.822518  s :     0.822518

 40 H s       :     0.836744  s :     0.836744

 41 H s       :     0.851731  s :     0.851731

 42 H s       :     0.860199  s :     0.860199

 43 H s       :     0.853714  s :     0.853714

 44 H s       :     0.811436  s :     0.811436

 45 H s       :     0.819506  s :     0.819506

 46 H s       :     0.566246  s :     0.566246

 47 H s       :     0.828055  s :     0.828055

 48 H s       :     0.816006  s :     0.816006

 49 H s       :     0.848764  s :     0.848764

 50 H s       :     0.861529  s :     0.861529

 51 H s       :     0.863233  s :     0.863233

 52 H s       :     0.860868  s :     0.860868

 53 H s       :     0.855039  s :     0.855039



                     *******************************
                     * LOEWDIN POPULATION ANALYSIS *
                     *******************************

----------------------
LOEWDIN ATOMIC CHARGES
----------------------
   0 C :   -0.361713
   1 C :    0.011568
   2 C :    0.020428
   3 N :   -0.279966
   4 C :   -0.146852
   5 C :   -0.185833
   6 C :   -0.161629
   7 C :   -0.051357
   8 C :   -0.084804
   9 Cl:    0.037918
  10 C :   -0.140851
  11 C :   -0.128519
  12 C :   -0.132045
  13 C :   -0.167022
  14 S :    0.401369
  15 S :    1.263393
  16 O :   -0.566443
  17 O :   -0.575317
  18 C :   -0.176071
  19 C :   -0.095341
  20 C :   -0.085236
  21 C :   -0.039587
  22 C :    0.179859
  23 O :   -0.260821
  24 O :   -0.334965
  25 C :   -0.100253
  26 C :   -0.109537
  27 N :   -0.141396
  28 C :   -0.064899
  29 C :   -0.026609
  30 C :   -0.112889
  31 C :   -0.123332
  32 C :   -0.116098
  33 C :   -0.116488
  34 C :   -0.005859
  35 H :    0.137253
  36 H :    0.143509
  37 H :    0.153366
  38 H :    0.147188
  39 H :    0.148343
  40 H :    0.149731
  41 H :    0.143021
  42 H :    0.139028
  43 H :    0.141745
  44 H :    0.161992
  45 H :    0.160501
  46 H :    0.349520
  47 H :    0.154310
  48 H :    0.159370
  49 H :    0.136316
  50 H :    0.136812
  51 H :    0.135859
  52 H :    0.137309
  53 H :    0.142027

-------------------------------
LOEWDIN REDUCED ORBITAL CHARGES
-------------------------------
  0 C s       :     2.972854  s :     2.972854
      pz      :     1.111126  p :     3.323040
      px      :     1.091107
      py      :     1.120807
      dz2     :     0.020447  d :     0.065819
      dxz     :     0.007612
      dyz     :     0.008126
      dx2y2   :     0.019002
      dxy     :     0.010632

  1 C s       :     2.890623  s :     2.890623
      pz      :     0.983264  p :     3.000116
      px      :     0.976533
      py      :     1.040320
      dz2     :     0.017094  d :     0.097693
      dxz     :     0.014117
      dyz     :     0.021242
      dx2y2   :     0.023420
      dxy     :     0.021821

  2 C s       :     2.846293  s :     2.846293
      pz      :     1.026027  p :     2.956629
      px      :     1.020454
      py      :     0.910148
      dz2     :     0.027763  d :     0.176651
      dxz     :     0.022593
      dyz     :     0.036969
      dx2y2   :     0.046790
      dxy     :     0.042536

  3 N s       :     3.177748  s :     3.177748
      pz      :     1.326393  p :     4.016185
      px      :     1.503330
      py      :     1.186462
      dz2     :     0.016809  d :     0.086033
      dxz     :     0.011427
      dyz     :     0.025676
      dx2y2   :     0.014460
      dxy     :     0.017661

  4 C s       :     2.915482  s :     2.915482
      pz      :     0.975734  p :     3.109980
      px      :     1.023669
      py      :     1.110577
      dz2     :     0.033858  d :     0.121390
      dxz     :     0.030180
      dyz     :     0.017912
      dx2y2   :     0.027217
      dxy     :     0.012223

  5 C s       :     2.931800  s :     2.931800
      pz      :     1.051444  p :     3.153045
      px      :     1.039464
      py      :     1.062137
      dz2     :     0.009278  d :     0.100988
      dxz     :     0.012459
      dyz     :     0.015047
      dx2y2   :     0.027117
      dxy     :     0.037087

  6 C s       :     2.914877  s :     2.914877
      pz      :     1.042830  p :     3.159686
      px      :     1.045144
      py      :     1.071711
      dz2     :     0.006362  d :     0.087066
      dxz     :     0.013761
      dyz     :     0.009302
      dx2y2   :     0.029380
      dxy     :     0.028261

  7 C s       :     2.847266  s :     2.847266
      pz      :     1.005588  p :     3.087601
      px      :     1.044444
      py      :     1.037570
      dz2     :     0.010064  d :     0.116490
      dxz     :     0.017983
      dyz     :     0.015097
      dx2y2   :     0.037771
      dxy     :     0.035576

  8 C s       :     2.911668  s :     2.911668
      pz      :     1.033962  p :     3.060934
      px      :     1.088681
      py      :     0.938291
      dz2     :     0.008793  d :     0.112201
      dxz     :     0.015752
      dyz     :     0.015036
      dx2y2   :     0.037055
      dxy     :     0.035564

  9 Cls       :     5.801385  s :     5.801385
      pz      :     3.868733  p :    11.127814
      px      :     3.909220
      py      :     3.349862
      dz2     :     0.004574  d :     0.032883
      dxz     :     0.000917
      dyz     :     0.009416
      dx2y2   :     0.011991
      dxy     :     0.005984

 10 C s       :     2.922223  s :     2.922223
      pz      :     1.012151  p :     3.135934
      px      :     1.054606
      py      :     1.069177
      dz2     :     0.008394  d :     0.082694
      dxz     :     0.010703
      dyz     :     0.009293
      dx2y2   :     0.023767
      dxy     :     0.030536

 11 C s       :     2.918185  s :     2.918185
      pz      :     1.001825  p :     3.126285
      px      :     1.069925
      py      :     1.054535
      dz2     :     0.006823  d :     0.084048
      dxz     :     0.007032
      dyz     :     0.014070
      dx2y2   :     0.030220
      dxy     :     0.025904

 12 C s       :     2.909751  s :     2.909751
      pz      :     1.010388  p :     3.136296
      px      :     1.051168
      py      :     1.074740
      dz2     :     0.006324  d :     0.085998
      dxz     :     0.015108
      dyz     :     0.007462
      dx2y2   :     0.031363
      dxy     :     0.025741

 13 C s       :     2.895194  s :     2.895194
      pz      :     1.051987  p :     3.159856
      px      :     1.056633
      py      :     1.051236
      dz2     :     0.009912  d :     0.111972
      dxz     :     0.017861
      dyz     :     0.014679
      dx2y2   :     0.030415
      dxy     :     0.039104

 14 S s       :     5.515671  s :     5.515671
      pz      :     3.589286  p :     9.962330
      px      :     2.981990
      py      :     3.391053
      dz2     :     0.015500  d :     0.120630
      dxz     :     0.023088
      dyz     :     0.012742
      dx2y2   :     0.017439
      dxy     :     0.051861

 15 S s       :     5.102974  s :     5.102974
      pz      :     2.982381  p :     8.953949
      px      :     3.009000
      py      :     2.962568
      dz2     :     0.111467  d :     0.679684
      dxz     :     0.149414
      dyz     :     0.156831
      dx2y2   :     0.122519
      dxy     :     0.139453

 16 O s       :     3.711711  s :     3.711711
      pz      :     1.396360  p :     4.798871
      px      :     1.720781
      py      :     1.681731
      dz2     :     0.020890  d :     0.055860
      dxz     :     0.011538
      dyz     :     0.017473
      dx2y2   :     0.003021
      dxy     :     0.002939

 17 O s       :     3.710108  s :     3.710108
      pz      :     1.678999  p :     4.809665
      px      :     1.631529
      py      :     1.499137
      dz2     :     0.007984  d :     0.055543
      dxz     :     0.004585
      dyz     :     0.009525
      dx2y2   :     0.012688
      dxy     :     0.020761

 18 C s       :     2.931628  s :     2.931628
      pz      :     1.032072  p :     3.146123
      px      :     1.022901
      py      :     1.091149
      dz2     :     0.008448  d :     0.098320
      dxz     :     0.015714
      dyz     :     0.016739
      dx2y2   :     0.030346
      dxy     :     0.027073

 19 C s       :     2.916933  s :     2.916933
      pz      :     0.983256  p :     3.093359
      px      :     1.036329
      py      :     1.073774
      dz2     :     0.008505  d :     0.085049
      dxz     :     0.014582
      dyz     :     0.012240
      dx2y2   :     0.025888
      dxy     :     0.023834

 20 C s       :     2.920125  s :     2.920125
      pz      :     0.970508  p :     3.082304
      px      :     1.054502
      py      :     1.057293
      dz2     :     0.010828  d :     0.082807
      dxz     :     0.011240
      dyz     :     0.013359
      dx2y2   :     0.020914
      dxy     :     0.026466

 21 C s       :     2.879950  s :     2.879950
      pz      :     0.990155  p :     3.060124
      px      :     1.009814
      py      :     1.060155
      dz2     :     0.009316  d :     0.099514
      dxz     :     0.015982
      dyz     :     0.016088
      dx2y2   :     0.029414
      dxy     :     0.028714

 22 C s       :     2.863448  s :     2.863448
      pz      :     0.842151  p :     2.704219
      px      :     0.979442
      py      :     0.882625
      dz2     :     0.023844  d :     0.252475
      dxz     :     0.028771
      dyz     :     0.048630
      dx2y2   :     0.090907
      dxy     :     0.060322

 23 O s       :     3.592939  s :     3.592939
      pz      :     1.502637  p :     4.617973
      px      :     1.532930
      py      :     1.582406
      dz2     :     0.006518  d :     0.049909
      dxz     :     0.006387
      dyz     :     0.006383
      dx2y2   :     0.011071
[...]
      dyz     :     0.008396
      dx2y2   :     0.016249
      dxy     :     0.005564

 25 C s       :     2.920083  s :     2.920083
      pz      :     0.986176  p :     3.096680
      px      :     1.038731
      py      :     1.071773
      dz2     :     0.008093  d :     0.083490
      dxz     :     0.014640
      dyz     :     0.011904
      dx2y2   :     0.026331
      dxy     :     0.022522

 26 C s       :     2.918873  s :     2.918873
      pz      :     0.982552  p :     3.105484
      px      :     1.066162
      py      :     1.056771
      dz2     :     0.011481  d :     0.085180
      dxz     :     0.011205
      dyz     :     0.014316
      dx2y2   :     0.020740
      dxy     :     0.027438

 27 N s       :     3.235491  s :     3.235491
      pz      :     1.351061  p :     3.826268
      px      :     1.281326
      py      :     1.193882
      dz2     :     0.010482  d :     0.079636
      dxz     :     0.009070
      dyz     :     0.020857
      dx2y2   :     0.019929
      dxy     :     0.019298

 28 C s       :     2.912298  s :     2.912298
      pz      :     1.009259  p :     3.029075
      px      :     1.010556
      py      :     1.009260
      dz2     :     0.015417  d :     0.123526
      dxz     :     0.011250
      dyz     :     0.035861
      dx2y2   :     0.026991
      dxy     :     0.034007

 29 C s       :     2.858687  s :     2.858687
      pz      :     1.006603  p :     3.059073
      px      :     1.004131
      py      :     1.048339
      dz2     :     0.017271  d :     0.108849
      dxz     :     0.014934
      dyz     :     0.025925
      dx2y2   :     0.025242
      dxy     :     0.025477

 30 C s       :     2.915861  s :     2.915861
      pz      :     1.027135  p :     3.112582
      px      :     1.026531
      py      :     1.058916
      dz2     :     0.011709  d :     0.084446
      dxz     :     0.011487
      dyz     :     0.021989
      dx2y2   :     0.017944
      dxy     :     0.021318

 31 C s       :     2.917312  s :     2.917312
      pz      :     1.023657  p :     3.120144
      px      :     1.021998
      py      :     1.074489
      dz2     :     0.016457  d :     0.085877
      dxz     :     0.015111
      dyz     :     0.016129
      dx2y2   :     0.022957
      dxy     :     0.015223

 32 C s       :     2.918217  s :     2.918217
      pz      :     1.020631  p :     3.112015
      px      :     1.018278
      py      :     1.073106
      dz2     :     0.010289  d :     0.085866
      dxz     :     0.011619
      dyz     :     0.021713
      dx2y2   :     0.020179
      dxy     :     0.022067

 33 C s       :     2.917440  s :     2.917440
      pz      :     1.023439  p :     3.116634
      px      :     1.025887
      py      :     1.067308
      dz2     :     0.010841  d :     0.082414
      dxz     :     0.011414
      dyz     :     0.021474
      dx2y2   :     0.017797
      dxy     :     0.020889

 34 C s       :     2.856011  s :     2.856011
      pz      :     1.005124  p :     3.044200
      px      :     1.003424
      py      :     1.035653
      dz2     :     0.017229  d :     0.105649
      dxz     :     0.014478
      dyz     :     0.024958
      dx2y2   :     0.024627
      dxy     :     0.024356

 35 H s       :     0.862747  s :     0.862747

 36 H s       :     0.856491  s :     0.856491

 37 H s       :     0.846634  s :     0.846634

 38 H s       :     0.852812  s :     0.852812

 39 H s       :     0.851657  s :     0.851657

 40 H s       :     0.850269  s :     0.850269

 41 H s       :     0.856979  s :     0.856979

 42 H s       :     0.860972  s :     0.860972

 43 H s       :     0.858255  s :     0.858255

 44 H s       :     0.838008  s :     0.838008

 45 H s       :     0.839499  s :     0.839499

 46 H s       :     0.650480  s :     0.650480

 47 H s       :     0.845690  s :     0.845690

 48 H s       :     0.840630  s :     0.840630

 49 H s       :     0.863684  s :     0.863684

 50 H s       :     0.863188  s :     0.863188

 51 H s       :     0.864141  s :     0.864141

 52 H s       :     0.862691  s :     0.862691

 53 H s       :     0.857973  s :     0.857973



                      *****************************
                      * MAYER POPULATION ANALYSIS *
                      *****************************

  NA   - Mulliken gross atomic population
  ZA   - Total nuclear charge
  QA   - Mulliken gross atomic charge
  VA   - Mayer's total valence
  BVA  - Mayer's bonded valence
  FA   - Mayer's free valence

  ATOM       NA         ZA         QA         VA         BVA        FA
  0 C      6.5495     6.0000    -0.5495     3.8237     3.8237    -0.0000
  1 C      5.8635     6.0000     0.1365     3.8787     3.8787    -0.0000
  2 C      5.6978     6.0000     0.3022     3.8667     3.8667    -0.0000
  3 N      7.6057     7.0000    -0.6057     2.7851     2.7851    -0.0000
  4 C      6.2113     6.0000    -0.2113     3.8387     3.8387     0.0000
  5 C      6.1172     6.0000    -0.1172     3.8183     3.8183     0.0000
  6 C      6.1676     6.0000    -0.1676     3.8815     3.8815     0.0000
  7 C      5.8493     6.0000     0.1507     4.0852     4.0852    -0.0000
  8 C      6.1265     6.0000    -0.1265     3.8844     3.8844    -0.0000
  9 Cl    17.0075    17.0000    -0.0075     1.1122     1.1122    -0.0000
 10 C      6.1548     6.0000    -0.1548     3.9198     3.9198     0.0000
 11 C      6.1091     6.0000    -0.1091     3.9261     3.9261     0.0000
 12 C      6.1749     6.0000    -0.1749     3.9215     3.9215     0.0000
 13 C      6.1156     6.0000    -0.1156     3.8732     3.8732    -0.0000
 14 S     15.7428    16.0000     0.2572     2.3965     2.3965    -0.0000
 15 S     14.7792    16.0000     1.2208     5.0690     5.0690     0.0000
 16 O      8.5450     8.0000    -0.5450     1.8879     1.8879     0.0000
 17 O      8.5520     8.0000    -0.5520     1.8832     1.8832    -0.0000
 18 C      6.1256     6.0000    -0.1256     3.8312     3.8312    -0.0000
 19 C      6.1343     6.0000    -0.1343     3.9111     3.9111    -0.0000
 20 C      6.1420     6.0000    -0.1420     3.9011     3.9011     0.0000
 21 C      5.9170     6.0000     0.0830     3.9262     3.9262     0.0000
 22 C      5.4721     6.0000     0.5279     3.9534     3.9534     0.0000
 23 O      8.4446     8.0000    -0.4446     2.0672     2.0672    -0.0000
 24 O      8.6239     8.0000    -0.6239     1.8682     1.8682    -0.0000
 25 C      6.1462     6.0000    -0.1462     3.8655     3.8655     0.0000
 26 C      6.1538     6.0000    -0.1538     3.9209     3.9209     0.0000
 27 N      7.4035     7.0000    -0.4035     2.9600     2.9600    -0.0000
 28 C      6.0597     6.0000    -0.0597     3.8653     3.8653     0.0000
 29 C      5.8594     6.0000     0.1406     3.9656     3.9656    -0.0000
 30 C      6.2036     6.0000    -0.2036     3.9005     3.9005     0.0000
 31 C      6.1245     6.0000    -0.1245     3.9271     3.9271     0.0000
 32 C      6.1198     6.0000    -0.1198     3.9248     3.9248    -0.0000
 33 C      6.1919     6.0000    -0.1919     3.8739     3.8739     0.0000
 34 C      5.8829     6.0000     0.1171     3.9970     3.9970    -0.0000
 35 H      0.8384     1.0000     0.1616     0.9308     0.9308    -0.0000
 36 H      0.8289     1.0000     0.1711     0.9290     0.9290     0.0000
 37 H      0.7940     1.0000     0.2060     0.9303     0.9303     0.0000
 38 H      0.8091     1.0000     0.1909     0.9243     0.9243     0.0000
 39 H      0.8225     1.0000     0.1775     0.9379     0.9379     0.0000
 40 H      0.8367     1.0000     0.1633     0.9401     0.9401     0.0000
 41 H      0.8517     1.0000     0.1483     0.9398     0.9398     0.0000
 42 H      0.8602     1.0000     0.1398     0.9370     0.9370    -0.0000
 43 H      0.8537     1.0000     0.1463     0.9355     0.9355     0.0000
 44 H      0.8114     1.0000     0.1886     0.9370     0.9370    -0.0000
 45 H      0.8195     1.0000     0.1805     0.9387     0.9387     0.0000
 46 H      0.5662     1.0000     0.4338     0.7958     0.7958     0.0000
 47 H      0.8281     1.0000     0.1719     0.9364     0.9364     0.0000
 48 H      0.8160     1.0000     0.1840     0.9378     0.9378    -0.0000
 49 H      0.8488     1.0000     0.1512     0.9350     0.9350     0.0000
 50 H      0.8615     1.0000     0.1385     0.9371     0.9371     0.0000
 51 H      0.8632     1.0000     0.1368     0.9365     0.9365     0.0000
 52 H      0.8609     1.0000     0.1391     0.9362     0.9362    -0.0000
 53 H      0.8550     1.0000     0.1450     0.9418     0.9418     0.0000

  Mayer bond orders larger than 0.100000
B(  0-C ,  1-C ) :   1.0088 B(  0-C , 35-H ) :   0.9226 B(  0-C , 36-H ) :   0.9231 
B(  0-C , 37-H ) :   0.9139 B(  1-C ,  2-C ) :   1.4322 B(  1-C , 34-C ) :   1.2621 
B(  2-C ,  3-N ) :   0.8865 B(  2-C , 27-N ) :   1.2792 B(  3-N ,  4-C ) :   0.9263 
B(  3-N , 15-S ) :   0.8050 B(  4-C ,  5-C ) :   0.9763 B(  4-C , 38-H ) :   0.9154 
B(  4-C , 39-H ) :   0.9167 B(  5-C ,  6-C ) :   1.5643 B(  5-C , 14-S ) :   1.1128 
B(  6-C ,  7-C ) :   1.2602 B(  6-C , 40-H ) :   0.9105 B(  7-C ,  8-C ) :   1.2794 
B(  7-C , 13-C ) :   1.3352 B(  8-C ,  9-Cl) :   1.0318 B(  8-C , 10-C ) :   1.4433 
B( 10-C , 11-C ) :   1.3857 B( 10-C , 41-H ) :   0.9243 B( 11-C , 12-C ) :   1.4855 
B( 11-C , 42-H ) :   0.9292 B( 12-C , 13-C ) :   1.3378 B( 12-C , 43-H ) :   0.9236 
B( 13-C , 14-S ) :   1.0583 B( 15-S , 16-O ) :   1.6440 B( 15-S , 17-O ) :   1.6166 
B( 15-S , 18-C ) :   0.8121 B( 18-C , 19-C ) :   1.3786 B( 18-C , 26-C ) :   1.4001 
B( 19-C , 20-C ) :   1.4315 B( 19-C , 44-H ) :   0.9057 B( 20-C , 21-C ) :   1.3961 
B( 20-C , 45-H ) :   0.9098 B( 21-C , 22-C ) :   1.0083 B( 21-C , 25-C ) :   1.3887 
B( 22-C , 23-O ) :   1.8629 B( 22-C , 24-O ) :   1.0245 B( 24-O , 46-H ) :   0.7421 
B( 25-C , 26-C ) :   1.4094 B( 25-C , 47-H ) :   0.9151 B( 26-C , 48-H ) :   0.9093 
B( 27-N , 28-C ) :   1.4914 B( 28-C , 29-C ) :   1.2427 B( 28-C , 49-H ) :   0.9263 
B( 29-C , 30-C ) :   1.2835 B( 29-C , 34-C ) :   1.2912 B( 30-C , 31-C ) :   1.5125 
B( 30-C , 33-C ) :   0.1061 B( 30-C , 50-H ) :   0.9234 B( 31-C , 32-C ) :   1.3529 
B( 31-C , 51-H ) :   0.9291 B( 32-C , 33-C ) :   1.5074 B( 32-C , 52-H ) :   0.9288 
B( 33-C , 34-C ) :   1.2970 B( 33-C , 53-H ) :   0.9149 

-------
TIMINGS
-------

Total SCF time: 0 days 0 hours 6 min 51 sec 

Total time                  ....     411.309 sec
Sum of individual times     ....     411.039 sec  ( 99.9%)

SCF preparation             ....       0.336 sec  (  0.1%)
Fock matrix formation       ....     407.910 sec  ( 99.2%)
  Startup                   ....       0.107 sec  (  0.0% of F)
  Split-RI-J                ....      56.236 sec  ( 13.8% of F)
  Chain of spheres X        ....     317.328 sec  ( 77.8% of F)
  XC integration            ....      33.178 sec  (  8.1% of F)
    XC Preparation          ....       0.000 sec  (  0.0% of XC)
    Basis function eval.    ....      12.905 sec  ( 38.9% of XC)
    Density eval.           ....       7.979 sec  ( 24.1% of XC)
    XC-Functional eval.     ....       1.381 sec  (  4.2% of XC)
    XC-Potential eval.      ....       8.964 sec  ( 27.0% of XC)
Diagonalization             ....       0.000 sec  (  0.0%)
Density matrix formation    ....       0.384 sec  (  0.1%)
Total Energy calculation    ....       0.089 sec  (  0.0%)
Population analysis         ....       0.069 sec  (  0.0%)
Orbital Transformation      ....       0.413 sec  (  0.1%)
Orbital Orthonormalization  ....       0.000 sec  (  0.0%)
DIIS solution               ....       1.205 sec  (  0.3%)
SOSCF solution              ....       0.634 sec  (  0.2%)
Finished LeanSCF after 411.4 sec

Maximum memory used throughout the entire LEANSCF-calculation: 97.0 MB

-------------------------   --------------------
FINAL SINGLE POINT ENERGY     -2668.051787770627
-------------------------   --------------------


------------------------------------------------------------------------------
                              ORCA PROPERTY CALCULATIONS
------------------------------------------------------------------------------

GBWName                                 ... /home/nmrbox/aojoawo/Documents/ERDOS/inputs/CHEMBL3687367.gbw
Number of atoms                         ...     54
Number of basis functions               ...    540
Max core memory                         ...   1024 MB

Electric properties:
Dipole moment                           ... YES
Quadrupole moment                       ...  NO
Static polarizability (Dipole/Dipole)   ...  NO
Static polarizability (Dipole/Quad.)    ...  NO
Static polarizability (Quad./Quad.)     ...  NO
Static polarizability (Velocity)        ...  NO

Atomic electric properties:
Dipole moment                           ...  NO
Quadrupole moment                       ...  NO
Static polarizability                   ...  NO

Choice of electric origin               ... Center of mass
Position of electric origin             ...    -0.050146     0.411781    -0.232645

General magnetic properties:
Magnetizability                         ...  NO

EPR properties:
g-Tensor (aka g-matrix)                 ...  NO
Zero-Field splitting spin-orbit         ...  NO
Zero-field splitting spin-spin          ...  NO
Hyperfine couplings                     ...  NO (   0 nuclei)
Quadrupole couplings                    ...  NO (   0 nuclei)
Contact density                         ...  NO (   0 nuclei)

NMR properties:
Chemical shifts                         ...  NO (   0 nuclei)
Spin-rotation constants                 ...  NO (   0 nuclei)
Spin-spin couplings                     ...  NO (   0 nuclei,    0 pairs)

Choice of magnetic origin               ... GIAO
Position of magnetic origin             ...     0.000000     0.000000     0.000000

Properties with geometric perturbations:
SCF Hessian                             ...  NO
IR spectrum                             ...  NO
VCD spectrum                            ...  NO
X-ray spectroscopy properties:
SCF XES/XAS/RIXS spectra                ...  NO


-------------
DIPOLE MOMENT
-------------

Method             : SCF
Type of density    : Electron Density
Multiplicity       :   1
Irrep              :   0
Energy             : -2668.0517877706274703 Eh
Relativity type    : 
Basis              : AO
                                X                 Y                 Z
Electronic contribution:     -2.803253131       3.955149183      -8.564741809
Nuclear contribution   :      2.323391040      -4.459888935       7.708964769
                        -----------------------------------------
Total Dipole Moment    :     -0.479862091      -0.504739752      -0.855777040
                        -----------------------------------------
Magnitude (a.u.)       :      1.103351343
Magnitude (Debye)      :      2.804496237



--------------------
Rotational spectrum 
--------------------
 
Rotational constants in cm-1:             0.004954             0.001989             0.001630 
Rotational constants in MHz :           148.526329            59.622758            48.881004 

Dipole components along the rotational axes: 
x,y,z [a.u.] :    -0.567322    -0.080596    -0.942886 
x,y,z [Debye]:    -1.442019    -0.204858    -2.396626 

 

Dipole moment calculation done in   0.0 sec 

Maximum memory used throughout the entire PROP-calculation: 47.8 MB

--------------------------------
SUGGESTED CITATIONS FOR THIS RUN
--------------------------------

Below you find a list of papers that are relevant to this ORCA run
We neither can nor want to force you to cite these papers, but we appreciate if you do
You receive ORCA, which is the product of decades of hard work by many enthusiastic individuals, for free
The only thing we kindly ask in return is that you cite our papers,
We deeply appreciate it, if you show your appreciation for ORCA by not just citing the generic ORCA reference.

Please note that relegating all ORCA citations to the supporting information does *not* help us.
SI sections are not indexed - citations you put there will not count into any citation statistics
But we need these citations in order to attract the funding resources that allow us to do what we are doing

Therefore, if you are a happy ORCA user, please consider citing a few of the papers listed below in the main body of your paper

In addition to the list printed below, the program has created the file /home/nmrbox/aojoawo/Documents/ERDOS/inputs/CHEMBL3687367.bibtex that contains the list in bibtex format
You can import this file easily into all common literature databanks and citation aid programs


List of essential papers. We consider these as the minimum necessary citations

  1. Neese,F.
     Software update: the ORCA program system, version 5.0
     WIRES Comput. Molec. Sci., 2022 12(1)e1606
     doi.org/10.1002/wcms.1606

List of papers to cite with high priority. The work reported in these papers was absolutely
necessary for this run to complete.
Our perspective: the developers of density functionals and basis sets usually get cited in chemistry papers
Good! But without the algorithms to do something with them, the functionals or basis sets would not do anything.
Hence, in our opinion, the algorithm design and method developments papers are equally worthy of getting cited

  1. Neese,F.
     An improvement of the resolution of the identity approximation for the formation of the Coulomb matrix
     J. Comp. Chem., 2003 24(14)1740-1747
     doi.org/10.1002/jcc.10318
  2. Neese,F.; Wennmohs,F.; Hansen,A.; Becker,U.
     Efficient, approximate and parallel Hartree-Fock and hybrid DFT calculations. A 'chain-of-spheres' algorithm for the Hartree-Fock exchange
     Chem. Phys., 2009 356(1-3)98-109
     doi.org/10.1016/j.chemphys.2008.10.036
  3. Helmich-Paris,B.; de Souza,B.; Neese,F.; Izsák,R.
     An improved chain of spheres for exchange algorithm
     J. Chem. Phys., 2021 155 104109
     doi.org/doi: 10.1063/5.0058766.
  4. Neese,F.
     The SHARK Integral Generation and Digestion System
     J. Comp. Chem., 2022  1-16
     doi.org/10.1002/jcc.26942

List of suggested additional citations. These are papers that are important in the 'surrounding' of 
of this run, or papers that preceded the highly important papers. If you like your results we are grateful for a citation.

  1. Izsak,R.; Neese,F.
     An overlap fitted chain of spheres exchange method
     J. Chem. Phys., 2011 135 144105
     doi.org/10.1063/1.3646921
  2. Izsak,R.; Hansen,A.; Neese,F.
     The resolution of identity and chain of spheres approximations for the LPNO-CCSD singles Fock term
     Molec. Phys., 2012 110 2413-2417
     doi.org/10.1080/00268976.2012.687466
  3. Neese,F.
     The ORCA program system
     WIRES Comput. Molec. Sci., 2012 2(1)73-78
     doi.org/10.1002/wcms.81
  4. Izsak,R.; Neese,F.; Klopper,W.
     Robust fitting techniques in the chain of spheres approximation to the Fock exchange: The role of the complementary space
     J. Chem. Phys., 2013 139 
     doi.org/10.1063/1.4819264
  5. Neese,F.
     Software update: the ORCA program system, version 4.0
     WIRES Comput. Molec. Sci., 2018 8(1)1-6
     doi.org/10.1002/wcms.1327
  6. Neese,F.; Wennmohs,F.; Becker,U.; Riplinger,C.
     The ORCA quantum chemistry program package
     J. Chem. Phys., 2020 152 Art. No. L224108
     doi.org/10.1063/5.0004608

List of optional additional citations

  1. Neese,F.
     Approximate second-order SCF convergence for spin unrestricted wavefunctions
     Chem. Phys. Lett., 2000 325(1-3)93-98
     doi.org/10.1016/s0009-2614(00)00662-x

Timings for individual modules:

Sum of individual times          ...      427.297 sec (=   7.122 min)
Startup calculation              ...       10.273 sec (=   0.171 min)   2.4 %
SCF iterations                   ...      416.852 sec (=   6.948 min)  97.6 %
Property calculations            ...        0.172 sec (=   0.003 min)   0.0 %
                             ****ORCA TERMINATED NORMALLY****
TOTAL RUN TIME: 0 days 0 hours 7 minutes 8 seconds 141 msec
