
                                 *****************
                                 * O   R   C   A *
                                 *****************

                                            #,                                       
                                            ###                                      
                                            ####                                     
                                            #####                                    
                                            ######                                   
                                           ########,                                 
                                     ,,################,,,,,                         
                               ,,#################################,,                 
                          ,,##########################################,,             
                       ,#########################################, ''#####,          
                    ,#############################################,,   '####,        
                  ,##################################################,,,,####,       
                ,###########''''           ''''###############################       
              ,#####''   ,,,,##########,,,,          '''####'''          '####       
            ,##' ,,,,###########################,,,                        '##       
           ' ,,###''''                  '''############,,,                           
         ,,##''                                '''############,,,,        ,,,,,,###''
      ,#''                                            '''#######################'''  
     '                                                          ''''####''''         
             ,#######,   #######,   ,#######,      ##                                
            ,#'     '#,  ##    ##  ,#'     '#,    #''#        ,####,   ,####,        
            ##       ##  ##   ,#'  ##            #'  '#       #'       #'  '#        
            ##       ##  #######   ##           ,######,      #####,   #    #        
            '#,     ,#'  ##    ##  '#,     ,#' ,#      #,     #,   #   #,  ,#        
             '#######'   ##     ##  '#######'  #'      '#     '####' # '####'        



                #########################################################
                #                        -***-                          #
                #          Department of theory and spectroscopy        #
                #                                                       #
                #                      Frank Neese                      #
                #                                                       #
                #     Directorship, Architecture, Infrastructure        #
                #                    SHARK, DRIVERS                     #
                #        Core code/Algorithms in most modules           #
                #                                                       #
                #        Max Planck Institute fuer Kohlenforschung      #
                #                Kaiser Wilhelm Platz 1                 #
                #                 D-45470 Muelheim/Ruhr                 #
                #                      Germany                          #
                #                                                       #
                #                  All rights reserved                  #
                #                        -***-                          #
                #########################################################


                         Program Version 6.0.0  -   RELEASE  -


 With contributions from (in alphabetic order):
   Daniel Aravena         : Magnetic Suceptibility
   Michael Atanasov       : Ab Initio Ligand Field Theory (pilot matlab implementation)
   Alexander A. Auer      : GIAO ZORA, VPT2 properties, NMR spectrum
   Ute Becker             : All parallelization in ORCA, NUMFREQ, NUMCALC
   Giovanni Bistoni       : ED, misc. LED, open-shell LED, HFLD
   Martin Brehm           : Molecular dynamics
   Dmytro Bykov           : pre 5.0 version of the SCF Hessian
   Marcos Casanova-Páez   : Triplet and SCS-CIS(D). UHF-(DLPNO)-IP/EA/STEOM-CCSD. UHF-CVS-IP/STEOM-CCSD
   Vijay G. Chilkuri      : MRCI spin determinant printing, contributions to CSF-ICE
   Pauline Colinet        : FMM embedding
   Dipayan Datta          : RHF DLPNO-CCSD density
   Achintya Kumar Dutta   : EOM-CC, STEOM-CC
   Nicolas Foglia         : Exact transition moments, OPA infrastructure, MCD improvements
   Dmitry Ganyushin       : Spin-Orbit,Spin-Spin,Magnetic field MRCI
   Miquel Garcia          : C-PCM and meta-GGA Hessian, CCSD/C-PCM, Gaussian charge scheme
   Tiago L. C. Gouveia    : GS-ROHF, GS-ROCIS
   Yang Guo               : DLPNO-NEVPT2, F12-NEVPT2, CIM, IAO-localization
   Andreas Hansen         : Spin unrestricted coupled pair/coupled cluster methods
   Ingolf Harden          : AUTO-CI MPn and infrastructure 
   Benjamin Helmich-Paris : MC-RPA, TRAH-(SCF,CASSCF), AVAS, COSX integrals, SCF dyn. polar.
   Lee Huntington         : MR-EOM, pCC
   Robert Izsak           : Overlap fitted RIJCOSX, COSX-SCS-MP3, EOM
   Riya Kayal             : Wick's Theorem for AUTO-CI, AUTO-CI UHF-CCSDT
   Emily Kempfer          : AUTO-CI, RHF CISDT and CCSDT
   Christian Kollmar      : KDIIS, OOCD, Brueckner-CCSD(T), CCSD density, CASPT2, CASPT2-K, improved NEVPT2
   Axel Koslowski         : Symmetry handling
   Simone Kossmann        : Meta GGA functionals, TD-DFT gradient, OOMP2, (MP2 Hessian; deprecated post 5.0)
   Lucas Lang             : DCDCAS
   Marvin Lechner         : AUTO-CI (C++ implementation), FIC-MRCC
   Spencer Leger          : CASSCF response
   Dagmar Lenk            : GEPOL surface, SMD, ORCA-2-JSON
   Dimitrios Liakos       : Extrapolation schemes; Compound Job, initial MDCI parallelization
   Dimitrios Manganas     : Further ROCIS development; embedding schemes. LFT, Crystal Embedding
   Dimitrios Pantazis     : SARC Basis sets
   Anastasios Papadopoulos: AUTO-CI, single reference methods and gradients
   Taras Petrenko         : pre 6.0 DFT Hessian and TD-DFT gradient, (ASA, deprecated), ECA, 1-Electron XAS/XES, NRVS
   Peter Pinski           : DLPNO-MP2, DLPNO-MP2 Gradient
   Christoph Reimann      : Effective Core Potentials
   Marius Retegan         : Local ZFS, SOC
   Christoph Riplinger    : Optimizer, TS searches, QM/MM, DLPNO-CCSD(T), (RO)-DLPNO pert. Triples
   Michael Roemelt        : Original ROCIS implementation
   Masaaki Saitow         : Open-shell DLPNO-CCSD energy and density
   Barbara Sandhoefer     : DKH picture change effects
   Kantharuban Sivalingam : CASSCF convergence/infrastructure, NEVPT2 and variants, FIC-MRCI
   Bernardo de Souza      : ESD, SOC TD-DFT
   Georgi Stoychev        : AutoAux, RI-MP2 NMR, DLPNO-MP2 response, X2C
   Van Anh Tran           : RI-MP2 g-tensors
   Willem Van den Heuvel  : Paramagnetic NMR
   Zikuan Wang            : NOTCH, Electric field optimization 
   Frank Wennmohs         : Technical directorship and infrastructure
   Hang Xu                : AUTO-CI-Response properties 


 We gratefully acknowledge several colleagues who have allowed us to
 interface, adapt or use parts of their codes:
   Stefan Grimme, W. Hujo, H. Kruse, P. Pracht,  : VdW corrections, initial TS optimization,
                  C. Bannwarth, S. Ehlert,         DFT functionals, gCP, sTDA/sTD-DF
                  L. Wittmann, M. Mueller
   Ed Valeev, F. Pavosevic, A. Kumar             : LibInt (2-el integral package), F12 methods
   Garnet Chan, S. Sharma, J. Yang, R. Olivares  : DMRG
   Ulf Ekstrom                                   : XCFun DFT Library
   Mihaly Kallay                                 : mrcc  (arbitrary order and MRCC methods)
   Frank Weinhold                                : gennbo (NPA and NBO analysis)
   Simon Mueller                                 : openCOSMO-RS
   Christopher J. Cramer and Donald G. Truhlar   : smd solvation model
   Lars Goerigk                                  : TD-DFT with DH, B97 family of functionals
   V. Asgeirsson, H. Jonsson                     : NEB implementation
   FAccTs GmbH                                   : IRC, NEB, NEB-TS, DLPNO-Multilevel, CI-OPT
                                                   MM, QMMM, 2- and 3-layer-ONIOM, Crystal-QMMM,
                                                   LR-CPCM, SF, NACMEs, symmetry and pop. for TD-DFT,
                                                   nearIR, NL-DFT gradient (VV10), updates on ESD,
                                                   ML-optimized integration grids, MBIS, APM,
                                                   GOAT, DOCKER, SOLVATOR, interface openCOSMO-RS
   S Lehtola, MJT Oliveira, MAL Marques          : LibXC Library
   Liviu Ungur et al                             : ANISO software


 Your calculation uses the libint2 library for the computation of 2-el integrals
 For citations please refer to: http://libint.valeyev.net

 Your ORCA version has been built with support for libXC version: 6.2.2
 For citations please refer to: https://libxc.gitlab.io

 This ORCA versions uses:
   CBLAS   interface :  Fast vector & matrix operations
   LAPACKE interface :  Fast linear algebra routines
   SCALAPACK package :  Parallel linear algebra routines
   Shared memory     :  Shared parallel matrices
   BLAS/LAPACK       :  OpenBLAS 0.3.27  USE64BITINT DYNAMIC_ARCH NO_AFFINITY SkylakeX SINGLE_THREADED
        Core in use  :  SkylakeX
   Copyright (c) 2011-2014, The OpenBLAS Project


Warning: RI is on but no J-basis has been assigned. Assigning Def2/J (nothing to worry about!)
================================================================================

----- Orbital basis set information -----
Your calculation utilizes the basis: 6-31G*
   H-He, Li-Ne : W. J. Hehre, R. Ditchfield and J.A. Pople, J. Chem. Phys. 56, 2257 (1972).
                 Note: He and Ne are unpublished basis sets taken from the Gaussian program.
                 Note: Li and B from J. D. Dill and J. A. Pople, J. Chem. Phys. 62, 2921 (1975).
   Na - Ar     : M. M. Francl, W. J. Pietro, W. J. Hehre, J. S. Binkley, M. S. Gordon, 
                 D. J. DeFrees and J. A. Pople, J. Chem. Phys. 77, 3654 (1982).
   K - Zn      : V. A. Rassolov, J. A. Pople, M. A. Ratner, and T. L. Windus, J. Chem. Phys. 109, 1223 (1998).

----- AuxJ basis set information -----
Your calculation utilizes the auxiliary basis: def2/J
   F. Weigend, Phys. Chem. Chem. Phys. 8, 1057 (2006).

================================================================================
                                        WARNINGS
                       Please study these warnings very carefully!
================================================================================


================================================================================
                                       INPUT FILE
================================================================================
NAME = /home/nmrbox/aojoawo/Documents/ERDOS/inputs/CHEMBL4208555.inp
|  1> ! B3LYP 6-31G* SP
|  2> 
|  3> * xyz 0 1
|  4> O -0.6729 0.9057 1.7033
|  5> C -1.2018 0.2058 0.7971
|  6> N -0.6331 -1.0668 0.4519
|  7> C 0.6827 -1.5129 0.9144
|  8> C 1.8385 -0.8242 0.1347
|  9> C 1.6523 -1.0203 -1.4037
| 10> C 1.5333 -2.4712 -1.8048
| 11> C 0.3186 -2.9794 -2.2970
| 12> C 0.2142 -4.3244 -2.6639
| 13> C 1.3208 -5.1701 -2.5487
| 14> C 2.5339 -4.6715 -2.0674
| 15> C 2.6426 -3.3275 -1.6979
| 16> N 1.9409 0.6057 0.5598
| 17> C 2.5145 1.5302 -0.4497
| 18> C 2.7664 2.9201 0.1467
| 19> C 3.8376 2.8740 1.2780
| 20> O 3.5059 3.8145 2.2745
| 21> C 5.2270 3.2724 0.7242
| 22> F 6.1807 3.1802 1.7243
| 23> F 5.6006 2.4476 -0.3230
| 24> F 5.2006 4.5797 0.2694
| 25> C 3.9187 1.4518 1.9066
| 26> C 2.5503 0.7505 1.9165
| 27> C -2.4926 0.6622 0.1334
| 28> C -3.6681 -0.1517 0.7112
| 29> C -3.7927 -0.2742 2.1143
| 30> C -4.8544 -0.9795 2.6856
| 31> C -5.8262 -1.5633 1.8719
| 32> Cl -7.1603 -2.4464 2.5921
| 33> C -5.7408 -1.4314 0.4851
| 34> C -4.6810 -0.7259 -0.0932
| 35> C -2.7609 2.1626 0.3430
| 36> C -3.5980 2.5975 -0.8514
| 37> C -3.2065 1.6743 -2.0014
| 38> C -2.3333 0.5728 -1.4005
| 39> H -1.2110 -1.7358 -0.1042
| 40> H 0.7582 -2.6133 0.7758
| 41> H 0.7653 -1.3443 2.0078
| 42> H 2.7863 -1.3436 0.4044
| 43> H 0.7648 -0.4513 -1.7517
| 44> H 2.5291 -0.6178 -1.9520
| 45> H -0.5461 -2.3361 -2.3999
| 46> H -0.7237 -4.7107 -3.0406
| 47> H 1.2383 -6.2107 -2.8345
| 48> H 3.3917 -5.3258 -1.9813
| 49> H 3.5902 -2.9536 -1.3304
| 50> H 1.7957 1.6559 -1.2870
| 51> H 3.4687 1.1285 -0.8542
| 52> H 3.0630 3.6196 -0.6646
| 53> H 1.7984 3.2964 0.5459
| 54> H 2.6453 3.5433 2.6878
| 55> H 4.3058 1.5186 2.9471
| 56> H 4.6237 0.8052 1.3393
| 57> H 1.8516 1.3305 2.5537
| 58> H 2.6857 -0.2277 2.4262
| 59> H -3.0663 0.1825 2.7743
| 60> H -4.9225 -1.0657 3.7629
| 61> H -6.5015 -1.8701 -0.1488
| 62> H -4.6781 -0.6357 -1.1675
| 63> H -1.8060 2.7366 0.3221
| 64> H -3.2806 2.3829 1.3018
| 65> H -4.6764 2.4661 -0.6151
| 66> H -3.4102 3.6636 -1.1041
| 67> H -4.1130 1.2439 -2.4782
| 68> H -2.6380 2.2376 -2.7735
| 69> H -1.2797 0.7960 -1.6835
| 70> H -2.5656 -0.4316 -1.8133
| 71> *
| 72> 
| 73>                          ****END OF INPUT****
================================================================================

                       ****************************
                       * Single Point Calculation *
                       ****************************

---------------------------------
CARTESIAN COORDINATES (ANGSTROEM)
---------------------------------
  O     -0.672900    0.905700    1.703300
  C     -1.201800    0.205800    0.797100
  N     -0.633100   -1.066800    0.451900
  C      0.682700   -1.512900    0.914400
  C      1.838500   -0.824200    0.134700
  C      1.652300   -1.020300   -1.403700
  C      1.533300   -2.471200   -1.804800
  C      0.318600   -2.979400   -2.297000
  C      0.214200   -4.324400   -2.663900
  C      1.320800   -5.170100   -2.548700
  C      2.533900   -4.671500   -2.067400
  C      2.642600   -3.327500   -1.697900
  N      1.940900    0.605700    0.559800
  C      2.514500    1.530200   -0.449700
  C      2.766400    2.920100    0.146700
  C      3.837600    2.874000    1.278000
  O      3.505900    3.814500    2.274500
  C      5.227000    3.272400    0.724200
  F      6.180700    3.180200    1.724300
  F      5.600600    2.447600   -0.323000
  F      5.200600    4.579700    0.269400
  C      3.918700    1.451800    1.906600
  C      2.550300    0.750500    1.916500
  C     -2.492600    0.662200    0.133400
  C     -3.668100   -0.151700    0.711200
  C     -3.792700   -0.274200    2.114300
  C     -4.854400   -0.979500    2.685600
  C     -5.826200   -1.563300    1.871900
  Cl    -7.160300   -2.446400    2.592100
  C     -5.740800   -1.431400    0.485100
  C     -4.681000   -0.725900   -0.093200
  C     -2.760900    2.162600    0.343000
  C     -3.598000    2.597500   -0.851400
  C     -3.206500    1.674300   -2.001400
  C     -2.333300    0.572800   -1.400500
  H     -1.211000   -1.735800   -0.104200
  H      0.758200   -2.613300    0.775800
  H      0.765300   -1.344300    2.007800
  H      2.786300   -1.343600    0.404400
  H      0.764800   -0.451300   -1.751700
  H      2.529100   -0.617800   -1.952000
  H     -0.546100   -2.336100   -2.399900
  H     -0.723700   -4.710700   -3.040600
  H      1.238300   -6.210700   -2.834500
  H      3.391700   -5.325800   -1.981300
  H      3.590200   -2.953600   -1.330400
  H      1.795700    1.655900   -1.287000
  H      3.468700    1.128500   -0.854200
  H      3.063000    3.619600   -0.664600
  H      1.798400    3.296400    0.545900
  H      2.645300    3.543300    2.687800
  H      4.305800    1.518600    2.947100
  H      4.623700    0.805200    1.339300
  H      1.851600    1.330500    2.553700
  H      2.685700   -0.227700    2.426200
  H     -3.066300    0.182500    2.774300
  H     -4.922500   -1.065700    3.762900
  H     -6.501500   -1.870100   -0.148800
  H     -4.678100   -0.635700   -1.167500
  H     -1.806000    2.736600    0.322100
  H     -3.280600    2.382900    1.301800
  H     -4.676400    2.466100   -0.615100
  H     -3.410200    3.663600   -1.104100
  H     -4.113000    1.243900   -2.478200
  H     -2.638000    2.237600   -2.773500
  H     -1.279700    0.796000   -1.683500
  H     -2.565600   -0.431600   -1.813300

----------------------------
CARTESIAN COORDINATES (A.U.)
----------------------------
  NO LB      ZA    FRAG     MASS         X           Y           Z
   0 O     8.0000    0    15.999   -1.271597    1.711525    3.218771
   1 C     6.0000    0    12.011   -2.271073    0.388906    1.506301
   2 N     7.0000    0    14.007   -1.196386   -2.015960    0.853967
   3 C     6.0000    0    12.011    1.290116   -2.858967    1.727966
   4 C     6.0000    0    12.011    3.474261   -1.557512    0.254546
   5 C     6.0000    0    12.011    3.122394   -1.928088   -2.652609
   6 C     6.0000    0    12.011    2.897517   -4.669891   -3.410578
   7 C     6.0000    0    12.011    0.602067   -5.630250   -4.340701
   8 C     6.0000    0    12.011    0.404779   -8.171932   -5.034041
   9 C     6.0000    0    12.011    2.495950   -9.770073   -4.816345
  10 C     6.0000    0    12.011    4.788377   -8.827856   -3.906820
  11 C     6.0000    0    12.011    4.993790   -6.288064   -3.208566
  12 N     7.0000    0    14.007    3.667769    1.144607    1.057869
  13 C     6.0000    0    12.011    4.751716    2.891659   -0.849810
  14 C     6.0000    0    12.011    5.227738    5.518189    0.277223
  15 C     6.0000    0    12.011    7.252013    5.431073    2.415070
  16 O     8.0000    0    15.999    6.625191    7.208360    4.298182
  17 C     6.0000    0    12.011    9.877599    6.183940    1.368540
  18 F     9.0000    0    18.998   11.679830    6.009707    3.258455
  19 F     9.0000    0    18.998   10.583600    4.625294   -0.610382
  20 F     9.0000    0    18.998    9.827710    8.654379    0.509092
  21 C     6.0000    0    12.011    7.405270    2.743504    3.602952
  22 C     6.0000    0    12.011    4.819369    1.418239    3.621660
  23 C     6.0000    0    12.011   -4.710331    1.251377    0.252089
  24 C     6.0000    0    12.011   -6.931704   -0.286671    1.343973
  25 C     6.0000    0    12.011   -7.167164   -0.518163    3.995448
  26 C     6.0000    0    12.011   -9.173487   -1.850987    5.075049
  27 C     6.0000    0    12.011  -11.009922   -2.954209    3.537378
  28 Cl   17.0000    0    35.453  -13.531006   -4.623026    4.898359
  29 C     6.0000    0    12.011  -10.848540   -2.704954    0.916706
  30 C     6.0000    0    12.011   -8.845808   -1.371752   -0.176122
  31 C     6.0000    0    12.011   -5.217345    4.086722    0.648176
  32 C     6.0000    0    12.011   -6.799235    4.908564   -1.608913
  33 C     6.0000    0    12.011   -6.059407    3.163968   -3.782098
  34 C     6.0000    0    12.011   -4.409298    1.082435   -2.646561
  35 H     1.0000    0     1.008   -2.288458   -3.280187   -0.196909
  36 H     1.0000    0     1.008    1.432790   -4.938421    1.466050
  37 H     1.0000    0     1.008    1.446207   -2.540359    3.794192
  38 H     1.0000    0     1.008    5.265344   -2.539036    0.764205
  39 H     1.0000    0     1.008    1.445263   -0.852833   -3.310233
  40 H     1.0000    0     1.008    4.779306   -1.167473   -3.688745
  41 H     1.0000    0     1.008   -1.031979   -4.414589   -4.535154
  42 H     1.0000    0     1.008   -1.367595   -8.901933   -5.745901
  43 H     1.0000    0     1.008    2.340048  -11.736522   -5.356429
  44 H     1.0000    0     1.008    6.409384  -10.064303   -3.744114
  45 H     1.0000    0     1.008    6.784495   -5.581495   -2.514092
  46 H     1.0000    0     1.008    3.393381    3.129198   -2.432078
  47 H     1.0000    0     1.008    6.554893    2.132556   -1.614204
  48 H     1.0000    0     1.008    5.788231    6.840053   -1.255912
  49 H     1.0000    0     1.008    3.398483    6.229293    1.031601
  50 H     1.0000    0     1.008    4.998893    6.695867    5.079206
  51 H     1.0000    0     1.008    8.136783    2.869738    5.569212
  52 H     1.0000    0     1.008    8.737527    1.521607    2.530910
  53 H     1.0000    0     1.008    3.499017    2.514281    4.825794
  54 H     1.0000    0     1.008    5.075237   -0.430291    4.584854
  55 H     1.0000    0     1.008   -5.794467    0.344875    5.242667
  56 H     1.0000    0     1.008   -9.302177   -2.013881    7.110850
  57 H     1.0000    0     1.008  -12.286054   -3.533977   -0.281191
  58 H     1.0000    0     1.008   -8.840328   -1.201299   -2.206255
  59 H     1.0000    0     1.008   -3.412845    5.171425    0.608681
  60 H     1.0000    0     1.008   -6.199436    4.503028    2.460045
  61 H     1.0000    0     1.008   -8.837115    4.660254   -1.162371
  62 H     1.0000    0     1.008   -6.444344    6.923201   -2.086447
  63 H     1.0000    0     1.008   -7.772444    2.350630   -4.683119
  64 H     1.0000    0     1.008   -4.985098    4.228451   -5.241155
  65 H     1.0000    0     1.008   -2.418283    1.504222   -3.181354
  66 H     1.0000    0     1.008   -4.848281   -0.815606   -3.426640

--------------------------------
INTERNAL COORDINATES (ANGSTROEM)
--------------------------------
 O      0   0   0     0.000000000000     0.00000000     0.00000000
 C      1   0   0     1.261266688690     0.00000000     0.00000000
 N      2   1   0     1.435999126044   119.89553319     0.00000000
 C      3   2   1     1.464322744480   123.36133369   348.19784111
 C      4   3   2     1.555028430608   111.99886887   283.71406736
 C      5   4   3     1.561985982652   110.46465424   306.02600796
 C      6   5   4     1.510017556189   113.05656092   304.46727861
 C      7   6   5     1.405711268362   120.56243850   111.79075565
 C      8   7   6     1.398048629340   120.27999767   180.13923194
 C      9   8   7     1.397513180618   120.09400804   359.70134052
 C     10   9   8     1.397090999184   119.99897183   359.94502278
 C     11  10   9     1.398099402761   120.10799498     0.12495563
 N      5   4   3     1.495262445191   109.38282690    72.41025780
 C     13   5   4     1.484185790257   115.38935755   206.62075830
 C     14  13   5     1.533286855093   111.32005536   188.28647468
 C     15  14  13     1.558664280722   111.61791928    63.94146426
 O     16  15  14     1.409814665124   109.36589883   214.95533961
 C     16  15  14     1.547853145489   110.46300185    97.44254533
 F     18  16  15     1.385007054134   110.03596585   182.22617395
 F     18  16  15     1.384377058463   111.07172261   302.64828283
 F     18  16  15     1.384403586387   110.08872653    62.99334794
 C     16  15  14     1.557038217257   110.84455276   335.96548530
 C     13   5   4     1.494312648009   112.25378806    74.39292186
 C      2   1   3     1.521500341768   120.17963821   175.91012697
 C     24   2   1     1.542104503592   108.96128893   257.28246941
 C     25  24   2     1.413938124530   118.99347379    49.10147284
 C     26  25  24     1.396795858384   121.10452654   178.76602280
 C     27  26  25     1.395466004602   120.13779320   359.12244683
 Cl    28  27  26     1.754530267622   120.04896853   180.10372423
 C     28  27  26     1.395673676043   119.81797595   359.47441885
 C     30  28  27     1.398333715534   120.33073820     0.48452834
 C     24   2   1     1.538543860278   112.39859526    18.60393188
 C     32  24   2     1.521994014443   105.52518213   152.84807389
 C     33  32  24     1.525801589329   106.10869780   331.27280004
 C     34  33  32     1.528679593636   106.63513067     9.47499069
 H      3   2   1     1.044402518189   118.45911197   163.97080027
 H      4   3   2     1.111661085943   108.85707834   163.12706946
 H      4   3   2     1.109401766719   109.38380895    48.25001196
 H      5   4   3     1.113929661155   107.72873868   190.26749858
 H      6   5   4     1.110189736036   109.85721890    68.09251377
 H      6   5   4     1.109692470913   110.29867444   185.69321802
 H      8   7   6     1.082649246063   120.57232729     0.32367020
 H      9   8   7     1.082029107742   119.97100058   179.89639306
 H     10   9   8     1.082282888158   119.98095055   180.08133902
 H     11  10   9     1.082285794049   119.99025451   180.20033367
 H     12  11  10     1.082960396321   119.31517625   180.25752122
 H     14  13   5     1.110650809211   109.45977778    69.86213305
 H     14  13   5     1.111521830645   110.74348416   309.91787288
 H     15  14  13     1.111521254858   109.29287225   187.63125659
 H     15  14  13     1.112648340672   107.64994303   302.71981320
 H     17  16  15     0.992471002095   108.42566558    64.13910773
 H     22  16  15     1.112182044451   109.93556070   205.16942601
 H     22  16  15     1.112180673272   110.98499756    87.05595420
 H     23  13   5     1.109326611057   108.37960685   235.24116414
 H     23  13   5     1.111306658848   112.38353753   351.89049926
 H     26  25  24     1.082511824416   120.61955525   359.04415091
 H     27  26  25     1.082886577625   119.66265475   179.48836101
 H     30  28  27     1.083028803864   120.02130972   180.94558798
 H     31  30  28     1.078083920667   117.15268180   181.42027906
 H     32  24   2     1.114336941863   110.50835092    36.31212489
 H     32  24   2     1.112617463462   113.07566596   274.69304267
 H     33  32  24     1.111777949952   109.44630751    89.60494995
 H     33  32  24     1.111618342778   111.07075549   210.00251895
 H     34  33  32     1.111001642663   110.39575655   129.94406699
 H     34  33  32     1.112042063053   110.36407171   249.74064644
 H     35  34  33     1.113543982068   107.22552609   255.55642392
 H     35  34  33     1.110489302065   112.71256544   138.62321106

---------------------------
INTERNAL COORDINATES (A.U.)
---------------------------
 O      0   0   0     0.000000000000     0.00000000     0.00000000
 C      1   0   0     2.383448623463     0.00000000     0.00000000
 N      2   1   0     2.713645076774   119.89553319     0.00000000
 C      3   2   1     2.767168958738   123.36133369   348.19784111
 C      4   3   2     2.938577864311   111.99886887   283.71406736
 C      5   4   3     2.951725732235   110.46465424   306.02600796
 C      6   5   4     2.853519638611   113.05656092   304.46727861
 C      7   6   5     2.656409320571   120.56243850   111.79075565
 C      8   7   6     2.641929031357   120.27999767   180.13923194
 C      9   8   7     2.640917179913   120.09400804   359.70134052
 C     10   9   8     2.640119372624   119.99897183   359.94502278
 C     11  10   9     2.642024979217   120.10799498     0.12495563
 N      5   4   3     2.825636519749   109.38282690    72.41025780
 C     13   5   4     2.804704675443   115.38935755   206.62075830
 C     14  13   5     2.897492240867   111.32005536   188.28647468
 C     15  14  13     2.945448625291   111.61791928    63.94146426
 O     16  15  14     2.664163616671   109.36589883   214.95533961
 C     16  15  14     2.925018540503   110.46300185    97.44254533
 F     18  16  15     2.617284025862   110.03596585   182.22617395
 F     18  16  15     2.616093506579   111.07172261   302.64828283
 F     18  16  15     2.616143637089   110.08872653    62.99334794
 C     16  15  14     2.942375810665   110.84455276   335.96548530
 C     13   5   4     2.823841663192   112.25378806    74.39292186
 C      2   1   3     2.875218958609   120.17963821   175.91012697
 C     24   2   1     2.914155181676   108.96128893   257.28246941
 C     25  24   2     2.671955825672   118.99347379    49.10147284
 C     26  25  24     2.639561637342   121.10452654   178.76602280
 C     27  26  25     2.637048577895   120.13779320   359.12244683
 Cl    28  27  26     3.315581699480   120.04896853   180.10372423
 C     28  27  26     2.637441020045   119.81797595   359.47441885
 C     30  28  27     2.642467766188   120.33073820     0.48452834
 C     24   2   1     2.907426540952   112.39859526    18.60393188
 C     32  24   2     2.876151864764   105.52518213   152.84807389
 C     33  32  24     2.883347138534   106.10869780   331.27280004
 C     34  33  32     2.888785778487   106.63513067     9.47499069
 H      3   2   1     1.973634732955   118.45911197   163.97080027
 H      4   3   2     2.100735006170   108.85707834   163.12706946
 H      4   3   2     2.096465511588   109.38380895    48.25001196
 H      5   4   3     2.105021992034   107.72873868   190.26749858
 H      6   5   4     2.097954557799   109.85721890    68.09251377
 H      6   5   4     2.097014862899   110.29867444   185.69321802
 H      8   7   6     2.045910574155   120.57232729     0.32367020
 H      9   8   7     2.044738682563   119.97100058   179.89639306
 H     10   9   8     2.045218258048   119.98095055   180.08133902
 H     11  10   9     2.045223749386   119.99025451   180.20033367
 H     12  11  10     2.046498562930   119.31517625   180.25752122
 H     14  13   5     2.098825859826   109.45977778    69.86213305
 H     14  13   5     2.100471851793   110.74348416   309.91787288
 H     15  14  13     2.100470763713   109.29287225   187.63125659
 H     15  14  13     2.102600647232   107.64994303   302.71981320
 H     17  16  15     1.875498389818   108.42566558    64.13910773
 H     22  16  15     2.101719475078   109.93556070   205.16942601
 H     22  16  15     2.101716883924   110.98499756    87.05595420
 H     23  13   5     2.096323487969   108.37960685   235.24116414
 H     23  13   5     2.100065236026   112.38353753   351.89049926
 H     26  25  24     2.045650884877   120.61955525   359.04415091
 H     27  26  25     2.046359065810   119.66265475   179.48836101
 H     30  28  27     2.046627834452   120.02130972   180.94558798
 H     31  30  28     2.037283359444   117.15268180   181.42027906
 H     32  24   2     2.105791641032   110.50835092    36.31212489
 H     32  24   2     2.102542297761   113.07566596   274.69304267
 H     33  32  24     2.100955847142   109.44630751    89.60494995
 H     33  32  24     2.100654233293   111.07075549   210.00251895
 H     34  33  32     2.099488838970   110.39575655   129.94406699
 H     34  33  32     2.101454948572   110.36407171   249.74064644
 H     35  34  33     2.104293164185   107.22552609   255.55642392
 H     35  34  33     2.098520655552   112.71256544   138.62321106

---------------------
BASIS SET INFORMATION
---------------------
There are 6 groups of distinct atoms

 Group   1 Type O   : 10s4p1d contracted to 3s2p1d pattern {631/31/1}
 Group   2 Type C   : 10s4p1d contracted to 3s2p1d pattern {631/31/1}
 Group   3 Type N   : 10s4p1d contracted to 3s2p1d pattern {631/31/1}
 Group   4 Type F   : 10s4p1d contracted to 3s2p1d pattern {631/31/1}
 Group   5 Type Cl  : 16s10p1d contracted to 4s3p1d pattern {6631/631/1}
 Group   6 Type H   : 4s contracted to 2s pattern {31}

Atom   0O    basis set group =>   1
Atom   1C    basis set group =>   2
Atom   2N    basis set group =>   3
Atom   3C    basis set group =>   2
Atom   4C    basis set group =>   2
Atom   5C    basis set group =>   2
Atom   6C    basis set group =>   2
Atom   7C    basis set group =>   2
Atom   8C    basis set group =>   2
Atom   9C    basis set group =>   2
Atom  10C    basis set group =>   2
Atom  11C    basis set group =>   2
Atom  12N    basis set group =>   3
Atom  13C    basis set group =>   2
Atom  14C    basis set group =>   2
Atom  15C    basis set group =>   2
Atom  16O    basis set group =>   1
Atom  17C    basis set group =>   2
Atom  18F    basis set group =>   4
Atom  19F    basis set group =>   4
Atom  20F    basis set group =>   4
Atom  21C    basis set group =>   2
Atom  22C    basis set group =>   2
Atom  23C    basis set group =>   2
Atom  24C    basis set group =>   2
Atom  25C    basis set group =>   2
Atom  26C    basis set group =>   2
Atom  27C    basis set group =>   2
Atom  28Cl   basis set group =>   5
Atom  29C    basis set group =>   2
Atom  30C    basis set group =>   2
Atom  31C    basis set group =>   2
Atom  32C    basis set group =>   2
Atom  33C    basis set group =>   2
Atom  34C    basis set group =>   2
Atom  35H    basis set group =>   6
Atom  36H    basis set group =>   6
Atom  37H    basis set group =>   6
Atom  38H    basis set group =>   6
Atom  39H    basis set group =>   6
Atom  40H    basis set group =>   6
Atom  41H    basis set group =>   6
Atom  42H    basis set group =>   6
Atom  43H    basis set group =>   6
Atom  44H    basis set group =>   6
Atom  45H    basis set group =>   6
Atom  46H    basis set group =>   6
Atom  47H    basis set group =>   6
Atom  48H    basis set group =>   6
Atom  49H    basis set group =>   6
Atom  50H    basis set group =>   6
Atom  51H    basis set group =>   6
Atom  52H    basis set group =>   6
Atom  53H    basis set group =>   6
Atom  54H    basis set group =>   6
Atom  55H    basis set group =>   6
Atom  56H    basis set group =>   6
Atom  57H    basis set group =>   6
Atom  58H    basis set group =>   6
Atom  59H    basis set group =>   6
Atom  60H    basis set group =>   6
Atom  61H    basis set group =>   6
Atom  62H    basis set group =>   6
Atom  63H    basis set group =>   6
Atom  64H    basis set group =>   6
Atom  65H    basis set group =>   6
Atom  66H    basis set group =>   6
---------------------------------
AUXILIARY/J BASIS SET INFORMATION
---------------------------------
There are 6 groups of distinct atoms

 Group   1 Type O   : 12s5p4d2f1g contracted to 6s4p3d1f1g pattern {711111/2111/211/2/1}
 Group   2 Type C   : 12s5p4d2f1g contracted to 6s4p3d1f1g pattern {711111/2111/211/2/1}
 Group   3 Type N   : 12s5p4d2f1g contracted to 6s4p3d1f1g pattern {711111/2111/211/2/1}
 Group   4 Type F   : 12s5p4d2f1g contracted to 6s4p3d1f1g pattern {711111/2111/211/2/1}
 Group   5 Type Cl  : 14s5p5d2f1g contracted to 8s4p3d1f1g pattern {71111111/2111/311/2/1}
 Group   6 Type H   : 5s2p1d contracted to 3s1p1d pattern {311/2/1}

Atom   0O    basis set group =>   1
Atom   1C    basis set group =>   2
Atom   2N    basis set group =>   3
Atom   3C    basis set group =>   2
Atom   4C    basis set group =>   2
Atom   5C    basis set group =>   2
Atom   6C    basis set group =>   2
Atom   7C    basis set group =>   2
Atom   8C    basis set group =>   2
Atom   9C    basis set group =>   2
Atom  10C    basis set group =>   2
Atom  11C    basis set group =>   2
Atom  12N    basis set group =>   3
Atom  13C    basis set group =>   2
Atom  14C    basis set group =>   2
Atom  15C    basis set group =>   2
Atom  16O    basis set group =>   1
Atom  17C    basis set group =>   2
Atom  18F    basis set group =>   4
Atom  19F    basis set group =>   4
Atom  20F    basis set group =>   4
Atom  21C    basis set group =>   2
Atom  22C    basis set group =>   2
Atom  23C    basis set group =>   2
Atom  24C    basis set group =>   2
Atom  25C    basis set group =>   2
Atom  26C    basis set group =>   2
Atom  27C    basis set group =>   2
Atom  28Cl   basis set group =>   5
Atom  29C    basis set group =>   2
Atom  30C    basis set group =>   2
Atom  31C    basis set group =>   2
Atom  32C    basis set group =>   2
Atom  33C    basis set group =>   2
Atom  34C    basis set group =>   2
Atom  35H    basis set group =>   6
Atom  36H    basis set group =>   6
Atom  37H    basis set group =>   6
Atom  38H    basis set group =>   6
Atom  39H    basis set group =>   6
Atom  40H    basis set group =>   6
Atom  41H    basis set group =>   6
Atom  42H    basis set group =>   6
Atom  43H    basis set group =>   6
Atom  44H    basis set group =>   6
Atom  45H    basis set group =>   6
Atom  46H    basis set group =>   6
Atom  47H    basis set group =>   6
Atom  48H    basis set group =>   6
Atom  49H    basis set group =>   6
Atom  50H    basis set group =>   6
Atom  51H    basis set group =>   6
Atom  52H    basis set group =>   6
Atom  53H    basis set group =>   6
Atom  54H    basis set group =>   6
Atom  55H    basis set group =>   6
Atom  56H    basis set group =>   6
Atom  57H    basis set group =>   6
Atom  58H    basis set group =>   6
Atom  59H    basis set group =>   6
Atom  60H    basis set group =>   6
Atom  61H    basis set group =>   6
Atom  62H    basis set group =>   6
Atom  63H    basis set group =>   6
Atom  64H    basis set group =>   6
Atom  65H    basis set group =>   6
Atom  66H    basis set group =>   6
------------------------------------------------------------------------------
                             ORCA STARTUP CALCULATIONS
                           -- RI-GTO INTEGRALS CHOSEN --
------------------------------------------------------------------------------
------------------------------------------------------------------------------
                   ___                                                        
                  /   \      - P O W E R E D   B Y -                         
                 /     \                                                     
                 |  |  |   _    _      __       _____    __    __             
                 |  |  |  | |  | |    /  \     |  _  \  |  |  /  |          
                  \  \/   | |  | |   /    \    | | | |  |  | /  /          
                 / \  \   | |__| |  /  /\  \   | |_| |  |  |/  /          
                |  |  |   |  __  | /  /__\  \  |    /   |      \           
                |  |  |   | |  | | |   __   |  |    \   |  |\   \          
                \     /   | |  | | |  |  |  |  | |\  \  |  | \   \       
                 \___/    |_|  |_| |__|  |__|  |_| \__\ |__|  \__/        
                                                                              
                      - O R C A' S   B I G   F R I E N D -                    
                                      &                                       
                       - I N T E G R A L  F E E D E R -                       
                                                                              
 v1 FN, 2020, v2 2021, v3 2022-2024                                           
------------------------------------------------------------------------------


----------------------
SHARK INTEGRAL PACKAGE
----------------------

Number of atoms                             ...     67
Number of basis functions                   ...    558
Number of shells                            ...    276
Maximum angular momentum                    ...      2
Integral batch strategy                     ... SHARK/LIBINT Hybrid
RI-J (if used) integral strategy            ... SPLIT-RIJ (Revised 2003 algorithm where possible)
Printlevel                                  ...      1
Contraction scheme used                     ... SEGMENTED contraction
Prescreening option                         ... SCHWARTZ
   Thresh                                   ... 1.000e-10
   Tcut                                     ... 1.000e-11
   Tpresel                                  ... 1.000e-11 
Coulomb Range Separation                    ... NOT USED
Exchange Range Separation                   ... NOT USED
Multipole approximations                    ... NOT USED
Finite Nucleus Model                        ... NOT USED
CABS basis                                  ... NOT available
Auxiliary Coulomb fitting basis             ... AVAILABLE
   # of basis functions in Aux-J            ...   2069
   # of shells in Aux-J                     ...    687
   Maximum angular momentum in Aux-J        ...      4
Auxiliary J/K fitting basis                 ... NOT available
Auxiliary Correlation fitting basis         ... NOT available
Auxiliary 'external' fitting basis          ... NOT available

Checking pre-screening integrals            ... done (  0.0 sec) Dimension = 276
Check shell pair data                       ... done (  0.0 sec)
Shell pair information
Shell pair cut-off parameter TPreSel        ...   1.0e-11
Total number of shell pairs                 ...     38226
Shell pairs after pre-screening             ...     21386
Total number of primitive shell pairs       ...    222306
Primitive shell pairs kept                  ...     62618
          la=0 lb=0:   7933 shell pairs
          la=1 lb=0:   7337 shell pairs
          la=1 lb=1:   1713 shell pairs
          la=2 lb=0:   2802 shell pairs
          la=2 lb=1:   1350 shell pairs
          la=2 lb=2:    251 shell pairs

Calculating one electron integrals          ... done (  0.4 sec)
Calculating RI/J V-Matrix + Cholesky decomp.... done (  0.6 sec)
Calculating Nuclear repulsion               ... done (  0.0 sec) ENN=   4013.039455151188 Eh

Diagonalization of the overlap matrix:
Smallest eigenvalue                        ... 4.654e-04
Time for diagonalization                   ...    0.056 sec
Threshold for overlap eigenvalues          ... 1.000e-07
Number of eigenvalues below threshold      ... 0
Time for construction of square roots      ...    0.041 sec
Total time needed                          ...    0.107 sec

-------------------
DFT GRID GENERATION
-------------------

General Integration Accuracy     IntAcc      ... 4.388
Radial Grid Type                 RadialGrid  ... OptM3 with GC (2021)
Angular Grid (max. ang.)         AngularGrid ... 4 (Lebedev-302)
Angular grid pruning method      GridPruning ... 4 (adaptive)
Weight generation scheme         WeightScheme... mBecke (2022)
Basis function cutoff            BFCut       ... 1.0000e-10
Integration weight cutoff        WCut        ... 1.0000e-14
Partially contracted basis set               ... off
Rotationally invariant grid construction     ... off
Angular grids for H and He will be reduced by one unit

Total number of grid points                  ...   309693
Total number of batches                      ...     4873
Average number of points per batch           ...       63
Average number of grid points per atom       ...     4622

--------------------
COSX GRID GENERATION
--------------------

GRIDX 1
-------
General Integration Accuracy     IntAcc      ... 3.816
Radial Grid Type                 RadialGrid  ... OptM3 with GC (2021)
Angular Grid (max. ang.)         AngularGrid ... 1 (Lebedev-50)
Angular grid pruning method      GridPruning ... 4 (adaptive)
Weight generation scheme         WeightScheme... mBecke (2022)
Basis function cutoff            BFCut       ... 1.0000e-10
Integration weight cutoff        WCut        ... 1.0000e-14
Partially contracted basis set               ... on
Rotationally invariant grid construction     ... off
Angular grids for H and He will be reduced by one unit

Total number of grid points                  ...    40263
Total number of batches                      ...      351
Average number of points per batch           ...      114
Average number of grid points per atom       ...      601
UseSFitting                                  ... on

GRIDX 2
-------
General Integration Accuracy     IntAcc      ... 4.020
Radial Grid Type                 RadialGrid  ... OptM3 with GC (2021)
Angular Grid (max. ang.)         AngularGrid ... 2 (Lebedev-110)
Angular grid pruning method      GridPruning ... 4 (adaptive)
Weight generation scheme         WeightScheme... mBecke (2022)
Basis function cutoff            BFCut       ... 1.0000e-10
Integration weight cutoff        WCut        ... 1.0000e-14
Partially contracted basis set               ... on
Rotationally invariant grid construction     ... off
Angular grids for H and He will be reduced by one unit

Total number of grid points                  ...    83557
Total number of batches                      ...      690
Average number of points per batch           ...      121
Average number of grid points per atom       ...     1247
UseSFitting                                  ... on

GRIDX 3
-------
General Integration Accuracy     IntAcc      ... 4.338
Radial Grid Type                 RadialGrid  ... OptM3 with GC (2021)
Angular Grid (max. ang.)         AngularGrid ... 3 (Lebedev-194)
Angular grid pruning method      GridPruning ... 4 (adaptive)
Weight generation scheme         WeightScheme... mBecke (2022)
Basis function cutoff            BFCut       ... 1.0000e-10
Integration weight cutoff        WCut        ... 1.0000e-14
Partially contracted basis set               ... on
Rotationally invariant grid construction     ... off
Angular grids for H and He will be reduced by one unit

Total number of grid points                  ...   182289
Total number of batches                      ...     1456
Average number of points per batch           ...      125
Average number of grid points per atom       ...     2721
UseSFitting                                  ... on
Initializing property integral containers    ... done (  0.0 sec)

SHARK setup successfully completed in  19.8 seconds

Maximum memory used throughout the entire STARTUP-calculation: 137.7 MB
-------------------------------------------------------------------------------
                                 ORCA GUESS
                   Start orbitals & Density for SCF / CASSCF
-------------------------------------------------------------------------------

------------
SCF SETTINGS
------------
Hamiltonian:
 Density Functional     Method          .... DFT(GTOs)
 Exchange Functional    Exchange        .... B88
   X-Alpha parameter    XAlpha          ....  0.666667
   Becke's b parameter  XBeta           ....  0.004200
 Correlation Functional Correlation     .... LYP
 LDA part of GGA corr.  LDAOpt          .... VWN-5
 Gradients option       PostSCFGGA      .... off
 Hybrid DFT is turned on
   Fraction HF Exchange ScalHFX         ....  0.200000
   Scaling of DF-GGA-X  ScalDFX         ....  0.720000
   Scaling of DF-GGA-C  ScalDFC         ....  0.810000
   Scaling of DF-LDA-C  ScalLDAC        ....  1.000000
   Perturbative correction              ....  0.000000
   NL short-range parameter             ....  4.800000
 RI-approximation to the Coulomb term is turned on
   Number of AuxJ basis functions       .... 2069
   RIJ-COSX (HFX calculated with COS-X)).... on


General Settings:
 Integral files         IntName         .... /home/nmrbox/aojoawo/Documents/ERDOS/inputs/CHEMBL4208555
 Hartree-Fock type      HFTyp           .... RHF
 Total Charge           Charge          ....    0
 Multiplicity           Mult            ....    1
 Number of Electrons    NEL             ....  268
 Basis Dimension        Dim             ....  558
 Nuclear Repulsion      ENuc            ....   4013.0394551512 Eh

Convergence Acceleration:
 AO-DIIS                CNVDIIS         .... on
   Start iteration      DIISMaxIt       ....    12
   Startup error        DIISStart       ....  0.200000
   # of expansion vecs  DIISMaxEq       ....     5
   Bias factor          DIISBfac        ....   1.050
   Max. coefficient     DIISMaxC        ....  10.000
 MO-DIIS                CNVKDIIS        .... off
 Trust-Rad. Augm. Hess. CNVTRAH         .... auto
   Auto Start mean grad. ratio tolernc. ....  1.125000
   Auto Start start iteration           ....    50
   Auto Start num. interpolation iter.  ....    10
   Max. Number of Micro iterations      ....    24
   Max. Number of Macro iterations      .... Maxiter - #DIIS iter
   Number of Davidson start vectors     ....     2
   Converg. threshold    (grad. norm)   ....   5.000e-05
   Grad. Scal. Fac. for Micro threshold ....   0.100
   Minimum threshold for Micro iter.    ....   1.000e-02
   NR start threshold (gradient norm)   ....   1.000e-04
   Initial trust radius                 ....   0.400
   Minimum AH scaling param. (alpha)    ....   1.000
   Maximum AH scaling param. (alpha)    .... 1000.000
   Quad. conv. algorithm                .... NR
   White noise on init. David. guess    .... on
   Maximum white noise                  ....   0.010
   Pseudo random numbers                .... off
   Inactive MOs                         .... canonical
   Orbital update algorithm             .... Taylor
   Preconditioner                       .... Diag
   Full preconditioner red. dimension   ....   250
 SOSCF                  CNVSOSCF        .... on
   Start iteration      SOSCFMaxIt      ....   150
   Startup grad/error   SOSCFStart      ....  0.003300
   Hessian update       SOSCFHessUp     .... L-BFGS
 Level Shifting         CNVShift        .... on
   Level shift para.    LevelShift      ....    0.2500
   Turn off err/grad.   ShiftErr        ....    0.0010
 Zerner damping         CNVZerner       .... off
 Static damping         CNVDamp         .... on
   Fraction old density DampFac         ....    0.7000
   Max. Damping (<1)    DampMax         ....    0.9800
   Min. Damping (>=0)   DampMin         ....    0.0000
   Turn off err/grad.   DampErr         ....    0.1000

SCF Procedure:
 Maximum # iterations   MaxIter         ....   125
 SCF integral mode      SCFMode         .... Direct
   Integral package                     .... SHARK and LIBINT hybrid scheme
 Reset frequency        DirectResetFreq ....    20
 Integral Threshold     Thresh          ....  1.000e-10 Eh
 Primitive CutOff       TCut            ....  1.000e-11 Eh

Convergence Tolerance:
 Convergence Check Mode ConvCheckMode   .... Total+1el-Energy
 Convergence forced     ConvForced      .... 0
 Energy Change          TolE            ....  1.000e-06 Eh
 1-El. energy change                    ....  1.000e-03 Eh
 Orbital Gradient       TolG            ....  5.000e-05
 Orbital Rotation angle TolX            ....  5.000e-05
 DIIS Error             TolErr          ....  1.000e-06

------------------------------
INITIAL GUESS: MODEL POTENTIAL
------------------------------
Loading Hartree-Fock densities                     ... done
Calculating cut-offs                               ... done
Initializing the effective Hamiltonian             ... done
Setting up the integral package (SHARK)            ... done
Starting the Coulomb interaction                   ... done (   5.4 sec)
Making the grid                                    ... done (   2.7 sec)
Mapping shells                                     ... done
Starting the XC term evaluation                    ... done (   1.6 sec)
  promolecular density results
     # of electrons  =    267.990931382
     EX              =   -235.516297952
     EC              =     -9.298217413
     EX+EC           =   -244.814515365
Transforming the Hamiltonian                       ... done (   0.0 sec)
Diagonalizing the Hamiltonian                      ... done (   0.1 sec)
Back transforming the eigenvectors                 ... done (   0.0 sec)
Now organizing SCF variables                       ... done
                      ------------------
                      INITIAL GUESS DONE (   9.9 sec)
                      ------------------
             **** ENERGY FILE WAS UPDATED (/home/nmrbox/aojoawo/Documents/ERDOS/inputs/CHEMBL4208555.en.tmp) ****
Finished Guess after  10.2 sec
Maximum memory used throughout the entire GUESS-calculation: 73.3 MB

-------------------------------------------------------------------------------------------
                                      ORCA LEAN-SCF
                              memory conserving SCF solver
-------------------------------------------------------------------------------------------

----------------------------------------D-I-I-S--------------------------------------------
Iteration    Energy (Eh)           Delta-E    RMSDP     MaxDP     DIISErr   Damp  Time(sec)
-------------------------------------------------------------------------------------------
               ***  Starting incremental Fock matrix formation  ***
    1    -2065.9133392786175136     0.00e+00  1.83e-03  9.23e-02  2.64e-01  0.700  88.9
    2    -2066.3096428922040104    -3.96e-01  1.27e-03  4.84e-02  1.05e-01  0.700  40.3
                               ***Turning on AO-DIIS***
    3    -2066.4637421647471456    -1.54e-01  5.20e-04  1.88e-02  3.31e-02  0.700  39.1
    4    -2066.5568601427498834    -9.31e-02  8.29e-04  3.07e-02  1.59e-02  0.000  35.7
    5    -2066.7622337914685886    -2.05e-01  1.90e-04  7.73e-03  6.09e-03  0.000  38.0
                              *** Initializing SOSCF ***
---------------------------------------S-O-S-C-F--------------------------------------
Iteration    Energy (Eh)           Delta-E    RMSDP     MaxDP     MaxGrad    Time(sec)
--------------------------------------------------------------------------------------
    6    -2066.7634574615271958    -1.22e-03  6.48e-05  2.60e-03  2.54e-03    31.6
               *** Restarting incremental Fock matrix formation ***
    7    -2066.7636084268538070    -1.51e-04  5.08e-05  4.01e-03  5.80e-04    93.5
    8    -2066.7635625946491018     4.58e-05  3.14e-05  2.88e-03  1.54e-03    51.0
    9    -2066.7636249209722337    -6.23e-05  8.48e-06  6.94e-04  6.05e-05    43.0
   10    -2066.7636239790585932     9.42e-07  5.17e-06  4.57e-04  9.17e-05    35.2
                 **** Energy Check signals convergence ****

               *****************************************************
               *                     SUCCESS                       *
               *           SCF CONVERGED AFTER  10 CYCLES          *
               *****************************************************

Recomputing exchange energy using gridx3       ... done (  166.396 sec)
Old exchange energy                            :    -47.764918430 Eh
New exchange energy                            :    -47.764955887 Eh
Exchange energy change after final integration :     -0.000037457 Eh
Total energy after final integration           :  -2066.763661436 Eh
             **** ENERGY FILE WAS UPDATED (/home/nmrbox/aojoawo/Documents/ERDOS/inputs/CHEMBL4208555.en.tmp) ****

----------------
TOTAL SCF ENERGY
----------------

Total Energy       :      -2066.76366143599444 Eh          -56239.49839 eV

Components:
Nuclear Repulsion  :       4013.03945515118767 Eh          109200.35521 eV
Electronic Energy  :      -6079.80307913024626 Eh         -165439.85258 eV
One Electron Energy:     -10817.70884375873538 Eh         -294364.82286 eV
Two Electron Energy:       4737.90576462848912 Eh          128924.97027 eV

Virial components:
Potential Energy   :      -4122.79301809145090 Eh         -112186.90149 eV
Kinetic Energy     :       2056.02935665545647 Eh           55947.40311 eV
Virial Ratio       :          2.00522089081354

DFT components:
N(Alpha)           :      133.999991323360 electrons
N(Beta)            :      133.999991323360 electrons
N(Total)           :      267.999982646720 electrons
E(X)               :     -189.638617192514 Eh       
E(C)               :      -10.920514100782 Eh       
E(XC)              :     -200.559131293296 Eh       

---------------
SCF CONVERGENCE
---------------

  Last Energy change         ...   -9.4191e-07  Tolerance :   1.0000e-06
  Last MAX-Density change    ...    4.5670e-04  Tolerance :   1.0000e-05
  Last RMS-Density change    ...    5.1674e-06  Tolerance :   1.0000e-06
  Last DIIS Error            ...    2.5414e-03  Tolerance :   1.0000e-06
  Last Orbital Gradient      ...    9.1706e-05  Tolerance :   5.0000e-05
  Last Orbital Rotation      ...    7.0226e-05  Tolerance :   5.0000e-05


----------------
ORBITAL ENERGIES
----------------

  NO   OCC          E(Eh)            E(eV) 
   0   2.0000    -101.527569     -2762.7056 
   1   2.0000     -24.720421      -672.6769 
   2   2.0000     -24.709367      -672.3761 
   3   2.0000     -24.709217      -672.3720 
   4   2.0000     -19.145805      -520.9838 
   5   2.0000     -19.106502      -519.9144 
   6   2.0000     -14.351358      -390.5203 
   7   2.0000     -14.311686      -389.4408 
   8   2.0000     -10.423860      -283.6476 
   9   2.0000     -10.284481      -279.8550 
  10   2.0000     -10.258201      -279.1398 
  11   2.0000     -10.246621      -278.8247 
  12   2.0000     -10.218356      -278.0556 
  13   2.0000     -10.215094      -277.9668 
  14   2.0000     -10.208277      -277.7813 
  15   2.0000     -10.207641      -277.7640 
  16   2.0000     -10.204335      -277.6741 
  17   2.0000     -10.203921      -277.6628 
  18   2.0000     -10.198858      -277.5250 
  19   2.0000     -10.198153      -277.5059 
  20   2.0000     -10.197434      -277.4863 
  21   2.0000     -10.197201      -277.4799 
  22   2.0000     -10.193318      -277.3743 
  23   2.0000     -10.188610      -277.2462 
  24   2.0000     -10.188111      -277.2326 
  25   2.0000     -10.187912      -277.2272 
  26   2.0000     -10.187854      -277.2256 
  27   2.0000     -10.187601      -277.2187 
  28   2.0000     -10.186400      -277.1860 
  29   2.0000     -10.185717      -277.1675 
  30   2.0000     -10.185181      -277.1529 
  31   2.0000     -10.184268      -277.1280 
  32   2.0000     -10.178646      -276.9750 
  33   2.0000     -10.174544      -276.8634 
  34   2.0000     -10.173042      -276.8225 
  35   2.0000      -9.459534      -257.4070 
  36   2.0000      -7.222513      -196.5346 
  37   2.0000      -7.213157      -196.2800 
  38   2.0000      -7.212845      -196.2715 
  39   2.0000      -1.272940       -34.6385 
  40   2.0000      -1.201075       -32.6829 
  41   2.0000      -1.193808       -32.4852 
  42   2.0000      -1.029966       -28.0268 
  43   2.0000      -1.005762       -27.3682 
  44   2.0000      -0.914150       -24.8753 
  45   2.0000      -0.893097       -24.3024 
  46   2.0000      -0.889123       -24.1943 
  47   2.0000      -0.860041       -23.4029 
  48   2.0000      -0.857650       -23.3378 
  49   2.0000      -0.827005       -22.5040 
  50   2.0000      -0.803668       -21.8689 
  51   2.0000      -0.779053       -21.1991 
  52   2.0000      -0.760811       -20.7027 
  53   2.0000      -0.756361       -20.5816 
  54   2.0000      -0.753889       -20.5144 
  55   2.0000      -0.748245       -20.3608 
  56   2.0000      -0.736041       -20.0287 
  57   2.0000      -0.716936       -19.5088 
  58   2.0000      -0.708423       -19.2772 
  59   2.0000      -0.696647       -18.9567 
  60   2.0000      -0.681666       -18.5491 
  61   2.0000      -0.636734       -17.3264 
  62   2.0000      -0.635388       -17.2898 
  63   2.0000      -0.622709       -16.9448 
  64   2.0000      -0.613015       -16.6810 
  65   2.0000      -0.608672       -16.5628 
  66   2.0000      -0.603731       -16.4284 
  67   2.0000      -0.587446       -15.9852 
  68   2.0000      -0.576642       -15.6912 
  69   2.0000      -0.565503       -15.3881 
  70   2.0000      -0.560877       -15.2622 
  71   2.0000      -0.559323       -15.2199 
  72   2.0000      -0.551261       -15.0006 
  73   2.0000      -0.548169       -14.9164 
  74   2.0000      -0.527512       -14.3543 
  75   2.0000      -0.520707       -14.1692 
  76   2.0000      -0.515131       -14.0174 
  77   2.0000      -0.506549       -13.7839 
  78   2.0000      -0.501778       -13.6541 
  79   2.0000      -0.486181       -13.2296 
  80   2.0000      -0.477106       -12.9827 
  81   2.0000      -0.474277       -12.9057 
  82   2.0000      -0.469549       -12.7771 
  83   2.0000      -0.467087       -12.7101 
  84   2.0000      -0.465935       -12.6787 
  85   2.0000      -0.461250       -12.5513 
  86   2.0000      -0.456602       -12.4248 
  87   2.0000      -0.447373       -12.1736 
  88   2.0000      -0.442190       -12.0326 
  89   2.0000      -0.439748       -11.9662 
  90   2.0000      -0.435927       -11.8622 
  91   2.0000      -0.434232       -11.8161 
  92   2.0000      -0.429038       -11.6747 
  93   2.0000      -0.423506       -11.5242 
  94   2.0000      -0.418788       -11.3958 
  95   2.0000      -0.417022       -11.3477 
  96   2.0000      -0.413827       -11.2608 
  97   2.0000      -0.410877       -11.1805 
  98   2.0000      -0.406714       -11.0673 
  99   2.0000      -0.402714       -10.9584 
 100   2.0000      -0.398579       -10.8459 
 101   2.0000      -0.393289       -10.7019 
 102   2.0000      -0.392113       -10.6699 
 103   2.0000      -0.388463       -10.5706 
 104   2.0000      -0.384681       -10.4677 
 105   2.0000      -0.381791       -10.3891 
 106   2.0000      -0.379073       -10.3151 
 107   2.0000      -0.373164       -10.1543 
 108   2.0000      -0.369726       -10.0608 
 109   2.0000      -0.366688        -9.9781 
 110   2.0000      -0.362633        -9.8677 
 111   2.0000      -0.358678        -9.7601 
 112   2.0000      -0.353375        -9.6158 
 113   2.0000      -0.349733        -9.5167 
 114   2.0000      -0.346870        -9.4388 
 115   2.0000      -0.343587        -9.3495 
 116   2.0000      -0.341407        -9.2902 
 117   2.0000      -0.340094        -9.2544 
 118   2.0000      -0.336972        -9.1695 
 119   2.0000      -0.333366        -9.0713 
 120   2.0000      -0.328590        -8.9414 
 121   2.0000      -0.324092        -8.8190 
 122   2.0000      -0.323047        -8.7905 
 123   2.0000      -0.313188        -8.5223 
 124   2.0000      -0.311756        -8.4833 
 125   2.0000      -0.310948        -8.4613 
 126   2.0000      -0.268319        -7.3013 
 127   2.0000      -0.261896        -7.1265 
 128   2.0000      -0.255223        -6.9450 
 129   2.0000      -0.250328        -6.8118 
 130   2.0000      -0.246013        -6.6943 
 131   2.0000      -0.239179        -6.5084 
 132   2.0000      -0.234454        -6.3798 
 133   2.0000      -0.193011        -5.2521 
 134   0.0000      -0.017901        -0.4871 
 135   0.0000      -0.016142        -0.4392 
 136   0.0000      -0.008475        -0.2306 
 137   0.0000      -0.005509        -0.1499 
 138   0.0000       0.018324         0.4986 
 139   0.0000       0.031550         0.8585 
 140   0.0000       0.051442         1.3998 
 141   0.0000       0.057173         1.5558 
 142   0.0000       0.065843         1.7917 
 143   0.0000       0.081181         2.2091 
 144   0.0000       0.086047         2.3415 
*Only the first 10 virtual orbitals were printed.

                    ********************************
                    * MULLIKEN POPULATION ANALYSIS *
                    ********************************

-----------------------
MULLIKEN ATOMIC CHARGES
-----------------------
   0 O :   -0.486948
   1 C :    0.563232
   2 N :   -0.611377
   3 C :   -0.131535
   4 C :    0.060612
   5 C :   -0.385300
   6 C :    0.159938
   7 C :   -0.196598
   8 C :   -0.126120
   9 C :   -0.126115
  10 C :   -0.127851
  11 C :   -0.171978
  12 N :   -0.370370
  13 C :   -0.124649
  14 C :   -0.336832
  15 C :    0.250534
  16 O :   -0.656031
  17 C :    0.931027
  18 F :   -0.306005
  19 F :   -0.304957
  20 F :   -0.304912
  21 C :   -0.330333
  22 C :   -0.150920
  23 C :   -0.044137
  24 C :    0.113211
  25 C :   -0.165317
  26 C :   -0.131422
  27 C :   -0.063705
  28 Cl:   -0.022260
  29 C :   -0.132703
  30 C :   -0.180632
  31 C :   -0.261177
  32 C :   -0.267858
  33 C :   -0.267591
  34 C :   -0.315890
  35 H :    0.325866
  36 H :    0.152756
  37 H :    0.165545
  38 H :    0.103784
  39 H :    0.156195
  40 H :    0.156689
  41 H :    0.122531
  42 H :    0.128617
  43 H :    0.129321
  44 H :    0.131336
  45 H :    0.128218
  46 H :    0.137160
  47 H :    0.119669
  48 H :    0.160837
  49 H :    0.159042
  50 H :    0.407617
  51 H :    0.160865
  52 H :    0.147875
  53 H :    0.145133
  54 H :    0.138818
  55 H :    0.166247
  56 H :    0.153856
  57 H :    0.150181
  58 H :    0.135808
  59 H :    0.149990
  60 H :    0.148369
  61 H :    0.140001
  62 H :    0.138502
  63 H :    0.136080
  64 H :    0.137897
  65 H :    0.156264
  66 H :    0.131901
Sum of atomic charges:    0.0000000

--------------------------------
MULLIKEN REDUCED ORBITAL CHARGES
--------------------------------
  0 O s       :     3.900866  s :     3.900866
      pz      :     1.368853  p :     4.560974
      px      :     1.607933
      py      :     1.584187
      dz2     :     0.007576  d :     0.025108
      dxz     :     0.004487
      dyz     :     0.005722
      dx2y2   :     0.003132
      dxy     :     0.004191

  1 C s       :     3.028266  s :     3.028266
      pz      :     0.775896  p :     2.309716
      px      :     0.811216
      py      :     0.722605
      dz2     :     0.019387  d :     0.098786
      dxz     :     0.018092
      dyz     :     0.020093
      dx2y2   :     0.024203
      dxy     :     0.017011

  2 N s       :     3.592095  s :     3.592095
      pz      :     1.545168  p :     3.990621
      px      :     1.232841
      py      :     1.212612
      dz2     :     0.002920  d :     0.028661
      dxz     :     0.005453
      dyz     :     0.005111
      dx2y2   :     0.005668
      dxy     :     0.009510

  3 C s       :     3.215116  s :     3.215116
      pz      :     1.046140  p :     2.863856
      px      :     0.801171
      py      :     1.016545
      dz2     :     0.015171  d :     0.052564
      dxz     :     0.010319
      dyz     :     0.003026
      dx2y2   :     0.016419
      dxy     :     0.007628

  4 C s       :     3.176942  s :     3.176942
      pz      :     0.916547  p :     2.705921
      px      :     0.966326
      py      :     0.823048
      dz2     :     0.011888  d :     0.056525
      dxz     :     0.007374
      dyz     :     0.009268
      dx2y2   :     0.011315
      dxy     :     0.016681

  5 C s       :     3.288803  s :     3.288803
      pz      :     0.986530  p :     3.057132
      px      :     1.084053
      py      :     0.986549
      dz2     :     0.008495  d :     0.039366
      dxz     :     0.008321
      dyz     :     0.006914
      dx2y2   :     0.007227
      dxy     :     0.008408

  6 C s       :     3.134945  s :     3.134945
      pz      :     0.937260  p :     2.664237
      px      :     0.860397
      py      :     0.866580
      dz2     :     0.004147  d :     0.040880
      dxz     :     0.006310
      dyz     :     0.005890
      dx2y2   :     0.011933
      dxy     :     0.012599

  7 C s       :     3.195346  s :     3.195346
      pz      :     1.014507  p :     2.965313
      px      :     0.981011
      py      :     0.969795
      dz2     :     0.004553  d :     0.035939
      dxz     :     0.003750
      dyz     :     0.004989
      dx2y2   :     0.009253
      dxy     :     0.013394

  8 C s       :     3.189919  s :     3.189919
      pz      :     0.985232  p :     2.899967
      px      :     0.971750
      py      :     0.942985
      dz2     :     0.003009  d :     0.036234
      dxz     :     0.004776
      dyz     :     0.006117
      dx2y2   :     0.011315
      dxy     :     0.011017

  9 C s       :     3.184120  s :     3.184120
      pz      :     0.990768  p :     2.906006
      px      :     0.938557
      py      :     0.976682
      dz2     :     0.003622  d :     0.035989
      dxz     :     0.005974
      dyz     :     0.003886
      dx2y2   :     0.013188
      dxy     :     0.009320

 10 C s       :     3.191387  s :     3.191387
      pz      :     0.976722  p :     2.900137
      px      :     0.965649
      py      :     0.957766
      dz2     :     0.004614  d :     0.036327
      dxz     :     0.003888
      dyz     :     0.005092
      dx2y2   :     0.009283
      dxy     :     0.013449

 11 C s       :     3.199420  s :     3.199420
      pz      :     1.002554  p :     2.936846
      px      :     0.976237
      py      :     0.958055
      dz2     :     0.003016  d :     0.035711
      dxz     :     0.004668
      dyz     :     0.005786
      dx2y2   :     0.011133
      dxy     :     0.011109

 12 N s       :     3.613017  s :     3.613017
      pz      :     1.024072  p :     3.722255
      px      :     1.622097
      py      :     1.076086
      dz2     :     0.007007  d :     0.035098
      dxz     :     0.008495
      dyz     :     0.007973
      dx2y2   :     0.006466
      dxy     :     0.005158

 13 C s       :     3.211245  s :     3.211245
      pz      :     0.942254  p :     2.858932
      px      :     1.020388
      py      :     0.896291
      dz2     :     0.006346  d :     0.054471
      dxz     :     0.016043
      dyz     :     0.011879
      dx2y2   :     0.011733
      dxy     :     0.008471

 14 C s       :     3.284514  s :     3.284514
      pz      :     1.009248  p :     3.014790
      px      :     1.018687
      py      :     0.986855
      dz2     :     0.004273  d :     0.037528
      dxz     :     0.009166
      dyz     :     0.010020
      dx2y2   :     0.008209
      dxy     :     0.005860

 15 C s       :     3.135576  s :     3.135576
      pz      :     0.795810  p :     2.540955
      px      :     0.925891
      py      :     0.819253
      dz2     :     0.014364  d :     0.072935
      dxz     :     0.014540
      dyz     :     0.018228
      dx2y2   :     0.016142
      dxy     :     0.009661

 16 O s       :     3.903366  s :     3.903366
      pz      :     1.562377  p :     4.725728
      px      :     1.512168
      py      :     1.651183
      dz2     :     0.003772  d :     0.026937
      dxz     :     0.004157
      dyz     :     0.006828
      dx2y2   :     0.006929
      dxy     :     0.005251

 17 C s       :     2.839603  s :     2.839603
      pz      :     0.632976  p :     2.094974
      px      :     0.849002
      py      :     0.612996
      dz2     :     0.023834  d :     0.134396
      dxz     :     0.029121
      dyz     :     0.032020
      dx2y2   :     0.030128
      dxy     :     0.019294

 18 F s       :     3.981448  s :     3.981448
      pz      :     1.687487  p :     5.308093
      px      :     1.716676
      py      :     1.903930
      dz2     :     0.003593  d :     0.016463
      dxz     :     0.006403
      dyz     :     0.002017
      dx2y2   :     0.002655
      dxy     :     0.001796

 19 F s       :     3.980731  s :     3.980731
      pz      :     1.668793  p :     5.307998
      px      :     1.881164
      py      :     1.758041
      dz2     :     0.003650  d :     0.016229
      dxz     :     0.003092
      dyz     :     0.005598
      dx2y2   :     0.002067
      dxy     :     0.001822

 20 F s       :     3.982177  s :     3.982177
      pz      :     1.860538  p :     5.306199
      px      :     1.914275
      py      :     1.531386
      dz2     :     0.002057  d :     0.016536
      dxz     :     0.000697
      dyz     :     0.004707
      dx2y2   :     0.005580
      dxy     :     0.003496

 21 C s       :     3.274951  s :     3.274951
      pz      :     1.055571  p :     3.017588
      px      :     0.991970
      py      :     0.970048
      dz2     :     0.007771  d :     0.037794
      dxz     :     0.007345
      dyz     :     0.006485
      dx2y2   :     0.007293
      dxy     :     0.008901

 22 C s       :     3.227417  s :     3.227417
      pz      :     0.879241  p :     2.870728
      px      :     0.940078
      py      :     1.051409
      dz2     :     0.011078  d :     0.052775
      dxz     :     0.014847
      dyz     :     0.011115
      dx2y2   :     0.008194
      dxy     :     0.007541

 23 C s       :     3.213495  s :     3.213495
      pz      :     0.899833  p :     2.782773
      px      :     0.937513
      py      :     0.945427
      dz2     :     0.010871  d :     0.047869
      dxz     :     0.009401
      dyz     :     0.007470
      dx2y2   :     0.010117
      dxy     :     0.010009

 24 C s       :     3.151628  s :     3.151628
      pz      :     0.862743  p :     2.695847
      px      :     0.898947
      py      :     0.934157
      dz2     :     0.010401  d :     0.039314
      dxz     :     0.010378
      dyz     :     0.007354
      dx2y2   :     0.005732
      dxy     :     0.005449

 25 C s       :     3.203054  s :     3.203054
      pz      :     0.973451  p :     2.926672
      px      :     0.974142
      py      :     0.979079
      dz2     :     0.008391  d :     0.035591
      dxz     :     0.011177
      dyz     :     0.007228
      dx2y2   :     0.003899
      dxy     :     0.004896

 26 C s       :     3.193182  s :     3.193182
      pz      :     0.996923  p :     2.902623
      px      :     0.934100
      py      :     0.971600
      dz2     :     0.011395  d :     0.035617
      dxz     :     0.008044
      dyz     :     0.004691
      dx2y2   :     0.006110
      dxy     :     0.005377

 27 C s       :     3.175176  s :     3.175176
      pz      :     0.965883  p :     2.839801
      px      :     0.891406
      py      :     0.982512
      dz2     :     0.011676  d :     0.048728
      dxz     :     0.013126
      dyz     :     0.009424
      dx2y2   :     0.007071
      dxy     :     0.007431

 28 Cls       :     5.925645  s :     5.925645
      pz      :     3.824138  p :    11.067226
      px      :     3.499662
      py      :     3.743426
      dz2     :     0.002918  d :     0.029389
      dxz     :     0.007094
      dyz     :     0.003717
      dx2y2   :     0.006302
      dxy     :     0.009359

 29 C s       :     3.190882  s :     3.190882
      pz      :     0.929040  p :     2.906267
      px      :     0.987963
      py      :     0.989264
      dz2     :     0.008904  d :     0.035554
      dxz     :     0.010566
      dyz     :     0.007140
      dx2y2   :     0.003975
      dxy     :     0.004969

 30 C s       :     3.203271  s :     3.203271
      pz      :     0.981713  p :     2.941545
      px      :     0.965795
      py      :     0.994037
      dz2     :     0.012452  d :     0.035816
      dxz     :     0.007507
      dyz     :     0.004136
      dx2y2   :     0.006158
      dxy     :     0.005563

 31 C s       :     3.260134  s :     3.260134
      pz      :     1.000653  p :     2.960854
      px      :     1.034238
      py      :     0.925963
      dz2     :     0.010338  d :     0.040188
      dxz     :     0.008204
      dyz     :     0.005502
      dx2y2   :     0.007630
      dxy     :     0.008514

 32 C s       :     3.245219  s :     3.245219
      pz      :     0.934916  p :     2.982629
      px      :     1.034533
      py      :     1.013180
      dz2     :     0.008756  d :     0.040010
      dxz     :     0.007338
      dyz     :     0.007926
      dx2y2   :     0.012715
      dxy     :     0.003276

 33 C s       :     3.246035  s :     3.246035
      pz      :     1.001451  p :     2.981892
      px      :     1.016039
      py      :     0.964402
      dz2     :     0.005073  d :     0.039664
      dxz     :     0.009627
      dyz     :     0.010545
      dx2y2   :     0.005596
      dxy     :     0.008823

 34 C s       :     3.267152  s :     3.267152
      pz      :     0.948447  p :     3.008781
      px      :     1.045737
      py      :     1.014597
      dz2     :     0.010186  d :     0.039957
      dxz     :     0.005574
      dyz     :     0.008013
      dx2y2   :     0.010999
      dxy     :     0.005185

 35 H s       :     0.674134  s :     0.674134

 36 H s       :     0.847244  s :     0.847244

 37 H s       :     0.834455  s :     0.834455

 38 H s       :     0.896216  s :     0.896216

 39 H s       :     0.843805  s :     0.843805

 40 H s       :     0.843311  s :     0.843311

 41 H s       :     0.877469  s :     0.877469

 42 H s       :     0.871383  s :     0.871383

 43 H s       :     0.870679  s :     0.870679

 44 H s       :     0.868664  s :     0.868664

 45 H s       :     0.871782  s :     0.871782

 46 H s       :     0.862840  s :     0.862840

 47 H s       :     0.880331  s :     0.880331

 48 H s       :     0.839163  s :     0.839163

 49 H s       :     0.840958  s :     0.840958

 50 H s       :     0.592383  s :     0.592383

 51 H s       :     0.839135  s :     0.839135

 52 H s       :     0.852125  s :     0.852125

 53 H s       :     0.854867  s :     0.854867

 54 H s       :     0.861182  s :     0.861182

 55 H s       :     0.833753  s :     0.833753

 56 H s       :     0.846144  s :     0.846144

 57 H s       :     0.849819  s :     0.849819

 58 H s       :     0.864192  s :     0.864192

 59 H s       :     0.850010  s :     0.850010

 60 H s       :     0.851631  s :     0.851631

 61 H s       :     0.859999  s :     0.859999

 62 H s       :     0.861498  s :     0.861498

 63 H s       :     0.863920  s :     0.863920

 64 H s       :     0.862103  s :     0.862103

 65 H s       :     0.843736  s :     0.843736

 66 H s       :     0.868099  s :     0.868099



                     *******************************
                     * LOEWDIN POPULATION ANALYSIS *
                     *******************************

----------------------
LOEWDIN ATOMIC CHARGES
----------------------
   0 O :   -0.287610
   1 C :    0.153475
   2 N :   -0.239808
   3 C :   -0.159556
   4 C :   -0.052211
   5 C :   -0.228305
   6 C :   -0.015336
   7 C :   -0.147776
   8 C :   -0.127583
   9 C :   -0.133971
  10 C :   -0.124219
  11 C :   -0.136895
  12 N :   -0.180354
  13 C :   -0.160506
  14 C :   -0.239920
  15 C :    0.026464
  16 O :   -0.375908
  17 C :    0.308695
  18 F :   -0.111284
  19 F :   -0.114162
  20 F :   -0.110278
  21 C :   -0.253629
  22 C :   -0.157395
  23 C :   -0.049504
  24 C :   -0.008163
  25 C :   -0.121418
  26 C :   -0.131034
  27 C :   -0.089767
  28 Cl:    0.032907
  29 C :   -0.134492
  30 C :   -0.138237
  31 C :   -0.208128
  32 C :   -0.235361
  33 C :   -0.235263
  34 C :   -0.227233
  35 H :    0.248859
  36 H :    0.133106
  37 H :    0.133635
  38 H :    0.098428
  39 H :    0.127958
  40 H :    0.135354
  41 H :    0.125875
  42 H :    0.131375
  43 H :    0.131995
  44 H :    0.132645
  45 H :    0.130661
  46 H :    0.120692
  47 H :    0.097945
  48 H :    0.137364
  49 H :    0.135990
  50 H :    0.321020
  51 H :    0.138265
  52 H :    0.127339
  53 H :    0.115399
  54 H :    0.123563
  55 H :    0.149868
  56 H :    0.145322
  57 H :    0.143458
  58 H :    0.137087
  59 H :    0.129715
  60 H :    0.129543
  61 H :    0.121656
  62 H :    0.124079
  63 H :    0.118527
  64 H :    0.122687
  65 H :    0.128174
  66 H :    0.116181

-------------------------------
LOEWDIN REDUCED ORBITAL CHARGES
-------------------------------
  0 O s       :     3.587910  s :     3.587910
      pz      :     1.422026  p :     4.649785
      px      :     1.618433
      py      :     1.609326
      dz2     :     0.011489  d :     0.049916
      dxz     :     0.010706
      dyz     :     0.014033
      dx2y2   :     0.005855
      dxy     :     0.007832

  1 C s       :     2.875895  s :     2.875895
      pz      :     0.901130  p :     2.742551
      px      :     0.934319
      py      :     0.907103
      dz2     :     0.039966  d :     0.228080
      dxz     :     0.042880
      dyz     :     0.049369
      dx2y2   :     0.058120
      dxy     :     0.037745

  2 N s       :     3.159399  s :     3.159399
      pz      :     1.525562  p :     4.011511
      px      :     1.247949
      py      :     1.238000
      dz2     :     0.006670  d :     0.068899
      dxz     :     0.011095
      dyz     :     0.010891
      dx2y2   :     0.016209
      dxy     :     0.024034

  3 C s       :     2.935972  s :     2.935972
      pz      :     1.097226  p :     3.112480
      px      :     0.933885
      py      :     1.081368
      dz2     :     0.029507  d :     0.111105
      dxz     :     0.024391
      dyz     :     0.005817
      dx2y2   :     0.034109
      dxy     :     0.017280

  4 C s       :     2.914406  s :     2.914406
      pz      :     1.020026  p :     3.014481
      px      :     1.054496
      py      :     0.939959
      dz2     :     0.027691  d :     0.123324
      dxz     :     0.015670
      dyz     :     0.019786
      dx2y2   :     0.024298
      dxy     :     0.035878

  5 C s       :     2.936760  s :     2.936760
      pz      :     1.048106  p :     3.209934
      px      :     1.110899
      py      :     1.050929
      dz2     :     0.019999  d :     0.081611
      dxz     :     0.015190
      dyz     :     0.014798
      dx2y2   :     0.015186
      dxy     :     0.016438

  6 C s       :     2.877614  s :     2.877614
      pz      :     0.954801  p :     3.036540
      px      :     1.058553
      py      :     1.023186
[...]
      dyz     :     0.009555
      dx2y2   :     0.013787
      dxy     :     0.014598

 31 C s       :     2.942800  s :     2.942800
      pz      :     1.076075  p :     3.180654
      px      :     1.095995
      py      :     1.008583
      dz2     :     0.021342  d :     0.084674
      dxz     :     0.017513
      dyz     :     0.011328
      dx2y2   :     0.017003
      dxy     :     0.017489

 32 C s       :     2.936712  s :     2.936712
      pz      :     1.039469  p :     3.213945
      px      :     1.094357
      py      :     1.080118
      dz2     :     0.018633  d :     0.084704
      dxz     :     0.016724
      dyz     :     0.018557
      dx2y2   :     0.025126
      dxy     :     0.005665

 33 C s       :     2.937555  s :     2.937555
      pz      :     1.071808  p :     3.213899
      px      :     1.085305
      py      :     1.056785
      dz2     :     0.010291  d :     0.083809
      dxz     :     0.019611
      dyz     :     0.024067
      dx2y2   :     0.010986
      dxy     :     0.018854

 34 C s       :     2.943231  s :     2.943231
      pz      :     1.021223  p :     3.200539
      px      :     1.098290
      py      :     1.081026
      dz2     :     0.023138  d :     0.083463
      dxz     :     0.011813
      dyz     :     0.016347
      dx2y2   :     0.021150
      dxy     :     0.011015

 35 H s       :     0.751141  s :     0.751141

 36 H s       :     0.866894  s :     0.866894

 37 H s       :     0.866365  s :     0.866365

 38 H s       :     0.901572  s :     0.901572

 39 H s       :     0.872042  s :     0.872042

 40 H s       :     0.864646  s :     0.864646

 41 H s       :     0.874125  s :     0.874125

 42 H s       :     0.868625  s :     0.868625

 43 H s       :     0.868005  s :     0.868005

 44 H s       :     0.867355  s :     0.867355

 45 H s       :     0.869339  s :     0.869339

 46 H s       :     0.879308  s :     0.879308

 47 H s       :     0.902055  s :     0.902055

 48 H s       :     0.862636  s :     0.862636

 49 H s       :     0.864010  s :     0.864010

 50 H s       :     0.678980  s :     0.678980

 51 H s       :     0.861735  s :     0.861735

 52 H s       :     0.872661  s :     0.872661

 53 H s       :     0.884601  s :     0.884601

 54 H s       :     0.876437  s :     0.876437

 55 H s       :     0.850132  s :     0.850132

 56 H s       :     0.854678  s :     0.854678

 57 H s       :     0.856542  s :     0.856542

 58 H s       :     0.862913  s :     0.862913

 59 H s       :     0.870285  s :     0.870285

 60 H s       :     0.870457  s :     0.870457

 61 H s       :     0.878344  s :     0.878344

 62 H s       :     0.875921  s :     0.875921

 63 H s       :     0.881473  s :     0.881473

 64 H s       :     0.877313  s :     0.877313

 65 H s       :     0.871826  s :     0.871826

 66 H s       :     0.883819  s :     0.883819



                      *****************************
                      * MAYER POPULATION ANALYSIS *
                      *****************************

  NA   - Mulliken gross atomic population
  ZA   - Total nuclear charge
  QA   - Mulliken gross atomic charge
  VA   - Mayer's total valence
  BVA  - Mayer's bonded valence
  FA   - Mayer's free valence

  ATOM       NA         ZA         QA         VA         BVA        FA
  0 O      8.4869     8.0000    -0.4869     2.0269     2.0269    -0.0000
  1 C      5.4368     6.0000     0.5632     3.8665     3.8665     0.0000
  2 N      7.6114     7.0000    -0.6114     2.9522     2.9522    -0.0000
  3 C      6.1315     6.0000    -0.1315     3.7929     3.7929     0.0000
  4 C      5.9394     6.0000     0.0606     3.8449     3.8449     0.0000
  5 C      6.3853     6.0000    -0.3853     3.8424     3.8424     0.0000
  6 C      5.8401     6.0000     0.1599     3.9524     3.9524    -0.0000
  7 C      6.1966     6.0000    -0.1966     3.9466     3.9466     0.0000
  8 C      6.1261     6.0000    -0.1261     3.9424     3.9424     0.0000
  9 C      6.1261     6.0000    -0.1261     3.9493     3.9493    -0.0000
 10 C      6.1279     6.0000    -0.1279     3.9466     3.9466     0.0000
 11 C      6.1720     6.0000    -0.1720     3.9215     3.9215     0.0000
 12 N      7.3704     7.0000    -0.3704     2.9432     2.9432    -0.0000
 13 C      6.1246     6.0000    -0.1246     3.8484     3.8484    -0.0000
 14 C      6.3368     6.0000    -0.3368     3.8280     3.8280     0.0000
 15 C      5.7495     6.0000     0.2505     3.8084     3.8084    -0.0000
 16 O      8.6560     8.0000    -0.6560     1.7578     1.7578     0.0000
 17 C      5.0690     6.0000     0.9310     3.8485     3.8485     0.0000
 18 F      9.3060     9.0000    -0.3060     1.0548     1.0548     0.0000
 19 F      9.3050     9.0000    -0.3050     1.0547     1.0547     0.0000
 20 F      9.3049     9.0000    -0.3049     1.0576     1.0576     0.0000
 21 C      6.3303     6.0000    -0.3303     3.8246     3.8246    -0.0000
 22 C      6.1509     6.0000    -0.1509     3.8603     3.8603    -0.0000
 23 C      6.0441     6.0000    -0.0441     3.8564     3.8564     0.0000
 24 C      5.8868     6.0000     0.1132     3.9747     3.9747     0.0000
 25 C      6.1653     6.0000    -0.1653     3.8961     3.8961     0.0000
 26 C      6.1314     6.0000    -0.1314     3.9124     3.9124    -0.0000
 27 C      6.0637     6.0000    -0.0637     3.9600     3.9600     0.0000
 28 Cl    17.0223    17.0000    -0.0223     1.0884     1.0884     0.0000
 29 C      6.1327     6.0000    -0.1327     3.9201     3.9201     0.0000
 30 C      6.1806     6.0000    -0.1806     3.9191     3.9191     0.0000
 31 C      6.2612     6.0000    -0.2612     3.8460     3.8460     0.0000
 32 C      6.2679     6.0000    -0.2679     3.8495     3.8495    -0.0000
 33 C      6.2676     6.0000    -0.2676     3.8516     3.8516     0.0000
 34 C      6.3159     6.0000    -0.3159     3.8401     3.8401     0.0000
 35 H      0.6741     1.0000     0.3259     0.8706     0.8706    -0.0000
 36 H      0.8472     1.0000     0.1528     0.9401     0.9401    -0.0000
 37 H      0.8345     1.0000     0.1655     0.9381     0.9381    -0.0000
 38 H      0.8962     1.0000     0.1038     0.9363     0.9363    -0.0000
 39 H      0.8438     1.0000     0.1562     0.9406     0.9406    -0.0000
 40 H      0.8433     1.0000     0.1567     0.9320     0.9320    -0.0000
 41 H      0.8775     1.0000     0.1225     0.9452     0.9452     0.0000
 42 H      0.8714     1.0000     0.1286     0.9368     0.9368     0.0000
 43 H      0.8707     1.0000     0.1293     0.9365     0.9365    -0.0000
 44 H      0.8687     1.0000     0.1313     0.9362     0.9362     0.0000
 45 H      0.8718     1.0000     0.1282     0.9405     0.9405     0.0000
 46 H      0.8628     1.0000     0.1372     0.9317     0.9317     0.0000
 47 H      0.8803     1.0000     0.1197     0.9386     0.9386    -0.0000
 48 H      0.8392     1.0000     0.1608     0.9409     0.9409     0.0000
 49 H      0.8410     1.0000     0.1590     0.9394     0.9394    -0.0000
 50 H      0.5924     1.0000     0.4076     0.8089     0.8089     0.0000
 51 H      0.8391     1.0000     0.1609     0.9391     0.9391    -0.0000
 52 H      0.8521     1.0000     0.1479     0.9399     0.9399    -0.0000
 53 H      0.8549     1.0000     0.1451     0.9351     0.9351    -0.0000
 54 H      0.8612     1.0000     0.1388     0.9392     0.9392    -0.0000
 55 H      0.8338     1.0000     0.1662     0.9449     0.9449    -0.0000
 56 H      0.8461     1.0000     0.1539     0.9370     0.9370     0.0000
 57 H      0.8498     1.0000     0.1502     0.9376     0.9376    -0.0000
 58 H      0.8642     1.0000     0.1358     0.9420     0.9420    -0.0000
 59 H      0.8500     1.0000     0.1500     0.9425     0.9425    -0.0000
 60 H      0.8516     1.0000     0.1484     0.9418     0.9418     0.0000
 61 H      0.8600     1.0000     0.1400     0.9369     0.9369     0.0000
 62 H      0.8615     1.0000     0.1385     0.9373     0.9373     0.0000
 63 H      0.8639     1.0000     0.1361     0.9360     0.9360     0.0000
 64 H      0.8621     1.0000     0.1379     0.9356     0.9356     0.0000
 65 H      0.8437     1.0000     0.1563     0.9350     0.9350    -0.0000
 66 H      0.8681     1.0000     0.1319     0.9412     0.9412     0.0000

  Mayer bond orders larger than 0.100000
B(  0-O ,  1-C ) :   1.7650 B(  1-C ,  2-N ) :   1.0690 B(  1-C , 23-C ) :   0.9395 
B(  2-N ,  3-C ) :   0.9483 B(  2-N , 35-H ) :   0.8202 B(  3-C ,  4-C ) :   0.9624 
B(  3-C , 36-H ) :   0.9248 B(  3-C , 37-H ) :   0.9203 B(  4-C ,  5-C ) :   0.9751 
B(  4-C , 12-N ) :   0.9622 B(  4-C , 38-H ) :   0.9023 B(  5-C ,  6-C ) :   0.9747 
B(  5-C , 39-H ) :   0.9152 B(  5-C , 40-H ) :   0.9207 B(  6-C ,  7-C ) :   1.4363 
B(  6-C , 11-C ) :   1.4197 B(  7-C ,  8-C ) :   1.4332 B(  7-C , 41-H ) :   0.9194 
B(  8-C ,  9-C ) :   1.4587 B(  8-C , 42-H ) :   0.9293 B(  9-C , 10-C ) :   1.4500 
B(  9-C , 43-H ) :   0.9302 B( 10-C , 11-C ) :   1.4427 B( 10-C , 44-H ) :   0.9294 
B( 11-C , 45-H ) :   0.9242 B( 12-N , 13-C ) :   0.9754 B( 12-N , 22-C ) :   0.9693 
B( 13-C , 14-C ) :   0.9898 B( 13-C , 46-H ) :   0.9279 B( 13-C , 47-H ) :   0.9071 
B( 14-C , 15-C ) :   0.9520 B( 14-C , 48-H ) :   0.9271 B( 14-C , 49-H ) :   0.9256 
B( 15-C , 16-O ) :   0.9047 B( 15-C , 17-C ) :   0.9301 B( 15-C , 21-C ) :   0.9601 
B( 16-O , 50-H ) :   0.7680 B( 17-C , 18-F ) :   0.9607 B( 17-C , 19-F ) :   0.9423 
B( 17-C , 20-F ) :   0.9624 B( 21-C , 22-C ) :   0.9842 B( 21-C , 51-H ) :   0.9248 
B( 21-C , 52-H ) :   0.9207 B( 22-C , 53-H ) :   0.9193 B( 22-C , 54-H ) :   0.9262 
B( 23-C , 24-C ) :   0.9725 B( 23-C , 31-C ) :   0.9680 B( 23-C , 34-C ) :   0.9652 
B( 24-C , 25-C ) :   1.4074 B( 24-C , 30-C ) :   1.4292 B( 25-C , 26-C ) :   1.4412 
B( 25-C , 55-H ) :   0.9062 B( 26-C , 27-C ) :   1.4102 B( 26-C , 56-H ) :   0.9235 
B( 27-C , 28-Cl) :   1.0106 B( 27-C , 29-C ) :   1.4264 B( 29-C , 30-C ) :   1.4278 
B( 29-C , 57-H ) :   0.9232 B( 30-C , 58-H ) :   0.9140 B( 31-C , 32-C ) :   0.9931 
B( 31-C , 59-H ) :   0.9323 B( 31-C , 60-H ) :   0.9369 B( 32-C , 33-C ) :   0.9958 
B( 32-C , 61-H ) :   0.9453 B( 32-C , 62-H ) :   0.9499 B( 33-C , 34-C ) :   0.9889 
B( 33-C , 63-H ) :   0.9465 B( 33-C , 64-H ) :   0.9513 B( 34-C , 65-H ) :   0.9326 
B( 34-C , 66-H ) :   0.9290 

-------
TIMINGS
-------

Total SCF time: 0 days 0 hours 11 min 3 sec 

Total time                  ....     663.372 sec
Sum of individual times     ....     663.018 sec  ( 99.9%)

SCF preparation             ....       0.383 sec  (  0.1%)
Fock matrix formation       ....     659.926 sec  ( 99.5%)
  Startup                   ....       0.095 sec  (  0.0% of F)
  Split-RI-J                ....      86.167 sec  ( 13.1% of F)
  Chain of spheres X        ....     520.717 sec  ( 78.9% of F)
  XC integration            ....      51.785 sec  (  7.8% of F)
    XC Preparation          ....       0.000 sec  (  0.0% of XC)
    Basis function eval.    ....      19.752 sec  ( 38.1% of XC)
    Density eval.           ....      13.616 sec  ( 26.3% of XC)
    XC-Functional eval.     ....       2.340 sec  (  4.5% of XC)
    XC-Potential eval.      ....      14.236 sec  ( 27.5% of XC)
Diagonalization             ....       0.000 sec  (  0.0%)
Density matrix formation    ....       0.408 sec  (  0.1%)
Total Energy calculation    ....       0.076 sec  (  0.0%)
Population analysis         ....       0.090 sec  (  0.0%)
Orbital Transformation      ....       0.230 sec  (  0.0%)
Orbital Orthonormalization  ....       0.000 sec  (  0.0%)
DIIS solution               ....       1.272 sec  (  0.2%)
SOSCF solution              ....       0.634 sec  (  0.1%)
Finished LeanSCF after 663.4 sec

Maximum memory used throughout the entire LEANSCF-calculation: 106.5 MB

-------------------------   --------------------
FINAL SINGLE POINT ENERGY     -2066.763661435994
-------------------------   --------------------


------------------------------------------------------------------------------
                              ORCA PROPERTY CALCULATIONS
------------------------------------------------------------------------------

GBWName                                 ... /home/nmrbox/aojoawo/Documents/ERDOS/inputs/CHEMBL4208555.gbw
Number of atoms                         ...     67
Number of basis functions               ...    558
Max core memory                         ...   1024 MB

Electric properties:
Dipole moment                           ... YES
Quadrupole moment                       ...  NO
Static polarizability (Dipole/Dipole)   ...  NO
Static polarizability (Dipole/Quad.)    ...  NO
Static polarizability (Quad./Quad.)     ...  NO
Static polarizability (Velocity)        ...  NO

Atomic electric properties:
Dipole moment                           ...  NO
Quadrupole moment                       ...  NO
Static polarizability                   ...  NO

Choice of electric origin               ... Center of mass
Position of electric origin             ...     0.006134     0.170090     0.585942

General magnetic properties:
Magnetizability                         ...  NO

EPR properties:
g-Tensor (aka g-matrix)                 ...  NO
Zero-Field splitting spin-orbit         ...  NO
Zero-field splitting spin-spin          ...  NO
Hyperfine couplings                     ...  NO (   0 nuclei)
Quadrupole couplings                    ...  NO (   0 nuclei)
Contact density                         ...  NO (   0 nuclei)

NMR properties:
Chemical shifts                         ...  NO (   0 nuclei)
Spin-rotation constants                 ...  NO (   0 nuclei)
Spin-spin couplings                     ...  NO (   0 nuclei,    0 pairs)

Choice of magnetic origin               ... GIAO
Position of magnetic origin             ...     0.000000     0.000000     0.000000

Properties with geometric perturbations:
SCF Hessian                             ...  NO
IR spectrum                             ...  NO
VCD spectrum                            ...  NO
X-ray spectroscopy properties:
SCF XES/XAS/RIXS spectra                ...  NO


-------------
DIPOLE MOMENT
-------------

Method             : SCF
Type of density    : Electron Density
Multiplicity       :   1
Irrep              :   0
Energy             : -2066.7636614359944360 Eh
Relativity type    : 
Basis              : AO
                                X                 Y                 Z
Electronic contribution:      8.749775975       8.406960004      17.749734430
Nuclear contribution   :     -9.308167403      -9.629885526     -18.761965233
                        -----------------------------------------
Total Dipole Moment    :     -0.558391428      -1.222925523      -1.012230803
                        -----------------------------------------
Magnitude (a.u.)       :      1.682842541
Magnitude (Debye)      :      4.277445806



--------------------
Rotational spectrum 
--------------------
 
Rotational constants in cm-1:             0.004608             0.001811             0.001486 
Rotational constants in MHz :           138.139058            54.286539            44.558275 

Dipole components along the rotational axes: 
x,y,z [a.u.] :    -0.913598    -1.329098    -0.480411 
x,y,z [Debye]:    -2.322183    -3.378300    -1.221107 

 

Dipole moment calculation done in   0.0 sec 

Maximum memory used throughout the entire PROP-calculation: 50.8 MB

--------------------------------
SUGGESTED CITATIONS FOR THIS RUN
--------------------------------

Below you find a list of papers that are relevant to this ORCA run
We neither can nor want to force you to cite these papers, but we appreciate if you do
You receive ORCA, which is the product of decades of hard work by many enthusiastic individuals, for free
The only thing we kindly ask in return is that you cite our papers,
We deeply appreciate it, if you show your appreciation for ORCA by not just citing the generic ORCA reference.

Please note that relegating all ORCA citations to the supporting information does *not* help us.
SI sections are not indexed - citations you put there will not count into any citation statistics
But we need these citations in order to attract the funding resources that allow us to do what we are doing

Therefore, if you are a happy ORCA user, please consider citing a few of the papers listed below in the main body of your paper

In addition to the list printed below, the program has created the file /home/nmrbox/aojoawo/Documents/ERDOS/inputs/CHEMBL4208555.bibtex that contains the list in bibtex format
You can import this file easily into all common literature databanks and citation aid programs


List of essential papers. We consider these as the minimum necessary citations

  1. Neese,F.
     Software update: the ORCA program system, version 5.0
     WIRES Comput. Molec. Sci., 2022 12(1)e1606
     doi.org/10.1002/wcms.1606

List of papers to cite with high priority. The work reported in these papers was absolutely
necessary for this run to complete.
Our perspective: the developers of density functionals and basis sets usually get cited in chemistry papers
Good! But without the algorithms to do something with them, the functionals or basis sets would not do anything.
Hence, in our opinion, the algorithm design and method developments papers are equally worthy of getting cited

  1. Neese,F.
     An improvement of the resolution of the identity approximation for the formation of the Coulomb matrix
     J. Comp. Chem., 2003 24(14)1740-1747
     doi.org/10.1002/jcc.10318
  2. Neese,F.; Wennmohs,F.; Hansen,A.; Becker,U.
     Efficient, approximate and parallel Hartree-Fock and hybrid DFT calculations. A 'chain-of-spheres' algorithm for the Hartree-Fock exchange
     Chem. Phys., 2009 356(1-3)98-109
     doi.org/10.1016/j.chemphys.2008.10.036
  3. Helmich-Paris,B.; de Souza,B.; Neese,F.; Izsák,R.
     An improved chain of spheres for exchange algorithm
     J. Chem. Phys., 2021 155 104109
     doi.org/doi: 10.1063/5.0058766.
  4. Neese,F.
     The SHARK Integral Generation and Digestion System
     J. Comp. Chem., 2022  1-16
     doi.org/10.1002/jcc.26942

List of suggested additional citations. These are papers that are important in the 'surrounding' of 
of this run, or papers that preceded the highly important papers. If you like your results we are grateful for a citation.

  1. Izsak,R.; Neese,F.
     An overlap fitted chain of spheres exchange method
     J. Chem. Phys., 2011 135 144105
     doi.org/10.1063/1.3646921
  2. Izsak,R.; Hansen,A.; Neese,F.
     The resolution of identity and chain of spheres approximations for the LPNO-CCSD singles Fock term
     Molec. Phys., 2012 110 2413-2417
     doi.org/10.1080/00268976.2012.687466
  3. Neese,F.
     The ORCA program system
     WIRES Comput. Molec. Sci., 2012 2(1)73-78
     doi.org/10.1002/wcms.81
  4. Izsak,R.; Neese,F.; Klopper,W.
     Robust fitting techniques in the chain of spheres approximation to the Fock exchange: The role of the complementary space
     J. Chem. Phys., 2013 139 
     doi.org/10.1063/1.4819264
  5. Neese,F.
     Software update: the ORCA program system, version 4.0
     WIRES Comput. Molec. Sci., 2018 8(1)1-6
     doi.org/10.1002/wcms.1327
  6. Neese,F.; Wennmohs,F.; Becker,U.; Riplinger,C.
     The ORCA quantum chemistry program package
     J. Chem. Phys., 2020 152 Art. No. L224108
     doi.org/10.1063/5.0004608

List of optional additional citations

  1. Neese,F.
     Approximate second-order SCF convergence for spin unrestricted wavefunctions
     Chem. Phys. Lett., 2000 325(1-3)93-98
     doi.org/10.1016/s0009-2614(00)00662-x

Timings for individual modules:

Sum of individual times          ...      693.959 sec (=  11.566 min)
Startup calculation              ...       19.914 sec (=   0.332 min)   2.9 %
SCF iterations                   ...      673.800 sec (=  11.230 min)  97.1 %
Property calculations            ...        0.246 sec (=   0.004 min)   0.0 %
                             ****ORCA TERMINATED NORMALLY****
TOTAL RUN TIME: 0 days 0 hours 11 minutes 34 seconds 756 msec
