
                                 *****************
                                 * O   R   C   A *
                                 *****************

                                            #,                                       
                                            ###                                      
                                            ####                                     
                                            #####                                    
                                            ######                                   
                                           ########,                                 
                                     ,,################,,,,,                         
                               ,,#################################,,                 
                          ,,##########################################,,             
                       ,#########################################, ''#####,          
                    ,#############################################,,   '####,        
                  ,##################################################,,,,####,       
                ,###########''''           ''''###############################       
              ,#####''   ,,,,##########,,,,          '''####'''          '####       
            ,##' ,,,,###########################,,,                        '##       
           ' ,,###''''                  '''############,,,                           
         ,,##''                                '''############,,,,        ,,,,,,###''
      ,#''                                            '''#######################'''  
     '                                                          ''''####''''         
             ,#######,   #######,   ,#######,      ##                                
            ,#'     '#,  ##    ##  ,#'     '#,    #''#        ,####,   ,####,        
            ##       ##  ##   ,#'  ##            #'  '#       #'       #'  '#        
            ##       ##  #######   ##           ,######,      #####,   #    #        
            '#,     ,#'  ##    ##  '#,     ,#' ,#      #,     #,   #   #,  ,#        
             '#######'   ##     ##  '#######'  #'      '#     '####' # '####'        



                #########################################################
                #                        -***-                          #
                #          Department of theory and spectroscopy        #
                #                                                       #
                #                      Frank Neese                      #
                #                                                       #
                #     Directorship, Architecture, Infrastructure        #
                #                    SHARK, DRIVERS                     #
                #        Core code/Algorithms in most modules           #
                #                                                       #
                #        Max Planck Institute fuer Kohlenforschung      #
                #                Kaiser Wilhelm Platz 1                 #
                #                 D-45470 Muelheim/Ruhr                 #
                #                      Germany                          #
                #                                                       #
                #                  All rights reserved                  #
                #                        -***-                          #
                #########################################################


                         Program Version 6.0.0  -   RELEASE  -


 With contributions from (in alphabetic order):
   Daniel Aravena         : Magnetic Suceptibility
   Michael Atanasov       : Ab Initio Ligand Field Theory (pilot matlab implementation)
   Alexander A. Auer      : GIAO ZORA, VPT2 properties, NMR spectrum
   Ute Becker             : All parallelization in ORCA, NUMFREQ, NUMCALC
   Giovanni Bistoni       : ED, misc. LED, open-shell LED, HFLD
   Martin Brehm           : Molecular dynamics
   Dmytro Bykov           : pre 5.0 version of the SCF Hessian
   Marcos Casanova-Páez   : Triplet and SCS-CIS(D). UHF-(DLPNO)-IP/EA/STEOM-CCSD. UHF-CVS-IP/STEOM-CCSD
   Vijay G. Chilkuri      : MRCI spin determinant printing, contributions to CSF-ICE
   Pauline Colinet        : FMM embedding
   Dipayan Datta          : RHF DLPNO-CCSD density
   Achintya Kumar Dutta   : EOM-CC, STEOM-CC
   Nicolas Foglia         : Exact transition moments, OPA infrastructure, MCD improvements
   Dmitry Ganyushin       : Spin-Orbit,Spin-Spin,Magnetic field MRCI
   Miquel Garcia          : C-PCM and meta-GGA Hessian, CCSD/C-PCM, Gaussian charge scheme
   Tiago L. C. Gouveia    : GS-ROHF, GS-ROCIS
   Yang Guo               : DLPNO-NEVPT2, F12-NEVPT2, CIM, IAO-localization
   Andreas Hansen         : Spin unrestricted coupled pair/coupled cluster methods
   Ingolf Harden          : AUTO-CI MPn and infrastructure 
   Benjamin Helmich-Paris : MC-RPA, TRAH-(SCF,CASSCF), AVAS, COSX integrals, SCF dyn. polar.
   Lee Huntington         : MR-EOM, pCC
   Robert Izsak           : Overlap fitted RIJCOSX, COSX-SCS-MP3, EOM
   Riya Kayal             : Wick's Theorem for AUTO-CI, AUTO-CI UHF-CCSDT
   Emily Kempfer          : AUTO-CI, RHF CISDT and CCSDT
   Christian Kollmar      : KDIIS, OOCD, Brueckner-CCSD(T), CCSD density, CASPT2, CASPT2-K, improved NEVPT2
   Axel Koslowski         : Symmetry handling
   Simone Kossmann        : Meta GGA functionals, TD-DFT gradient, OOMP2, (MP2 Hessian; deprecated post 5.0)
   Lucas Lang             : DCDCAS
   Marvin Lechner         : AUTO-CI (C++ implementation), FIC-MRCC
   Spencer Leger          : CASSCF response
   Dagmar Lenk            : GEPOL surface, SMD, ORCA-2-JSON
   Dimitrios Liakos       : Extrapolation schemes; Compound Job, initial MDCI parallelization
   Dimitrios Manganas     : Further ROCIS development; embedding schemes. LFT, Crystal Embedding
   Dimitrios Pantazis     : SARC Basis sets
   Anastasios Papadopoulos: AUTO-CI, single reference methods and gradients
   Taras Petrenko         : pre 6.0 DFT Hessian and TD-DFT gradient, (ASA, deprecated), ECA, 1-Electron XAS/XES, NRVS
   Peter Pinski           : DLPNO-MP2, DLPNO-MP2 Gradient
   Christoph Reimann      : Effective Core Potentials
   Marius Retegan         : Local ZFS, SOC
   Christoph Riplinger    : Optimizer, TS searches, QM/MM, DLPNO-CCSD(T), (RO)-DLPNO pert. Triples
   Michael Roemelt        : Original ROCIS implementation
   Masaaki Saitow         : Open-shell DLPNO-CCSD energy and density
   Barbara Sandhoefer     : DKH picture change effects
   Kantharuban Sivalingam : CASSCF convergence/infrastructure, NEVPT2 and variants, FIC-MRCI
   Bernardo de Souza      : ESD, SOC TD-DFT
   Georgi Stoychev        : AutoAux, RI-MP2 NMR, DLPNO-MP2 response, X2C
   Van Anh Tran           : RI-MP2 g-tensors
   Willem Van den Heuvel  : Paramagnetic NMR
   Zikuan Wang            : NOTCH, Electric field optimization 
   Frank Wennmohs         : Technical directorship and infrastructure
   Hang Xu                : AUTO-CI-Response properties 


 We gratefully acknowledge several colleagues who have allowed us to
 interface, adapt or use parts of their codes:
   Stefan Grimme, W. Hujo, H. Kruse, P. Pracht,  : VdW corrections, initial TS optimization,
                  C. Bannwarth, S. Ehlert,         DFT functionals, gCP, sTDA/sTD-DF
                  L. Wittmann, M. Mueller
   Ed Valeev, F. Pavosevic, A. Kumar             : LibInt (2-el integral package), F12 methods
   Garnet Chan, S. Sharma, J. Yang, R. Olivares  : DMRG
   Ulf Ekstrom                                   : XCFun DFT Library
   Mihaly Kallay                                 : mrcc  (arbitrary order and MRCC methods)
   Frank Weinhold                                : gennbo (NPA and NBO analysis)
   Simon Mueller                                 : openCOSMO-RS
   Christopher J. Cramer and Donald G. Truhlar   : smd solvation model
   Lars Goerigk                                  : TD-DFT with DH, B97 family of functionals
   V. Asgeirsson, H. Jonsson                     : NEB implementation
   FAccTs GmbH                                   : IRC, NEB, NEB-TS, DLPNO-Multilevel, CI-OPT
                                                   MM, QMMM, 2- and 3-layer-ONIOM, Crystal-QMMM,
                                                   LR-CPCM, SF, NACMEs, symmetry and pop. for TD-DFT,
                                                   nearIR, NL-DFT gradient (VV10), updates on ESD,
                                                   ML-optimized integration grids, MBIS, APM,
                                                   GOAT, DOCKER, SOLVATOR, interface openCOSMO-RS
   S Lehtola, MJT Oliveira, MAL Marques          : LibXC Library
   Liviu Ungur et al                             : ANISO software


 Your calculation uses the libint2 library for the computation of 2-el integrals
 For citations please refer to: http://libint.valeyev.net

 Your ORCA version has been built with support for libXC version: 6.2.2
 For citations please refer to: https://libxc.gitlab.io

 This ORCA versions uses:
   CBLAS   interface :  Fast vector & matrix operations
   LAPACKE interface :  Fast linear algebra routines
   SCALAPACK package :  Parallel linear algebra routines
   Shared memory     :  Shared parallel matrices
   BLAS/LAPACK       :  OpenBLAS 0.3.27  USE64BITINT DYNAMIC_ARCH NO_AFFINITY SkylakeX SINGLE_THREADED
        Core in use  :  SkylakeX
   Copyright (c) 2011-2014, The OpenBLAS Project


Warning: RI is on but no J-basis has been assigned. Assigning Def2/J (nothing to worry about!)
================================================================================

----- Orbital basis set information -----
Your calculation utilizes the basis: 6-31G*
   H-He, Li-Ne : W. J. Hehre, R. Ditchfield and J.A. Pople, J. Chem. Phys. 56, 2257 (1972).
                 Note: He and Ne are unpublished basis sets taken from the Gaussian program.
                 Note: Li and B from J. D. Dill and J. A. Pople, J. Chem. Phys. 62, 2921 (1975).
   Na - Ar     : M. M. Francl, W. J. Pietro, W. J. Hehre, J. S. Binkley, M. S. Gordon, 
                 D. J. DeFrees and J. A. Pople, J. Chem. Phys. 77, 3654 (1982).
   K - Zn      : V. A. Rassolov, J. A. Pople, M. A. Ratner, and T. L. Windus, J. Chem. Phys. 109, 1223 (1998).

----- AuxJ basis set information -----
Your calculation utilizes the auxiliary basis: def2/J
   F. Weigend, Phys. Chem. Chem. Phys. 8, 1057 (2006).

================================================================================
                                        WARNINGS
                       Please study these warnings very carefully!
================================================================================


================================================================================
                                       INPUT FILE
================================================================================
NAME = /home/nmrbox/aojoawo/Documents/ERDOS/inputs/CHEMBL4248352.inp
|  1> ! B3LYP 6-31G* SP
|  2> 
|  3> * xyz 0 1
|  4> O -0.0043 -2.0415 -1.5571
|  5> C 0.4745 -1.2528 -0.6961
|  6> N -0.3914 -0.6952 0.3091
|  7> C -1.8264 -1.0055 0.3510
|  8> C -2.4505 -0.6177 1.6771
|  9> C -1.9118 -1.1070 2.8784
| 10> C -2.5132 -0.7670 4.0917
| 11> C -3.6494 0.0428 4.1015
| 12> C -4.1728 0.4981 2.8903
| 13> N -3.5729 0.1576 1.7188
| 14> C -2.5649 -0.4159 -0.8416
| 15> N -3.4121 -1.2582 -1.4990
| 16> C -4.1425 -0.8789 -2.5763
| 17> C -4.0404 0.4182 -3.0605
| 18> C -3.1954 1.3204 -2.4203
| 19> C -2.4593 0.9411 -1.2798
| 20> C -1.5247 1.9652 -0.6575
| 21> F -1.9208 3.2545 -0.9715
| 22> F -1.5069 1.8727 0.7191
| 23> F -0.2477 1.7751 -1.1485
| 24> C 1.9263 -0.9391 -0.7310
| 25> C 2.8119 -1.8135 -1.3903
| 26> C 4.1818 -1.5407 -1.4419
| 27> C 4.6895 -0.3831 -0.8406
| 28> C 6.0575 -0.0828 -0.8783
| 29> C 6.5281 1.0844 -0.2732
| 30> C 5.6261 1.9408 0.3631
| 31> N 4.3008 1.6377 0.3931
| 32> C 3.8119 0.5070 -0.1856
| 33> C 2.4414 0.2291 -0.1351
| 34> H 0.0280 -0.1545 1.0974
| 35> H -1.9244 -2.1135 0.2944
| 36> H -1.0367 -1.7449 2.8736
| 37> H -2.1014 -1.1344 5.0227
| 38> H -4.1231 0.3099 5.0372
| 39> H -5.0578 1.1200 2.8806
| 40> H -4.7969 -1.5908 -3.0611
| 41> H -4.6093 0.7231 -3.9295
| 42> H -3.1189 2.3210 -2.8264
| 43> H 2.4455 -2.7182 -1.8595
| 44> H 4.8418 -2.2330 -1.9508
| 45> H 6.7573 -0.7456 -1.3733
| 46> H 7.5832 1.3245 -0.2979
| 47> H 5.9805 2.8480 0.8339
| 48> H 1.7895 0.9426 0.3497
| 49> *
| 50> 
| 51>                          ****END OF INPUT****
================================================================================

                       ****************************
                       * Single Point Calculation *
                       ****************************

---------------------------------
CARTESIAN COORDINATES (ANGSTROEM)
---------------------------------
  O     -0.004300   -2.041500   -1.557100
  C      0.474500   -1.252800   -0.696100
  N     -0.391400   -0.695200    0.309100
  C     -1.826400   -1.005500    0.351000
  C     -2.450500   -0.617700    1.677100
  C     -1.911800   -1.107000    2.878400
  C     -2.513200   -0.767000    4.091700
  C     -3.649400    0.042800    4.101500
  C     -4.172800    0.498100    2.890300
  N     -3.572900    0.157600    1.718800
  C     -2.564900   -0.415900   -0.841600
  N     -3.412100   -1.258200   -1.499000
  C     -4.142500   -0.878900   -2.576300
  C     -4.040400    0.418200   -3.060500
  C     -3.195400    1.320400   -2.420300
  C     -2.459300    0.941100   -1.279800
  C     -1.524700    1.965200   -0.657500
  F     -1.920800    3.254500   -0.971500
  F     -1.506900    1.872700    0.719100
  F     -0.247700    1.775100   -1.148500
  C      1.926300   -0.939100   -0.731000
  C      2.811900   -1.813500   -1.390300
  C      4.181800   -1.540700   -1.441900
  C      4.689500   -0.383100   -0.840600
  C      6.057500   -0.082800   -0.878300
  C      6.528100    1.084400   -0.273200
  C      5.626100    1.940800    0.363100
  N      4.300800    1.637700    0.393100
  C      3.811900    0.507000   -0.185600
  C      2.441400    0.229100   -0.135100
  H      0.028000   -0.154500    1.097400
  H     -1.924400   -2.113500    0.294400
  H     -1.036700   -1.744900    2.873600
  H     -2.101400   -1.134400    5.022700
  H     -4.123100    0.309900    5.037200
  H     -5.057800    1.120000    2.880600
  H     -4.796900   -1.590800   -3.061100
  H     -4.609300    0.723100   -3.929500
  H     -3.118900    2.321000   -2.826400
  H      2.445500   -2.718200   -1.859500
  H      4.841800   -2.233000   -1.950800
  H      6.757300   -0.745600   -1.373300
  H      7.583200    1.324500   -0.297900
  H      5.980500    2.848000    0.833900
  H      1.789500    0.942600    0.349700

----------------------------
CARTESIAN COORDINATES (A.U.)
----------------------------
  NO LB      ZA    FRAG     MASS         X           Y           Z
   0 O     8.0000    0    15.999   -0.008126   -3.857876   -2.942493
   1 C     6.0000    0    12.011    0.896675   -2.367449   -1.315438
   2 N     7.0000    0    14.007   -0.739639   -1.313738    0.584114
   3 C     6.0000    0    12.011   -3.451396   -1.900120    0.663294
   4 C     6.0000    0    12.011   -4.630774   -1.167284    3.169260
   5 C     6.0000    0    12.011   -3.612778   -2.091927    5.439388
   6 C     6.0000    0    12.011   -4.749260   -1.449420    7.732192
   7 C     6.0000    0    12.011   -6.896367    0.080880    7.750712
   8 C     6.0000    0    12.011   -7.885449    0.941273    5.461875
   9 N     7.0000    0    14.007   -6.751803    0.297821    3.248061
  10 C     6.0000    0    12.011   -4.846959   -0.785937   -1.590394
  11 N     7.0000    0    14.007   -6.447935   -2.377653   -2.832699
  12 C     6.0000    0    12.011   -7.828191   -1.660880   -4.868501
  13 C     6.0000    0    12.011   -7.635249    0.790283   -5.783507
  14 C     6.0000    0    12.011   -6.038431    2.495194   -4.573704
  15 C     6.0000    0    12.011   -4.647403    1.778421   -2.418472
  16 C     6.0000    0    12.011   -2.881265    3.713690   -1.242495
  17 F     9.0000    0    18.998   -3.629786    6.150114   -1.835869
  18 F     9.0000    0    18.998   -2.847628    3.538890    1.358902
  19 F     9.0000    0    18.998   -0.468085    3.354453   -2.170350
  20 C     6.0000    0    12.011    3.640179   -1.774642   -1.381390
  21 C     6.0000    0    12.011    5.313721   -3.427018   -2.627286
  22 C     6.0000    0    12.011    7.902457   -2.911501   -2.724796
  23 C     6.0000    0    12.011    8.861871   -0.723954   -1.588504
  24 C     6.0000    0    12.011   11.447016   -0.156469   -1.659746
  25 C     6.0000    0    12.011   12.336321    2.049219   -0.516273
  26 C     6.0000    0    12.011   10.631788    3.667580    0.686160
  27 N     7.0000    0    14.007    8.127334    3.094804    0.742851
  28 C     6.0000    0    12.011    7.203447    0.958091   -0.350733
  29 C     6.0000    0    12.011    4.613577    0.432936   -0.255302
  30 H     1.0000    0     1.008    0.052912   -0.291963    2.073785
  31 H     1.0000    0     1.008   -3.636589   -3.993936    0.556335
  32 H     1.0000    0     1.008   -1.959079   -3.297383    5.430317
  33 H     1.0000    0     1.008   -3.971070   -2.143705    9.491527
  34 H     1.0000    0     1.008   -7.791530    0.585626    9.518928
  35 H     1.0000    0     1.008   -9.557857    2.116493    5.443545
  36 H     1.0000    0     1.008   -9.064827   -3.006176   -5.784641
  37 H     1.0000    0     1.008   -8.710315    1.366461   -7.425679
  38 H     1.0000    0     1.008   -5.893867    4.386054   -5.341122
  39 H     1.0000    0     1.008    4.621325   -5.136654   -3.513946
  40 H     1.0000    0     1.008    9.149676   -4.219758   -3.686478
  41 H     1.0000    0     1.008   12.769446   -1.408980   -2.595161
  42 H     1.0000    0     1.008   14.330171    2.502942   -0.562949
  43 H     1.0000    0     1.008   11.301507    5.381940    1.575843
  44 H     1.0000    0     1.008    3.381665    1.781256    0.660837

--------------------------------
INTERNAL COORDINATES (ANGSTROEM)
--------------------------------
 O      0   0   0     0.000000000000     0.00000000     0.00000000
 C      1   0   0     1.261989750355     0.00000000     0.00000000
 N      2   1   0     1.439141275205   119.36716444     0.00000000
 C      3   2   1     1.468763663766   121.72998358   359.18140544
 C      4   3   2     1.516057670407   111.90747426   164.80443629
 C      5   4   3     1.404540447976   120.07486236   305.27835678
 C      6   5   4     1.396201579286   119.55197462   181.42253428
 C      7   6   5     1.395285820182   119.88062698     0.64324664
 C      8   7   6     1.395797653673   119.24701499     0.26504644
 N      9   8   7     1.359497153362   120.03877835   359.67756589
 C      4   3   2     1.521612687250   111.71328805   292.30166754
 N     11   4   3     1.363595207530   116.10733458   132.25306583
 C     12  11   4     1.355702010030   123.02558164   179.79287619
 C     13  12  11     1.388287599887   119.92946490     0.32448056
 C     14  13  12     1.392065328927   119.32580987   359.30413293
 C     15  14  13     1.409415463942   120.98106843   359.09427381
 C     16  15  14     1.519708939238   118.11183107   178.18164814
 F     17  16  15     1.384841398861   111.01660854    23.96038978
 F     17  16  15     1.379819064225   111.79514201   143.35906760
 F     17  16  15     1.381284912681   109.28420645   264.71931978
 C      2   1   3     1.485714959203   119.12204164   178.99643165
 C     21   2   1     1.408381769976   119.62752152   339.10164867
 C     22  21   2     1.397751197460   120.82291390   179.80597726
 C     23  22  21     1.399770959836   120.06760715   359.64004522
 C     24  23  22     1.401080076227   121.32104888   180.10405216
 C     25  24  23     1.396411905564   119.77154261   179.69075710
 C     26  25  24     1.397105096262   119.48137731   359.95504647
 N     27  26  25     1.359849146045   120.17457328     0.06780177
 C     28  27  26     1.361028798373   121.72742583     0.03094289
 C     29  28  27     1.399303008644   120.09692596   180.04438837
 H      3   2   1     1.043872473054   119.10537433   171.36986129
 H      4   3   2     1.113764589130   107.13895569    49.94953453
 H      6   5   4     1.082930958095   120.75383185     1.37273167
 H      7   6   5     1.082276766821   120.06444826   180.37803273
 H      8   7   6     1.082251629705   120.38015831   179.89176889
 H      9   8   7     1.081701761115   120.13989522   179.50032843
 H     13  12  11     1.081698668761   119.86450361   179.80404573
 H     14  13  12     1.082484281641   120.29854440   179.05663312
 H     15  14  13     1.082575549327   117.99558630   178.93825929
 H     22  21   2     1.082995701746   120.57831619   359.15356516
 H     23  22  21     1.083447506804   119.31813129   179.65596057
 H     25  24  23     1.083535361675   120.78271817   359.76549864
 H     26  25  24     1.082355814878   120.26832306   180.02907846
 H     27  26  25     1.081787335847   120.05000394   180.06630773
 H     30  29  28     1.081243219632   118.40071064     1.46882320

---------------------------
INTERNAL COORDINATES (A.U.)
---------------------------
 O      0   0   0     0.000000000000     0.00000000     0.00000000
 C      1   0   0     2.384815011986     0.00000000     0.00000000
 N      2   1   0     2.719582878161   119.36716444     0.00000000
 C      3   2   1     2.775561079973   121.72998358   359.18140544
 C      4   3   2     2.864933800300   111.90747426   164.80443629
 C      5   4   3     2.654196790689   120.07486236   305.27835678
 C      6   5   4     2.638438612598   119.55197462   181.42253428
 C      7   6   5     2.636708078687   119.88062698     0.64324664
 C      8   7   6     2.637675303812   119.24701499     0.26504644
 N      9   8   7     2.569077299700   120.03877835   359.67756589
 C      4   3   2     2.875431260802   111.71328805   292.30166754
 N     11   4   3     2.576821499760   116.10733458   132.25306583
 C     12  11   4     2.561905518164   123.02558164   179.79287619
 C     13  12  11     2.623483358905   119.92946490     0.32448056
 C     14  13  12     2.630622232199   119.32580987   359.30413293
 C     15  14  13     2.663409235765   120.98106843   359.09427381
 C     16  15  14     2.871833698432   118.11183107   178.18164814
 F     17  16  15     2.616970982764   111.01660854    23.96038978
 F     17  16  15     2.607480145750   111.79514201   143.35906760
 F     17  16  15     2.610250197884   109.28420645   264.71931978
 C      2   1   3     2.807594385964   119.12204164   178.99643165
 C     21   2   1     2.661455837261   119.62752152   339.10164867
 C     22  21   2     2.641366966559   120.82291390   179.80597726
 C     23  22  21     2.645183764306   120.06760715   359.64004522
 C     24  23  22     2.647657635762   121.32104888   180.10405216
 C     25  24  23     2.638836071662   119.77154261   179.69075710
 C     26  25  24     2.640146012240   119.48137731   359.95504647
 N     27  26  25     2.569742469472   120.17457328     0.06780177
 C     28  27  26     2.571971689304   121.72742583     0.03094289
 C     29  28  27     2.644299464709   120.09692596   180.04438837
 H      3   2   1     1.972633092811   119.10537433   171.36986129
 H      4   3   2     2.104710051115   107.13895569    49.94953453
 H      6   5   4     2.046442932744   120.75383185     1.37273167
 H      7   6   5     2.045206690397   120.06444826   180.37803273
 H      8   7   6     2.045159188133   120.38015831   179.89176889
 H      9   8   7     2.044120087088   120.13989522   179.50032843
 H     13  12  11     2.044114243386   119.86450361   179.80404573
 H     14  13  12     2.045598836576   120.29854440   179.05663312
 H     15  14  13     2.045771307507   117.99558630   178.93825929
 H     22  21   2     2.046565280514   120.57831619   359.15356516
 H     23  22  21     2.047419068340   119.31813129   179.65596057
 H     25  24  23     2.047585089985   120.78271817   359.76549864
 H     26  25  24     2.045356069576   120.26832306   180.02907846
 H     27  26  25     2.044281799896   120.05000394   180.06630773
 H     30  29  28     2.043253569264   118.40071064     1.46882320

---------------------
BASIS SET INFORMATION
---------------------
There are 5 groups of distinct atoms

 Group   1 Type O   : 10s4p1d contracted to 3s2p1d pattern {631/31/1}
 Group   2 Type C   : 10s4p1d contracted to 3s2p1d pattern {631/31/1}
 Group   3 Type N   : 10s4p1d contracted to 3s2p1d pattern {631/31/1}
 Group   4 Type F   : 10s4p1d contracted to 3s2p1d pattern {631/31/1}
 Group   5 Type H   : 4s contracted to 2s pattern {31}

Atom   0O    basis set group =>   1
Atom   1C    basis set group =>   2
Atom   2N    basis set group =>   3
Atom   3C    basis set group =>   2
Atom   4C    basis set group =>   2
Atom   5C    basis set group =>   2
Atom   6C    basis set group =>   2
Atom   7C    basis set group =>   2
Atom   8C    basis set group =>   2
Atom   9N    basis set group =>   3
Atom  10C    basis set group =>   2
Atom  11N    basis set group =>   3
Atom  12C    basis set group =>   2
Atom  13C    basis set group =>   2
Atom  14C    basis set group =>   2
Atom  15C    basis set group =>   2
Atom  16C    basis set group =>   2
Atom  17F    basis set group =>   4
Atom  18F    basis set group =>   4
Atom  19F    basis set group =>   4
Atom  20C    basis set group =>   2
Atom  21C    basis set group =>   2
Atom  22C    basis set group =>   2
Atom  23C    basis set group =>   2
Atom  24C    basis set group =>   2
Atom  25C    basis set group =>   2
Atom  26C    basis set group =>   2
Atom  27N    basis set group =>   3
Atom  28C    basis set group =>   2
Atom  29C    basis set group =>   2
Atom  30H    basis set group =>   5
Atom  31H    basis set group =>   5
Atom  32H    basis set group =>   5
Atom  33H    basis set group =>   5
Atom  34H    basis set group =>   5
Atom  35H    basis set group =>   5
Atom  36H    basis set group =>   5
Atom  37H    basis set group =>   5
Atom  38H    basis set group =>   5
Atom  39H    basis set group =>   5
Atom  40H    basis set group =>   5
Atom  41H    basis set group =>   5
Atom  42H    basis set group =>   5
Atom  43H    basis set group =>   5
Atom  44H    basis set group =>   5
---------------------------------
AUXILIARY/J BASIS SET INFORMATION
---------------------------------
There are 5 groups of distinct atoms

 Group   1 Type O   : 12s5p4d2f1g contracted to 6s4p3d1f1g pattern {711111/2111/211/2/1}
 Group   2 Type C   : 12s5p4d2f1g contracted to 6s4p3d1f1g pattern {711111/2111/211/2/1}
 Group   3 Type N   : 12s5p4d2f1g contracted to 6s4p3d1f1g pattern {711111/2111/211/2/1}
 Group   4 Type F   : 12s5p4d2f1g contracted to 6s4p3d1f1g pattern {711111/2111/211/2/1}
 Group   5 Type H   : 5s2p1d contracted to 3s1p1d pattern {311/2/1}

Atom   0O    basis set group =>   1
Atom   1C    basis set group =>   2
Atom   2N    basis set group =>   3
Atom   3C    basis set group =>   2
Atom   4C    basis set group =>   2
Atom   5C    basis set group =>   2
Atom   6C    basis set group =>   2
Atom   7C    basis set group =>   2
Atom   8C    basis set group =>   2
Atom   9N    basis set group =>   3
Atom  10C    basis set group =>   2
Atom  11N    basis set group =>   3
Atom  12C    basis set group =>   2
Atom  13C    basis set group =>   2
Atom  14C    basis set group =>   2
Atom  15C    basis set group =>   2
Atom  16C    basis set group =>   2
Atom  17F    basis set group =>   4
Atom  18F    basis set group =>   4
Atom  19F    basis set group =>   4
Atom  20C    basis set group =>   2
Atom  21C    basis set group =>   2
Atom  22C    basis set group =>   2
Atom  23C    basis set group =>   2
Atom  24C    basis set group =>   2
Atom  25C    basis set group =>   2
Atom  26C    basis set group =>   2
Atom  27N    basis set group =>   3
Atom  28C    basis set group =>   2
Atom  29C    basis set group =>   2
Atom  30H    basis set group =>   5
Atom  31H    basis set group =>   5
Atom  32H    basis set group =>   5
Atom  33H    basis set group =>   5
Atom  34H    basis set group =>   5
Atom  35H    basis set group =>   5
Atom  36H    basis set group =>   5
Atom  37H    basis set group =>   5
Atom  38H    basis set group =>   5
Atom  39H    basis set group =>   5
Atom  40H    basis set group =>   5
Atom  41H    basis set group =>   5
Atom  42H    basis set group =>   5
Atom  43H    basis set group =>   5
Atom  44H    basis set group =>   5
------------------------------------------------------------------------------
                             ORCA STARTUP CALCULATIONS
                           -- RI-GTO INTEGRALS CHOSEN --
------------------------------------------------------------------------------
------------------------------------------------------------------------------
                   ___                                                        
                  /   \      - P O W E R E D   B Y -                         
                 /     \                                                     
                 |  |  |   _    _      __       _____    __    __             
                 |  |  |  | |  | |    /  \     |  _  \  |  |  /  |          
                  \  \/   | |  | |   /    \    | | | |  |  | /  /          
                 / \  \   | |__| |  /  /\  \   | |_| |  |  |/  /          
                |  |  |   |  __  | /  /__\  \  |    /   |      \           
                |  |  |   | |  | | |   __   |  |    \   |  |\   \          
                \     /   | |  | | |  |  |  |  | |\  \  |  | \   \       
                 \___/    |_|  |_| |__|  |__|  |_| \__\ |__|  \__/        
                                                                              
                      - O R C A' S   B I G   F R I E N D -                    
                                      &                                       
                       - I N T E G R A L  F E E D E R -                       
                                                                              
 v1 FN, 2020, v2 2021, v3 2022-2024                                           
------------------------------------------------------------------------------


----------------------
SHARK INTEGRAL PACKAGE
----------------------

Number of atoms                             ...     45
Number of basis functions                   ...    450
Number of shells                            ...    210
Maximum angular momentum                    ...      2
Integral batch strategy                     ... SHARK/LIBINT Hybrid
RI-J (if used) integral strategy            ... SPLIT-RIJ (Revised 2003 algorithm where possible)
Printlevel                                  ...      1
Contraction scheme used                     ... SEGMENTED contraction
Prescreening option                         ... SCHWARTZ
   Thresh                                   ... 1.000e-10
   Tcut                                     ... 1.000e-11
   Tpresel                                  ... 1.000e-11 
Coulomb Range Separation                    ... NOT USED
Exchange Range Separation                   ... NOT USED
Multipole approximations                    ... NOT USED
Finite Nucleus Model                        ... NOT USED
CABS basis                                  ... NOT available
Auxiliary Coulomb fitting basis             ... AVAILABLE
   # of basis functions in Aux-J            ...   1635
   # of shells in Aux-J                     ...    525
   Maximum angular momentum in Aux-J        ...      4
Auxiliary J/K fitting basis                 ... NOT available
Auxiliary Correlation fitting basis         ... NOT available
Auxiliary 'external' fitting basis          ... NOT available

Checking pre-screening integrals            ... done (  0.0 sec) Dimension = 210
Check shell pair data                       ... done (  0.0 sec)
Shell pair information
Shell pair cut-off parameter TPreSel        ...   1.0e-11
Total number of shell pairs                 ...     22155
Shell pairs after pre-screening             ...     13334
Total number of primitive shell pairs       ...    130980
Primitive shell pairs kept                  ...     41040
          la=0 lb=0:   3965 shell pairs
          la=1 lb=0:   4730 shell pairs
          la=1 lb=1:   1400 shell pairs
          la=2 lb=0:   1839 shell pairs
          la=2 lb=1:   1169 shell pairs
          la=2 lb=2:    231 shell pairs

Calculating one electron integrals          ... done (  0.2 sec)
Calculating RI/J V-Matrix + Cholesky decomp.... done (  0.4 sec)
Calculating Nuclear repulsion               ... done (  0.0 sec) ENN=   2831.171710092251 Eh

Diagonalization of the overlap matrix:
Smallest eigenvalue                        ... 3.722e-04
Time for diagonalization                   ...    0.033 sec
Threshold for overlap eigenvalues          ... 1.000e-07
Number of eigenvalues below threshold      ... 0
Time for construction of square roots      ...    0.036 sec
Total time needed                          ...    0.080 sec

-------------------
DFT GRID GENERATION
-------------------

General Integration Accuracy     IntAcc      ... 4.388
Radial Grid Type                 RadialGrid  ... OptM3 with GC (2021)
Angular Grid (max. ang.)         AngularGrid ... 4 (Lebedev-302)
Angular grid pruning method      GridPruning ... 4 (adaptive)
Weight generation scheme         WeightScheme... mBecke (2022)
Basis function cutoff            BFCut       ... 1.0000e-10
Integration weight cutoff        WCut        ... 1.0000e-14
Partially contracted basis set               ... off
Rotationally invariant grid construction     ... off
Angular grids for H and He will be reduced by one unit

Total number of grid points                  ...   227387
Total number of batches                      ...     3577
Average number of points per batch           ...       63
Average number of grid points per atom       ...     5053

--------------------
COSX GRID GENERATION
--------------------

GRIDX 1
-------
General Integration Accuracy     IntAcc      ... 3.816
Radial Grid Type                 RadialGrid  ... OptM3 with GC (2021)
Angular Grid (max. ang.)         AngularGrid ... 1 (Lebedev-50)
Angular grid pruning method      GridPruning ... 4 (adaptive)
Weight generation scheme         WeightScheme... mBecke (2022)
Basis function cutoff            BFCut       ... 1.0000e-10
Integration weight cutoff        WCut        ... 1.0000e-14
Partially contracted basis set               ... on
Rotationally invariant grid construction     ... off
Angular grids for H and He will be reduced by one unit

Total number of grid points                  ...    28803
Total number of batches                      ...      246
Average number of points per batch           ...      117
Average number of grid points per atom       ...      640
UseSFitting                                  ... on

GRIDX 2
-------
General Integration Accuracy     IntAcc      ... 4.020
Radial Grid Type                 RadialGrid  ... OptM3 with GC (2021)
Angular Grid (max. ang.)         AngularGrid ... 2 (Lebedev-110)
Angular grid pruning method      GridPruning ... 4 (adaptive)
Weight generation scheme         WeightScheme... mBecke (2022)
Basis function cutoff            BFCut       ... 1.0000e-10
Integration weight cutoff        WCut        ... 1.0000e-14
Partially contracted basis set               ... on
Rotationally invariant grid construction     ... off
Angular grids for H and He will be reduced by one unit

Total number of grid points                  ...    63750
Total number of batches                      ...      520
Average number of points per batch           ...      122
Average number of grid points per atom       ...     1417
UseSFitting                                  ... on

GRIDX 3
-------
General Integration Accuracy     IntAcc      ... 4.338
Radial Grid Type                 RadialGrid  ... OptM3 with GC (2021)
Angular Grid (max. ang.)         AngularGrid ... 3 (Lebedev-194)
Angular grid pruning method      GridPruning ... 4 (adaptive)
Weight generation scheme         WeightScheme... mBecke (2022)
Basis function cutoff            BFCut       ... 1.0000e-10
Integration weight cutoff        WCut        ... 1.0000e-14
Partially contracted basis set               ... on
Rotationally invariant grid construction     ... off
Angular grids for H and He will be reduced by one unit

Total number of grid points                  ...   139936
Total number of batches                      ...     1118
Average number of points per batch           ...      125
Average number of grid points per atom       ...     3110
UseSFitting                                  ... on
Initializing property integral containers    ... done (  0.0 sec)

SHARK setup successfully completed in  13.4 seconds

Maximum memory used throughout the entire STARTUP-calculation: 98.3 MB
-------------------------------------------------------------------------------
                                 ORCA GUESS
                   Start orbitals & Density for SCF / CASSCF
-------------------------------------------------------------------------------

------------
SCF SETTINGS
------------
Hamiltonian:
 Density Functional     Method          .... DFT(GTOs)
 Exchange Functional    Exchange        .... B88
   X-Alpha parameter    XAlpha          ....  0.666667
   Becke's b parameter  XBeta           ....  0.004200
 Correlation Functional Correlation     .... LYP
 LDA part of GGA corr.  LDAOpt          .... VWN-5
 Gradients option       PostSCFGGA      .... off
 Hybrid DFT is turned on
   Fraction HF Exchange ScalHFX         ....  0.200000
   Scaling of DF-GGA-X  ScalDFX         ....  0.720000
   Scaling of DF-GGA-C  ScalDFC         ....  0.810000
   Scaling of DF-LDA-C  ScalLDAC        ....  1.000000
   Perturbative correction              ....  0.000000
   NL short-range parameter             ....  4.800000
 RI-approximation to the Coulomb term is turned on
   Number of AuxJ basis functions       .... 1635
   RIJ-COSX (HFX calculated with COS-X)).... on


General Settings:
 Integral files         IntName         .... /home/nmrbox/aojoawo/Documents/ERDOS/inputs/CHEMBL4248352
 Hartree-Fock type      HFTyp           .... RHF
 Total Charge           Charge          ....    0
 Multiplicity           Mult            ....    1
 Number of Electrons    NEL             ....  210
 Basis Dimension        Dim             ....  450
 Nuclear Repulsion      ENuc            ....   2831.1717100923 Eh

Convergence Acceleration:
 AO-DIIS                CNVDIIS         .... on
   Start iteration      DIISMaxIt       ....    12
   Startup error        DIISStart       ....  0.200000
   # of expansion vecs  DIISMaxEq       ....     5
   Bias factor          DIISBfac        ....   1.050
   Max. coefficient     DIISMaxC        ....  10.000
 MO-DIIS                CNVKDIIS        .... off
 Trust-Rad. Augm. Hess. CNVTRAH         .... auto
   Auto Start mean grad. ratio tolernc. ....  1.125000
   Auto Start start iteration           ....    50
   Auto Start num. interpolation iter.  ....    10
   Max. Number of Micro iterations      ....    24
   Max. Number of Macro iterations      .... Maxiter - #DIIS iter
   Number of Davidson start vectors     ....     2
   Converg. threshold    (grad. norm)   ....   5.000e-05
   Grad. Scal. Fac. for Micro threshold ....   0.100
   Minimum threshold for Micro iter.    ....   1.000e-02
   NR start threshold (gradient norm)   ....   1.000e-04
   Initial trust radius                 ....   0.400
   Minimum AH scaling param. (alpha)    ....   1.000
   Maximum AH scaling param. (alpha)    .... 1000.000
   Quad. conv. algorithm                .... NR
   White noise on init. David. guess    .... on
   Maximum white noise                  ....   0.010
   Pseudo random numbers                .... off
   Inactive MOs                         .... canonical
   Orbital update algorithm             .... Taylor
   Preconditioner                       .... Diag
   Full preconditioner red. dimension   ....   250
 SOSCF                  CNVSOSCF        .... on
   Start iteration      SOSCFMaxIt      ....   150
   Startup grad/error   SOSCFStart      ....  0.003300
   Hessian update       SOSCFHessUp     .... L-BFGS
 Level Shifting         CNVShift        .... on
   Level shift para.    LevelShift      ....    0.2500
   Turn off err/grad.   ShiftErr        ....    0.0010
 Zerner damping         CNVZerner       .... off
 Static damping         CNVDamp         .... on
   Fraction old density DampFac         ....    0.7000
   Max. Damping (<1)    DampMax         ....    0.9800
   Min. Damping (>=0)   DampMin         ....    0.0000
   Turn off err/grad.   DampErr         ....    0.1000

SCF Procedure:
 Maximum # iterations   MaxIter         ....   125
 SCF integral mode      SCFMode         .... Direct
   Integral package                     .... SHARK and LIBINT hybrid scheme
 Reset frequency        DirectResetFreq ....    20
 Integral Threshold     Thresh          ....  1.000e-10 Eh
 Primitive CutOff       TCut            ....  1.000e-11 Eh

Convergence Tolerance:
 Convergence Check Mode ConvCheckMode   .... Total+1el-Energy
 Convergence forced     ConvForced      .... 0
 Energy Change          TolE            ....  1.000e-06 Eh
 1-El. energy change                    ....  1.000e-03 Eh
 Orbital Gradient       TolG            ....  5.000e-05
 Orbital Rotation angle TolX            ....  5.000e-05
 DIIS Error             TolErr          ....  1.000e-06

------------------------------
INITIAL GUESS: MODEL POTENTIAL
------------------------------
Loading Hartree-Fock densities                     ... done
Calculating cut-offs                               ... done
Initializing the effective Hamiltonian             ... done
Setting up the integral package (SHARK)            ... done
Starting the Coulomb interaction                   ... done (   3.1 sec)
Making the grid                                    ... done (   1.5 sec)
Mapping shells                                     ... done
Starting the XC term evaluation                    ... done (   1.2 sec)
  promolecular density results
     # of electrons  =    209.985493822
     EX              =   -182.118536537
     EC              =     -7.301609067
     EX+EC           =   -189.420145604
Transforming the Hamiltonian                       ... done (   0.0 sec)
Diagonalizing the Hamiltonian                      ... done (   0.0 sec)
Back transforming the eigenvectors                 ... done (   0.0 sec)
Now organizing SCF variables                       ... done
                      ------------------
                      INITIAL GUESS DONE (   5.9 sec)
                      ------------------
             **** ENERGY FILE WAS UPDATED (/home/nmrbox/aojoawo/Documents/ERDOS/inputs/CHEMBL4248352.en.tmp) ****
Finished Guess after   6.4 sec
Maximum memory used throughout the entire GUESS-calculation: 53.9 MB

-------------------------------------------------------------------------------------------
                                      ORCA LEAN-SCF
                              memory conserving SCF solver
-------------------------------------------------------------------------------------------

----------------------------------------D-I-I-S--------------------------------------------
Iteration    Energy (Eh)           Delta-E    RMSDP     MaxDP     DIISErr   Damp  Time(sec)
-------------------------------------------------------------------------------------------
               ***  Starting incremental Fock matrix formation  ***
    1    -1439.6899538473098801     0.00e+00  2.18e-03  1.00e-01  2.68e-01  0.700  62.6
    2    -1439.9813133410234514    -2.91e-01  1.45e-03  5.26e-02  9.15e-02  0.700  28.8
                               ***Turning on AO-DIIS***
    3    -1440.0922692936610474    -1.11e-01  6.07e-04  1.67e-02  3.66e-02  0.700  26.0
    4    -1440.1619747168160757    -6.97e-02  1.01e-03  2.44e-02  1.57e-02  0.000  23.4
    5    -1440.3153604197823370    -1.53e-01  2.36e-04  7.99e-03  6.60e-03  0.000  25.8
                              *** Initializing SOSCF ***
---------------------------------------S-O-S-C-F--------------------------------------
Iteration    Energy (Eh)           Delta-E    RMSDP     MaxDP     MaxGrad    Time(sec)
--------------------------------------------------------------------------------------
    6    -1440.3163560744296774    -9.96e-04  8.12e-05  3.02e-03  3.23e-03    22.5
               *** Restarting incremental Fock matrix formation ***
    7    -1440.3163827994640087    -2.67e-05  6.20e-05  4.17e-03  3.55e-04    63.6
    8    -1440.3163335550798365     4.92e-05  4.08e-05  3.16e-03  8.99e-04    37.4
    9    -1440.3163991935361992    -6.56e-05  1.04e-05  4.73e-04  7.42e-05    32.3
   10    -1440.3163975391762506     1.65e-06  6.95e-06  3.36e-04  1.63e-04    26.4
   11    -1440.3163996973880785    -2.16e-06  1.62e-06  6.20e-05  1.46e-05    23.5
   12    -1440.3163997465226203    -4.91e-08  9.92e-07  3.85e-05  2.35e-05    20.2
                 **** Energy Check signals convergence ****

               *****************************************************
               *                     SUCCESS                       *
               *           SCF CONVERGED AFTER  12 CYCLES          *
               *****************************************************

Recomputing exchange energy using gridx3       ... done (  110.258 sec)
Old exchange energy                            :    -36.833831961 Eh
New exchange energy                            :    -36.833875468 Eh
Exchange energy change after final integration :     -0.000043507 Eh
Total energy after final integration           :  -1440.316443253 Eh
             **** ENERGY FILE WAS UPDATED (/home/nmrbox/aojoawo/Documents/ERDOS/inputs/CHEMBL4248352.en.tmp) ****

----------------
TOTAL SCF ENERGY
----------------

Total Energy       :      -1440.31644325316756 Eh          -39193.00295 eV

Components:
Nuclear Repulsion  :       2831.17171009225149 Eh           77040.09887 eV
Electronic Energy  :      -4271.48810983877411 Eh         -116233.10065 eV
One Electron Energy:      -7599.73801032244864 Eh         -206799.38474 eV
Two Electron Energy:       3328.24990048367408 Eh           90566.28409 eV

Virial components:
Potential Energy   :      -2871.64350263904544 Eh          -78141.39234 eV
Kinetic Energy     :       1431.32705938587765 Eh           38948.38938 eV
Virial Ratio       :          2.00628045407815

DFT components:
N(Alpha)           :      105.000041513020 electrons
N(Beta)            :      105.000041513020 electrons
N(Total)           :      210.000083026040 electrons
E(X)               :     -146.436799392502 Eh       
E(C)               :       -8.582445220149 Eh       
E(XC)              :     -155.019244612652 Eh       

---------------
SCF CONVERGENCE
---------------

  Last Energy change         ...    4.9135e-08  Tolerance :   1.0000e-06
  Last MAX-Density change    ...    3.8492e-05  Tolerance :   1.0000e-05
  Last RMS-Density change    ...    9.9180e-07  Tolerance :   1.0000e-06
  Last DIIS Error            ...    3.2313e-03  Tolerance :   1.0000e-06
  Last Orbital Gradient      ...    2.3530e-05  Tolerance :   5.0000e-05
  Last Orbital Rotation      ...    2.7191e-05  Tolerance :   5.0000e-05


----------------
ORBITAL ENERGIES
----------------

  NO   OCC          E(Eh)            E(eV) 
   0   2.0000     -24.718091      -672.6134 
   1   2.0000     -24.715172      -672.5340 
   2   2.0000     -24.714004      -672.5022 
   3   2.0000     -19.109103      -519.9851 
   4   2.0000     -14.356637      -390.6639 
   5   2.0000     -14.328508      -389.8985 
   6   2.0000     -14.325874      -389.8268 
   7   2.0000     -14.324332      -389.7849 
   8   2.0000     -10.432772      -283.8901 
   9   2.0000     -10.289668      -279.9961 
  10   2.0000     -10.237836      -278.5857 
  11   2.0000     -10.235855      -278.5318 
  12   2.0000     -10.235479      -278.5215 
  13   2.0000     -10.223370      -278.1920 
  14   2.0000     -10.222113      -278.1578 
  15   2.0000     -10.221320      -278.1363 
  16   2.0000     -10.218890      -278.0701 
  17   2.0000     -10.212990      -277.9096 
  18   2.0000     -10.206816      -277.7416 
  19   2.0000     -10.204797      -277.6866 
  20   2.0000     -10.204037      -277.6660 
  21   2.0000     -10.203577      -277.6535 
  22   2.0000     -10.198175      -277.5064 
  23   2.0000     -10.196371      -277.4574 
  24   2.0000     -10.195384      -277.4305 
  25   2.0000     -10.194252      -277.3997 
  26   2.0000     -10.193758      -277.3863 
  27   2.0000     -10.192258      -277.3454 
  28   2.0000     -10.191768      -277.3321 
  29   2.0000     -10.189962      -277.2830 
  30   2.0000      -1.278480       -34.7892 
  31   2.0000      -1.203566       -32.7507 
  32   2.0000      -1.200388       -32.6642 
  33   2.0000      -1.009613       -27.4730 
  34   2.0000      -0.940114       -25.5818 
  35   2.0000      -0.936001       -25.4699 
  36   2.0000      -0.926420       -25.2092 
  37   2.0000      -0.901284       -24.5252 
  38   2.0000      -0.852652       -23.2018 
  39   2.0000      -0.810549       -22.0562 
  40   2.0000      -0.809758       -22.0346 
  41   2.0000      -0.800231       -21.7754 
  42   2.0000      -0.790613       -21.5137 
  43   2.0000      -0.769675       -20.9439 
  44   2.0000      -0.763393       -20.7730 
  45   2.0000      -0.742325       -20.1997 
  46   2.0000      -0.713152       -19.4059 
  47   2.0000      -0.689312       -18.7571 
  48   2.0000      -0.661690       -18.0055 
  49   2.0000      -0.639313       -17.3966 
  50   2.0000      -0.634160       -17.2564 
  51   2.0000      -0.628166       -17.0933 
  52   2.0000      -0.624239       -16.9864 
  53   2.0000      -0.609614       -16.5884 
  54   2.0000      -0.598458       -16.2849 
  55   2.0000      -0.579656       -15.7732 
  56   2.0000      -0.568770       -15.4770 
  57   2.0000      -0.562860       -15.3162 
  58   2.0000      -0.549463       -14.9517 
  59   2.0000      -0.544510       -14.8169 
  60   2.0000      -0.519550       -14.1377 
  61   2.0000      -0.516956       -14.0671 
  62   2.0000      -0.515367       -14.0238 
  63   2.0000      -0.506601       -13.7853 
  64   2.0000      -0.495655       -13.4875 
  65   2.0000      -0.482503       -13.1296 
  66   2.0000      -0.476927       -12.9778 
  67   2.0000      -0.463598       -12.6151 
  68   2.0000      -0.453916       -12.3517 
  69   2.0000      -0.451795       -12.2940 
  70   2.0000      -0.448605       -12.2071 
  71   2.0000      -0.446369       -12.1463 
  72   2.0000      -0.443565       -12.0700 
  73   2.0000      -0.439488       -11.9591 
  74   2.0000      -0.426823       -11.6145 
  75   2.0000      -0.422760       -11.5039 
  76   2.0000      -0.416759       -11.3406 
  77   2.0000      -0.415678       -11.3112 
  78   2.0000      -0.413501       -11.2519 
  79   2.0000      -0.407876       -11.0989 
  80   2.0000      -0.406102       -11.0506 
  81   2.0000      -0.400801       -10.9063 
  82   2.0000      -0.396970       -10.8021 
  83   2.0000      -0.393313       -10.7026 
  84   2.0000      -0.392554       -10.6819 
  85   2.0000      -0.386807       -10.5256 
  86   2.0000      -0.382323       -10.4035 
  87   2.0000      -0.377300       -10.2669 
  88   2.0000      -0.367263        -9.9937 
  89   2.0000      -0.366354        -9.9690 
  90   2.0000      -0.358665        -9.7598 
  91   2.0000      -0.354201        -9.6383 
  92   2.0000      -0.331948        -9.0328 
  93   2.0000      -0.305277        -8.3070 
  94   2.0000      -0.284103        -7.7308 
  95   2.0000      -0.279878        -7.6159 
  96   2.0000      -0.267761        -7.2861 
  97   2.0000      -0.266153        -7.2424 
  98   2.0000      -0.256256        -6.9731 
  99   2.0000      -0.248551        -6.7634 
 100   2.0000      -0.246957        -6.7200 
 101   2.0000      -0.245226        -6.6729 
 102   2.0000      -0.240706        -6.5499 
 103   2.0000      -0.239559        -6.5187 
 104   2.0000      -0.229304        -6.2397 
 105   0.0000      -0.067415        -1.8345 
 106   0.0000      -0.032430        -0.8825 
 107   0.0000      -0.029283        -0.7968 
 108   0.0000      -0.027358        -0.7445 
 109   0.0000      -0.019033        -0.5179 
 110   0.0000      -0.015659        -0.4261 
 111   0.0000       0.013481         0.3668 
 112   0.0000       0.036770         1.0006 
 113   0.0000       0.088531         2.4091 
 114   0.0000       0.097004         2.6396 
 115   0.0000       0.098503         2.6804 
*Only the first 10 virtual orbitals were printed.

                    ********************************
                    * MULLIKEN POPULATION ANALYSIS *
                    ********************************

-----------------------
MULLIKEN ATOMIC CHARGES
-----------------------
   0 O :   -0.476483
   1 C :    0.513860
   2 N :   -0.650205
   3 C :   -0.050119
   4 C :    0.226196
   5 C :   -0.164178
   6 C :   -0.098001
   7 C :   -0.135937
   8 C :    0.018160
   9 N :   -0.402713
  10 C :    0.285702
  11 N :   -0.410530
  12 C :    0.033890
  13 C :   -0.134743
  14 C :   -0.130191
  15 C :   -0.053626
  16 C :    0.919021
  17 F :   -0.306955
  18 F :   -0.302932
  19 F :   -0.293251
  20 C :    0.075321
  21 C :   -0.156817
  22 C :   -0.208684
  23 C :    0.171032
  24 C :   -0.152962
  25 C :   -0.145135
  26 C :    0.014699
  27 N :   -0.432703
  28 C :    0.208788
  29 C :   -0.197461
  30 H :    0.331691
  31 H :    0.201259
  32 H :    0.141243
  33 H :    0.144424
  34 H :    0.136158
  35 H :    0.152235
  36 H :    0.152986
  37 H :    0.137776
  38 H :    0.159366
  39 H :    0.162313
  40 H :    0.138217
  41 H :    0.143531
  42 H :    0.135770
  43 H :    0.151322
  44 H :    0.148665
Sum of atomic charges:   -0.0000000

--------------------------------
MULLIKEN REDUCED ORBITAL CHARGES
--------------------------------
  0 O s       :     3.890664  s :     3.890664
      pz      :     1.452803  p :     4.560225
      px      :     1.719640
      py      :     1.387781
      dz2     :     0.006554  d :     0.025594
      dxz     :     0.004656
      dyz     :     0.006288
      dx2y2   :     0.004429
      dxy     :     0.003668

  1 C s       :     3.025274  s :     3.025274
      pz      :     0.748960  p :     2.361993
      px      :     0.835083
      py      :     0.777951
      dz2     :     0.024434  d :     0.098872
      dxz     :     0.022612
      dyz     :     0.016264
      dx2y2   :     0.016964
      dxy     :     0.018598

  2 N s       :     3.615266  s :     3.615266
      pz      :     1.329533  p :     4.006514
      px      :     1.128776
      py      :     1.548205
      dz2     :     0.004210  d :     0.028425
      dxz     :     0.008539
      dyz     :     0.004842
      dx2y2   :     0.004803
      dxy     :     0.006030

  3 C s       :     3.206486  s :     3.206486
      pz      :     0.947942  p :     2.786142
      px      :     0.773015
      py      :     1.065184
      dz2     :     0.012780  d :     0.057491
      dxz     :     0.012145
      dyz     :     0.005958
      dx2y2   :     0.017061
      dxy     :     0.009546

  4 C s       :     3.080966  s :     3.080966
      pz      :     0.901772  p :     2.635931
      px      :     0.853588
      py      :     0.880570
      dz2     :     0.012501  d :     0.056907
      dxz     :     0.016047
      dyz     :     0.010930
      dx2y2   :     0.008686
      dxy     :     0.008744

  5 C s       :     3.199578  s :     3.199578
      pz      :     0.931565  p :     2.929883
      px      :     0.996816
      py      :     1.001502
      dz2     :     0.010555  d :     0.034717
      dxz     :     0.008181
      dyz     :     0.006960
      dx2y2   :     0.002569
      dxy     :     0.006452

  6 C s       :     3.184913  s :     3.184913
      pz      :     0.977235  p :     2.876550
      px      :     0.946981
      py      :     0.952334
      dz2     :     0.009575  d :     0.036538
      dxz     :     0.009803
      dyz     :     0.007029
      dx2y2   :     0.005117
      dxy     :     0.005014

  7 C s       :     3.194918  s :     3.194918
      pz      :     0.975580  p :     2.906052
      px      :     0.958567
      py      :     0.971906
      dz2     :     0.009293  d :     0.034966
      dxz     :     0.010086
      dyz     :     0.006107
      dx2y2   :     0.004664
      dxy     :     0.004816

  8 C s       :     3.141699  s :     3.141699
      pz      :     0.886432  p :     2.786813
      px      :     0.949589
      py      :     0.950792
      dz2     :     0.018398  d :     0.053328
      dxz     :     0.013047
      dyz     :     0.010485
      dx2y2   :     0.003413
      dxy     :     0.007985

  9 N s       :     3.692780  s :     3.692780
      pz      :     1.418985  p :     3.674998
      px      :     1.117624
      py      :     1.138388
      dz2     :     0.009740  d :     0.034935
      dxz     :     0.006833
      dyz     :     0.005890
      dx2y2   :     0.006024
      dxy     :     0.006448

 10 C s       :     3.093295  s :     3.093295
      pz      :     0.865863  p :     2.564677
      px      :     0.838632
      py      :     0.860182
      dz2     :     0.010663  d :     0.056326
      dxz     :     0.008728
      dyz     :     0.012396
      dx2y2   :     0.012312
      dxy     :     0.012228

 11 N s       :     3.693247  s :     3.693247
      pz      :     1.096335  p :     3.682215
      px      :     1.058769
      py      :     1.527111
      dz2     :     0.007212  d :     0.035068
      dxz     :     0.005303
      dyz     :     0.008461
      dx2y2   :     0.005390
      dxy     :     0.008701

 12 C s       :     3.137529  s :     3.137529
      pz      :     0.892431  p :     2.774643
      px      :     0.919953
      py      :     0.962260
      dz2     :     0.009787  d :     0.053938
      dxz     :     0.009452
      dyz     :     0.015034
      dx2y2   :     0.007945
      dxy     :     0.011719

 13 C s       :     3.192006  s :     3.192006
      pz      :     0.995535  p :     2.907583
      px      :     0.983243
      py      :     0.928805
      dz2     :     0.005926  d :     0.035155
      dxz     :     0.006579
      dyz     :     0.008349
      dx2y2   :     0.007163
      dxy     :     0.007137

 14 C s       :     3.198411  s :     3.198411
      pz      :     0.948291  p :     2.895524
      px      :     0.953205
      py      :     0.994028
      dz2     :     0.007777  d :     0.036256
      dxz     :     0.005760
      dyz     :     0.008605
      dx2y2   :     0.008968
      dxy     :     0.005145

 15 C s       :     3.168766  s :     3.168766
      pz      :     0.952333  p :     2.848980
      px      :     0.976879
      py      :     0.919768
      dz2     :     0.007076  d :     0.035879
      dxz     :     0.005282
      dyz     :     0.008801
      dx2y2   :     0.006304
      dxy     :     0.008415

 16 C s       :     2.804534  s :     2.804534
      pz      :     0.663220  p :     2.137756
      px      :     0.732178
      py      :     0.742358
      dz2     :     0.035378  d :     0.138689
      dxz     :     0.025224
      dyz     :     0.023096
      dx2y2   :     0.029469
      dxy     :     0.025522

 17 F s       :     3.982156  s :     3.982156
      pz      :     1.885113  p :     5.308596
      px      :     1.876319
      py      :     1.547164
      dz2     :     0.002282  d :     0.016203
      dxz     :     0.000615
      dyz     :     0.003713
      dx2y2   :     0.005180
      dxy     :     0.004413

 18 F s       :     3.984143  s :     3.984143
      pz      :     1.488575  p :     5.302303
      px      :     1.906623
      py      :     1.907104
      dz2     :     0.008354  d :     0.016486
      dxz     :     0.003743
      dyz     :     0.003778
      dx2y2   :     0.000295
      dxy     :     0.000316

 19 F s       :     3.980782  s :     3.980782
      pz      :     1.849833  p :     5.296006
      px      :     1.543716
      py      :     1.902458
      dz2     :     0.002186  d :     0.016463
      dxz     :     0.004874
      dyz     :     0.000697
      dx2y2   :     0.005065
      dxy     :     0.003640

 20 C s       :     3.167693  s :     3.167693
      pz      :     0.949469  p :     2.718169
      px      :     0.874104
      py      :     0.894595
      dz2     :     0.005809  d :     0.038818
      dxz     :     0.005900
      dyz     :     0.005829
      dx2y2   :     0.011493
      dxy     :     0.009786

 21 C s       :     3.223251  s :     3.223251
      pz      :     0.957857  p :     2.897803
      px      :     0.946392
      py      :     0.993554
      dz2     :     0.003644  d :     0.035762
      dxz     :     0.007312
      dyz     :     0.005087
      dx2y2   :     0.009390
      dxy     :     0.010329

 22 C s       :     3.211599  s :     3.211599
      pz      :     0.994374  p :     2.960781
      px      :     0.980806
      py      :     0.985601
      dz2     :     0.003172  d :     0.036304
      dxz     :     0.007432
      dyz     :     0.005471
      dx2y2   :     0.008706
      dxy     :     0.011523

 23 C s       :     3.112406  s :     3.112406
      pz      :     0.932438  p :     2.674517
      px      :     0.844757
      py      :     0.897323
      dz2     :     0.005409  d :     0.042046
      dxz     :     0.007845
      dyz     :     0.005908
      dx2y2   :     0.011114
      dxy     :     0.011770

 24 C s       :     3.195034  s :     3.195034
      pz      :     0.961567  p :     2.921407
      px      :     0.992524
      py      :     0.967315
      dz2     :     0.003561  d :     0.036521
      dxz     :     0.007162
      dyz     :     0.005321
      dx2y2   :     0.009074
      dxy     :     0.011402

 25 C s       :     3.202134  s :     3.202134
      pz      :     0.972917  p :     2.907938
      px      :     0.988181
      py      :     0.946839
      dz2     :     0.005400  d :     0.035063
      dxz     :     0.004233
      dyz     :     0.005256
      dx2y2   :     0.011223
      dxy     :     0.008951

 26 C s       :     3.148025  s :     3.148025
      pz      :     0.946313  p :     2.783859
      px      :     0.875887
      py      :     0.961658
      dz2     :     0.004752  d :     0.053417
      dxz     :     0.011184
      dyz     :     0.005343
      dx2y2   :     0.015412
      dxy     :     0.016727

 27 N s       :     3.694961  s :     3.694961
      pz      :     1.219286  p :     3.702070
      px      :     1.218800
      py      :     1.263983
      dz2     :     0.005094  d :     0.035672
      dxz     :     0.006595
      dyz     :     0.006384
      dx2y2   :     0.011628
      dxy     :     0.005972

 28 C s       :     3.074545  s :     3.074545
      pz      :     0.929833  p :     2.656938
      px      :     0.873664
      py      :     0.853442
      dz2     :     0.006673  d :     0.059729
      dxz     :     0.009656
      dyz     :     0.009574
      dx2y2   :     0.016900
      dxy     :     0.016927

 29 C s       :     3.227664  s :     3.227664
      pz      :     0.969527  p :     2.935132
      px      :     1.009760
      py      :     0.955845
      dz2     :     0.003437  d :     0.034665
      dxz     :     0.006539
      dyz     :     0.005425
      dx2y2   :     0.008958
      dxy     :     0.010307

 30 H s       :     0.668309  s :     0.668309

 31 H s       :     0.798741  s :     0.798741

 32 H s       :     0.858757  s :     0.858757

 33 H s       :     0.855576  s :     0.855576

 34 H s       :     0.863842  s :     0.863842

 35 H s       :     0.847765  s :     0.847765

 36 H s       :     0.847014  s :     0.847014

 37 H s       :     0.862224  s :     0.862224

 38 H s       :     0.840634  s :     0.840634

 39 H s       :     0.837687  s :     0.837687

 40 H s       :     0.861783  s :     0.861783

 41 H s       :     0.856469  s :     0.856469

 42 H s       :     0.864230  s :     0.864230

 43 H s       :     0.848678  s :     0.848678

 44 H s       :     0.851335  s :     0.851335



                     *******************************
                     * LOEWDIN POPULATION ANALYSIS *
                     *******************************

----------------------
LOEWDIN ATOMIC CHARGES
----------------------
   0 O :   -0.280520
   1 C :    0.145272
   2 N :   -0.239640
   3 C :   -0.054035
   4 C :    0.027834
   5 C :   -0.146630
   6 C :   -0.101817
   7 C :   -0.144305
   8 C :   -0.063343
   9 N :   -0.132637
  10 C :    0.070340
  11 N :   -0.120445
  12 C :   -0.054006
  13 C :   -0.145229
  14 C :   -0.090656
  15 C :   -0.071927
  16 C :    0.309521
  17 F :   -0.112521
  18 F :   -0.103846
  19 F :   -0.108803
  20 C :   -0.043199
  21 C :   -0.100275
  22 C :   -0.120350
  23 C :   -0.022695
  24 C :   -0.093521
  25 C :   -0.146442
  26 C :   -0.063653
  27 N :   -0.129499
  28 C :    0.013016
  29 C :   -0.107032
  30 H :    0.251132
  31 H :    0.163916
  32 H :    0.137574
  33 H :    0.138656
  34 H :    0.136354
  35 H :    0.136713
  36 H :    0.137255
  37 H :    0.137834
  38 H :    0.146297
  39 H :    0.151898
  40 H :    0.136237
  41 H :    0.138840
  42 H :    0.136559
  43 H :    0.136391
  44 H :    0.145390

-------------------------------
LOEWDIN REDUCED ORBITAL CHARGES
-------------------------------
  0 O s       :     3.589629  s :     3.589629
      pz      :     1.490982  p :     4.640770
      px      :     1.728824
      py      :     1.420964
      dz2     :     0.010234  d :     0.050122
      dxz     :     0.009472
      dyz     :     0.015451
      dx2y2   :     0.006944
      dxy     :     0.008020

  1 C s       :     2.864505  s :     2.864505
      pz      :     0.905452  p :     2.761308
      px      :     0.981204
      py      :     0.874653
      dz2     :     0.053693  d :     0.228915
      dxz     :     0.053709
      dyz     :     0.040605
      dx2y2   :     0.037719
      dxy     :     0.043189

  2 N s       :     3.164366  s :     3.164366
      pz      :     1.320032  p :     4.007145
      px      :     1.160091
      py      :     1.527022
      dz2     :     0.010715  d :     0.068128
      dxz     :     0.021505
      dyz     :     0.009436
      dx2y2   :     0.012052
      dxy     :     0.014420

  3 C s       :     2.885374  s :     2.885374
      pz      :     1.028056  p :     3.041076
      px      :     0.909695
      py      :     1.103325
      dz2     :     0.029070  d :     0.127586
      dxz     :     0.028096
      dyz     :     0.012859
      dx2y2   :     0.036863
      dxy     :     0.020697

  4 C s       :     2.875027  s :     2.875027
      pz      :     1.025897  p :     2.959436
      px      :     0.980436
      py      :     0.953103
      dz2     :     0.030698  d :     0.137703
      dxz     :     0.041098
      dyz     :     0.026853
      dx2y2   :     0.017444
      dxy     :     0.021609

  5 C s       :     2.923544  s :     2.923544
      pz      :     1.064865  p :     3.139824
      px      :     1.051149
      py      :     1.023810
      dz2     :     0.028665  d :     0.083262
      dxz     :     0.021776
      dyz     :     0.017137
      dx2y2   :     0.004239
      dxy     :     0.011445

  6 C s       :     2.920373  s :     2.920373
      pz      :     1.076017  p :     3.095627
      px      :     1.031130
      py      :     0.988480
      dz2     :     0.022543  d :     0.085817
      dxz     :     0.023857
      dyz     :     0.015665
      dx2y2   :     0.011244
      dxy     :     0.012507

  7 C s       :     2.925941  s :     2.925941
      pz      :     1.077851  p :     3.134534
      px      :     1.043533
      py      :     1.013150
      dz2     :     0.023002  d :     0.083831
      dxz     :     0.024128
      dyz     :     0.014445
      dx2y2   :     0.010056
      dxy     :     0.012200

  8 C s       :     2.915837  s :     2.915837
      pz      :     1.022856  p :     3.025001
      px      :     1.021113
      py      :     0.981031
      dz2     :     0.047438  d :     0.122506
      dxz     :     0.031631
      dyz     :     0.024125
      dx2y2   :     0.005492
      dxy     :     0.013820

  9 N s       :     3.242867  s :     3.242867
      pz      :     1.466526  p :     3.812193
      px      :     1.184209
      py      :     1.161457
      dz2     :     0.021414  d :     0.077577
      dxz     :     0.016586
      dyz     :     0.011448
      dx2y2   :     0.012847
      dxy     :     0.015281

 10 C s       :     2.882469  s :     2.882469
      pz      :     0.963342  p :     2.913516
      px      :     0.937283
      py      :     1.012891
      dz2     :     0.024347  d :     0.133675
      dxz     :     0.020600
      dyz     :     0.029152
      dx2y2   :     0.029342
      dxy     :     0.030234

 11 N s       :     3.240526  s :     3.240526
      pz      :     1.162027  p :     3.801935
      px      :     1.109932
      py      :     1.529976
      dz2     :     0.016614  d :     0.077984
      dxz     :     0.015467
      dyz     :     0.017998
      dx2y2   :     0.010584
      dxy     :     0.017320

 12 C s       :     2.914172  s :     2.914172
      pz      :     0.981672  p :     3.015631
      px      :     0.973919
      py      :     1.060040
      dz2     :     0.021302  d :     0.124203
      dxz     :     0.020950
      dyz     :     0.037475
      dx2y2   :     0.019990
      dxy     :     0.024486

 13 C s       :     2.922655  s :     2.922655
      pz      :     1.043988  p :     3.137579
      px      :     1.023756
      py      :     1.069835
      dz2     :     0.013464  d :     0.084995
      dxz     :     0.012551
      dyz     :     0.021401
      dx2y2   :     0.019038
      dxy     :     0.018541

 14 C s       :     2.920275  s :     2.920275
      pz      :     1.016246  p :     3.085479
      px      :     0.992585
      py      :     1.076648
      dz2     :     0.018139  d :     0.084902
      dxz     :     0.015536
      dyz     :     0.019755
      dx2y2   :     0.018771
      dxy     :     0.012701

 15 C s       :     2.897440  s :     2.897440
      pz      :     1.038115  p :     3.082968
      px      :     1.011925
      py      :     1.032928
      dz2     :     0.017243  d :     0.091519
      dxz     :     0.012856
      dyz     :     0.023546
      dx2y2   :     0.016452
      dxy     :     0.021422

 16 C s       :     2.854457  s :     2.854457
      pz      :     0.798118  p :     2.506663
      px      :     0.849932
      py      :     0.858614
      dz2     :     0.088392  d :     0.329359
      dxz     :     0.058112
      dyz     :     0.051294
      dx2y2   :     0.069894
      dxy     :     0.061667

 17 F s       :     3.757841  s :     3.757841
      pz      :     1.882602  p :     5.323651
      px      :     1.875117
      py      :     1.565931
      dz2     :     0.004638  d :     0.031030
      dxz     :     0.001161
      dyz     :     0.006431
      dx2y2   :     0.010868
      dxy     :     0.007932

 18 F s       :     3.757134  s :     3.757134
      pz      :     1.514801  p :     5.315209
      px      :     1.902088
      py      :     1.898320
      dz2     :     0.017917  d :     0.031503
      dxz     :     0.006207
      dyz     :     0.006346
      dx2y2   :     0.000485
      dxy     :     0.000548

 19 F s       :     3.760527  s :     3.760527
      pz      :     1.849346  p :     5.316615
      px      :     1.570420
      py      :     1.896849
      dz2     :     0.004238  d :     0.031662
      dxz     :     0.008953
      dyz     :     0.001224
      dx2y2   :     0.011146
      dxy     :     0.006100

 20 C s       :     2.881009  s :     2.881009
      pz      :     0.998709  p :     3.063050
      px      :     1.018907
      py      :     1.045434
      dz2     :     0.012749  d :     0.099141
      dxz     :     0.014101
      dyz     :     0.014978
      dx2y2   :     0.030821
      dxy     :     0.026491

 21 C s       :     2.919432  s :     2.919432
      pz      :     0.983624  p :     3.097480
      px      :     1.058829
      py      :     1.055026
      dz2     :     0.007607  d :     0.083363
      dxz     :     0.017167
      dyz     :     0.009398
      dx2y2   :     0.024230
      dxy     :     0.024961

 22 C s       :     2.915920  s :     2.915920
      pz      :     1.006665  p :     3.119540
      px      :     1.071238
      py      :     1.041637
      dz2     :     0.006879  d :     0.084890
      dxz     :     0.015896
      dyz     :     0.011110
      dx2y2   :     0.022998
      dxy     :     0.028008

 23 C s       :     2.856789  s :     2.856789
      pz      :     0.978651  p :     3.056141
      px      :     1.048753
      py      :     1.028737
      dz2     :     0.012006  d :     0.109765
      dxz     :     0.018909
      dyz     :     0.015346
      dx2y2   :     0.031968
      dxy     :     0.031536

 24 C s       :     2.919442  s :     2.919442
      pz      :     0.981761  p :     3.089370
      px      :     1.063465
      py      :     1.044144
      dz2     :     0.007259  d :     0.084709
      dxz     :     0.015477
      dyz     :     0.011224
      dx2y2   :     0.022990
      dxy     :     0.027760

 25 C s       :     2.926456  s :     2.926456
      pz      :     1.007480  p :     3.135926
      px      :     1.075359
      py      :     1.053086
      dz2     :     0.010807  d :     0.084060
      dxz     :     0.010042
      dyz     :     0.013806
      dx2y2   :     0.026554
      dxy     :     0.022850

 26 C s       :     2.917521  s :     2.917521
      pz      :     0.970283  p :     3.023701
      px      :     1.013318
      py      :     1.040100
      dz2     :     0.010265  d :     0.122431
      dxz     :     0.025665
      dyz     :     0.009377
      dx2y2   :     0.036866
      dxy     :     0.040259

 27 N s       :     3.241147  s :     3.241147
      pz      :     1.211513  p :     3.809633
      px      :     1.303124
      py      :     1.294996
      dz2     :     0.009485  d :     0.078719
      dxz     :     0.013263
      dyz     :     0.012237
      dx2y2   :     0.027613
      dxy     :     0.016120

 28 C s       :     2.845385  s :     2.845385
      pz      :     0.965756  p :     2.993164
      px      :     1.041062
      py      :     0.986346
      dz2     :     0.014250  d :     0.148435
      dxz     :     0.022735
      dyz     :     0.023380
      dx2y2   :     0.043962
      dxy     :     0.044109

 29 C s       :     2.922820  s :     2.922820
      pz      :     0.992655  p :     3.102834
      px      :     1.063173
      py      :     1.047006
      dz2     :     0.007033  d :     0.081378
      dxz     :     0.014518
      dyz     :     0.010879
      dx2y2   :     0.023085
      dxy     :     0.025864

 30 H s       :     0.748868  s :     0.748868

 31 H s       :     0.836084  s :     0.836084

 32 H s       :     0.862426  s :     0.862426

 33 H s       :     0.861344  s :     0.861344

 34 H s       :     0.863646  s :     0.863646

 35 H s       :     0.863287  s :     0.863287

 36 H s       :     0.862745  s :     0.862745

 37 H s       :     0.862166  s :     0.862166

 38 H s       :     0.853703  s :     0.853703

 39 H s       :     0.848102  s :     0.848102

 40 H s       :     0.863763  s :     0.863763

 41 H s       :     0.861160  s :     0.861160

 42 H s       :     0.863441  s :     0.863441

 43 H s       :     0.863609  s :     0.863609

 44 H s       :     0.854610  s :     0.854610



                      *****************************
                      * MAYER POPULATION ANALYSIS *
                      *****************************

  NA   - Mulliken gross atomic population
  ZA   - Total nuclear charge
  QA   - Mulliken gross atomic charge
  VA   - Mayer's total valence
  BVA  - Mayer's bonded valence
  FA   - Mayer's free valence

  ATOM       NA         ZA         QA         VA         BVA        FA
  0 O      8.4765     8.0000    -0.4765     2.0573     2.0573    -0.0000
  1 C      5.4861     6.0000     0.5139     3.9051     3.9051     0.0000
  2 N      7.6502     7.0000    -0.6502     2.8907     2.8907     0.0000
  3 C      6.0501     6.0000    -0.0501     3.7618     3.7618     0.0000
  4 C      5.7738     6.0000     0.2262     3.9218     3.9218    -0.0000
  5 C      6.1642     6.0000    -0.1642     3.8992     3.8992     0.0000
  6 C      6.0980     6.0000    -0.0980     3.9403     3.9403     0.0000
  7 C      6.1359     6.0000    -0.1359     3.9169     3.9169    -0.0000
  8 C      5.9818     6.0000     0.0182     3.9219     3.9219    -0.0000
  9 N      7.4027     7.0000    -0.4027     2.9922     2.9922    -0.0000
 10 C      5.7143     6.0000     0.2857     3.8729     3.8729    -0.0000
 11 N      7.4105     7.0000    -0.4105     2.9972     2.9972    -0.0000
 12 C      5.9661     6.0000     0.0339     3.9125     3.9125    -0.0000
 13 C      6.1347     6.0000    -0.1347     3.9180     3.9180    -0.0000
 14 C      6.1302     6.0000    -0.1302     3.9139     3.9139     0.0000
 15 C      6.0536     6.0000    -0.0536     3.9585     3.9585    -0.0000
 16 C      5.0810     6.0000     0.9190     3.8548     3.8548     0.0000
 17 F      9.3070     9.0000    -0.3070     1.0567     1.0567     0.0000
 18 F      9.3029     9.0000    -0.3029     1.0582     1.0582    -0.0000
 19 F      9.2933     9.0000    -0.2933     1.0662     1.0662     0.0000
 20 C      5.9247     6.0000     0.0753     3.8734     3.8734    -0.0000
 21 C      6.1568     6.0000    -0.1568     3.9035     3.9035     0.0000
 22 C      6.2087     6.0000    -0.2087     3.8703     3.8703    -0.0000
 23 C      5.8290     6.0000     0.1710     3.9863     3.9863    -0.0000
 24 C      6.1530     6.0000    -0.1530     3.8882     3.8882    -0.0000
 25 C      6.1451     6.0000    -0.1451     3.9113     3.9113     0.0000
 26 C      5.9853     6.0000     0.0147     3.9127     3.9127    -0.0000
 27 N      7.4327     7.0000    -0.4327     2.9631     2.9631    -0.0000
 28 C      5.7912     6.0000     0.2088     3.9693     3.9693    -0.0000
 29 C      6.1975     6.0000    -0.1975     3.8285     3.8285     0.0000
 30 H      0.6683     1.0000     0.3317     0.8749     0.8749     0.0000
 31 H      0.7987     1.0000     0.2013     0.9321     0.9321     0.0000
 32 H      0.8588     1.0000     0.1412     0.9394     0.9394     0.0000
 33 H      0.8556     1.0000     0.1444     0.9329     0.9329    -0.0000
 34 H      0.8638     1.0000     0.1362     0.9374     0.9374    -0.0000
 35 H      0.8478     1.0000     0.1522     0.9308     0.9308    -0.0000
 36 H      0.8470     1.0000     0.1530     0.9304     0.9304    -0.0000
 37 H      0.8622     1.0000     0.1378     0.9375     0.9375    -0.0000
 38 H      0.8406     1.0000     0.1594     0.9401     0.9401     0.0000
 39 H      0.8377     1.0000     0.1623     0.9446     0.9446     0.0000
 40 H      0.8618     1.0000     0.1382     0.9376     0.9376    -0.0000
 41 H      0.8565     1.0000     0.1435     0.9341     0.9341     0.0000
 42 H      0.8642     1.0000     0.1358     0.9381     0.9381    -0.0000
 43 H      0.8487     1.0000     0.1513     0.9315     0.9315    -0.0000
 44 H      0.8513     1.0000     0.1487     0.9580     0.9580    -0.0000

  Mayer bond orders larger than 0.100000
B(  0-O ,  1-C ) :   1.8010 B(  1-C ,  2-N ) :   1.0283 B(  1-C , 20-C ) :   0.9859 
B(  2-N ,  3-C ) :   0.9069 B(  2-N , 30-H ) :   0.8080 B(  3-C ,  4-C ) :   0.9533 
B(  3-C , 10-C ) :   0.9481 B(  3-C , 31-H ) :   0.8933 B(  4-C ,  5-C ) :   1.3907 
B(  4-C ,  9-N ) :   1.4029 B(  5-C ,  6-C ) :   1.4513 B(  5-C ,  8-C ) :   0.1005 
B(  5-C , 32-H ) :   0.9192 B(  6-C ,  7-C ) :   1.4503 B(  6-C , 33-H ) :   0.9281 
B(  7-C ,  8-C ) :   1.4222 B(  7-C , 34-H ) :   0.9257 B(  8-C ,  9-N ) :   1.4272 
B(  8-C , 35-H ) :   0.9290 B( 10-C , 11-N ) :   1.3896 B( 10-C , 15-C ) :   1.3513 
B( 11-N , 12-C ) :   1.4166 B( 12-C , 13-C ) :   1.4269 B( 12-C , 36-H ) :   0.9287 
B( 13-C , 14-C ) :   1.4356 B( 13-C , 37-H ) :   0.9245 B( 14-C , 15-C ) :   1.4085 
B( 14-C , 38-H ) :   0.9184 B( 15-C , 16-C ) :   0.9689 B( 16-C , 17-F ) :   0.9407 
B( 16-C , 18-F ) :   0.9229 B( 16-C , 19-F ) :   0.9634 B( 20-C , 21-C ) :   1.3142 
B( 20-C , 29-C ) :   1.4381 B( 21-C , 22-C ) :   1.4960 B( 21-C , 39-H ) :   0.9140 
B( 22-C , 23-C ) :   1.2735 B( 22-C , 40-H ) :   0.9245 B( 23-C , 24-C ) :   1.3049 
B( 23-C , 28-C ) :   1.2561 B( 24-C , 25-C ) :   1.5115 B( 24-C , 41-H ) :   0.9239 
B( 25-C , 26-C ) :   1.3251 B( 25-C , 42-H ) :   0.9248 B( 26-C , 27-N ) :   1.5131 
B( 26-C , 43-H ) :   0.9300 B( 27-N , 28-C ) :   1.2507 B( 28-C , 29-C ) :   1.2901 
B( 29-C , 44-H ) :   0.9009 

-------
TIMINGS
-------

Total SCF time: 0 days 0 hours 8 min 23 sec 

Total time                  ....     503.449 sec
Sum of individual times     ....     502.859 sec  ( 99.9%)

SCF preparation             ....       0.414 sec  (  0.1%)
Fock matrix formation       ....     499.550 sec  ( 99.2%)
  Startup                   ....       0.248 sec  (  0.0% of F)
  Split-RI-J                ....      63.065 sec  ( 12.6% of F)
  Chain of spheres X        ....     389.650 sec  ( 78.0% of F)
  XC integration            ....      45.547 sec  (  9.1% of F)
    XC Preparation          ....       0.000 sec  (  0.0% of XC)
    Basis function eval.    ....      17.685 sec  ( 38.8% of XC)
    Density eval.           ....      11.580 sec  ( 25.4% of XC)
    XC-Functional eval.     ....       2.267 sec  (  5.0% of XC)
    XC-Potential eval.      ....      11.863 sec  ( 26.0% of XC)
Diagonalization             ....       0.000 sec  (  0.0%)
Density matrix formation    ....       0.464 sec  (  0.1%)
Total Energy calculation    ....       0.157 sec  (  0.0%)
Population analysis         ....       0.074 sec  (  0.0%)
Orbital Transformation      ....       0.173 sec  (  0.0%)
Orbital Orthonormalization  ....       0.000 sec  (  0.0%)
DIIS solution               ....       1.172 sec  (  0.2%)
SOSCF solution              ....       0.854 sec  (  0.2%)
Finished LeanSCF after 503.5 sec

Maximum memory used throughout the entire LEANSCF-calculation: 73.4 MB

-------------------------   --------------------
FINAL SINGLE POINT ENERGY     -1440.316443253168
-------------------------   --------------------


------------------------------------------------------------------------------
                              ORCA PROPERTY CALCULATIONS
------------------------------------------------------------------------------

GBWName                                 ... /home/nmrbox/aojoawo/Documents/ERDOS/inputs/CHEMBL4248352.gbw
Number of atoms                         ...     45
Number of basis functions               ...    450
Max core memory                         ...   1024 MB

Electric properties:
Dipole moment                           ... YES
Quadrupole moment                       ...  NO
Static polarizability (Dipole/Dipole)   ...  NO
Static polarizability (Dipole/Quad.)    ...  NO
Static polarizability (Quad./Quad.)     ...  NO
Static polarizability (Velocity)        ...  NO

Atomic electric properties:
Dipole moment                           ...  NO
Quadrupole moment                       ...  NO
Static polarizability                   ...  NO

Choice of electric origin               ... Center of mass
Position of electric origin             ...    -0.282628     0.328919    -0.222889

General magnetic properties:
Magnetizability                         ...  NO

EPR properties:
g-Tensor (aka g-matrix)                 ...  NO
Zero-Field splitting spin-orbit         ...  NO
Zero-field splitting spin-spin          ...  NO
Hyperfine couplings                     ...  NO (   0 nuclei)
Quadrupole couplings                    ...  NO (   0 nuclei)
Contact density                         ...  NO (   0 nuclei)

NMR properties:
Chemical shifts                         ...  NO (   0 nuclei)
Spin-rotation constants                 ...  NO (   0 nuclei)
Spin-spin couplings                     ...  NO (   0 nuclei,    0 pairs)

Choice of magnetic origin               ... GIAO
Position of magnetic origin             ...     0.000000     0.000000     0.000000

Properties with geometric perturbations:
SCF Hessian                             ...  NO
IR spectrum                             ...  NO
VCD spectrum                            ...  NO
X-ray spectroscopy properties:
SCF XES/XAS/RIXS spectra                ...  NO


-------------
DIPOLE MOMENT
-------------

Method             : SCF
Type of density    : Electron Density
Multiplicity       :   1
Irrep              :   0
Energy             : -1440.3164432531675629 Eh
Relativity type    : 
Basis              : AO
                                X                 Y                 Z
Electronic contribution:     -6.902907988      11.185039986      -4.712806569
Nuclear contribution   :      7.575897545     -11.068173256       5.516262233
                        -----------------------------------------
Total Dipole Moment    :      0.672989557       0.116866730       0.803455665
                        -----------------------------------------
Magnitude (a.u.)       :      1.054568055
Magnitude (Debye)      :      2.680498972



--------------------
Rotational spectrum 
--------------------
 
Rotational constants in cm-1:             0.008309             0.003167             0.002917 
Rotational constants in MHz :           249.099855            94.945475            87.445858 

Dipole components along the rotational axes: 
x,y,z [a.u.] :    -0.572078     0.874519    -0.141621 
x,y,z [Debye]:    -1.454108     2.222851    -0.359972 

 

Dipole moment calculation done in   0.0 sec 

Maximum memory used throughout the entire PROP-calculation: 36.1 MB

--------------------------------
SUGGESTED CITATIONS FOR THIS RUN
--------------------------------

Below you find a list of papers that are relevant to this ORCA run
We neither can nor want to force you to cite these papers, but we appreciate if you do
You receive ORCA, which is the product of decades of hard work by many enthusiastic individuals, for free
The only thing we kindly ask in return is that you cite our papers,
We deeply appreciate it, if you show your appreciation for ORCA by not just citing the generic ORCA reference.

Please note that relegating all ORCA citations to the supporting information does *not* help us.
SI sections are not indexed - citations you put there will not count into any citation statistics
But we need these citations in order to attract the funding resources that allow us to do what we are doing

Therefore, if you are a happy ORCA user, please consider citing a few of the papers listed below in the main body of your paper

In addition to the list printed below, the program has created the file /home/nmrbox/aojoawo/Documents/ERDOS/inputs/CHEMBL4248352.bibtex that contains the list in bibtex format
You can import this file easily into all common literature databanks and citation aid programs


List of essential papers. We consider these as the minimum necessary citations

  1. Neese,F.
     Software update: the ORCA program system, version 5.0
     WIRES Comput. Molec. Sci., 2022 12(1)e1606
     doi.org/10.1002/wcms.1606

List of papers to cite with high priority. The work reported in these papers was absolutely
necessary for this run to complete.
Our perspective: the developers of density functionals and basis sets usually get cited in chemistry papers
Good! But without the algorithms to do something with them, the functionals or basis sets would not do anything.
Hence, in our opinion, the algorithm design and method developments papers are equally worthy of getting cited

  1. Neese,F.
     An improvement of the resolution of the identity approximation for the formation of the Coulomb matrix
     J. Comp. Chem., 2003 24(14)1740-1747
     doi.org/10.1002/jcc.10318
  2. Neese,F.; Wennmohs,F.; Hansen,A.; Becker,U.
     Efficient, approximate and parallel Hartree-Fock and hybrid DFT calculations. A 'chain-of-spheres' algorithm for the Hartree-Fock exchange
     Chem. Phys., 2009 356(1-3)98-109
     doi.org/10.1016/j.chemphys.2008.10.036
  3. Helmich-Paris,B.; de Souza,B.; Neese,F.; Izsák,R.
     An improved chain of spheres for exchange algorithm
     J. Chem. Phys., 2021 155 104109
     doi.org/doi: 10.1063/5.0058766.
  4. Neese,F.
     The SHARK Integral Generation and Digestion System
     J. Comp. Chem., 2022  1-16
     doi.org/10.1002/jcc.26942

List of suggested additional citations. These are papers that are important in the 'surrounding' of 
of this run, or papers that preceded the highly important papers. If you like your results we are grateful for a citation.

  1. Izsak,R.; Neese,F.
     An overlap fitted chain of spheres exchange method
     J. Chem. Phys., 2011 135 144105
     doi.org/10.1063/1.3646921
  2. Izsak,R.; Hansen,A.; Neese,F.
     The resolution of identity and chain of spheres approximations for the LPNO-CCSD singles Fock term
     Molec. Phys., 2012 110 2413-2417
     doi.org/10.1080/00268976.2012.687466
  3. Neese,F.
     The ORCA program system
     WIRES Comput. Molec. Sci., 2012 2(1)73-78
     doi.org/10.1002/wcms.81
  4. Izsak,R.; Neese,F.; Klopper,W.
     Robust fitting techniques in the chain of spheres approximation to the Fock exchange: The role of the complementary space
     J. Chem. Phys., 2013 139 
     doi.org/10.1063/1.4819264
  5. Neese,F.
     Software update: the ORCA program system, version 4.0
     WIRES Comput. Molec. Sci., 2018 8(1)1-6
     doi.org/10.1002/wcms.1327
  6. Neese,F.; Wennmohs,F.; Becker,U.; Riplinger,C.
     The ORCA quantum chemistry program package
     J. Chem. Phys., 2020 152 Art. No. L224108
     doi.org/10.1063/5.0004608

List of optional additional citations

  1. Neese,F.
     Approximate second-order SCF convergence for spin unrestricted wavefunctions
     Chem. Phys. Lett., 2000 325(1-3)93-98
     doi.org/10.1016/s0009-2614(00)00662-x

Timings for individual modules:

Sum of individual times          ...      523.744 sec (=   8.729 min)
Startup calculation              ...       13.555 sec (=   0.226 min)   2.6 %
SCF iterations                   ...      509.999 sec (=   8.500 min)  97.4 %
Property calculations            ...        0.190 sec (=   0.003 min)   0.0 %
                             ****ORCA TERMINATED NORMALLY****
TOTAL RUN TIME: 0 days 0 hours 8 minutes 44 seconds 497 msec
