
                                 *****************
                                 * O   R   C   A *
                                 *****************

                                            #,                                       
                                            ###                                      
                                            ####                                     
                                            #####                                    
                                            ######                                   
                                           ########,                                 
                                     ,,################,,,,,                         
                               ,,#################################,,                 
                          ,,##########################################,,             
                       ,#########################################, ''#####,          
                    ,#############################################,,   '####,        
                  ,##################################################,,,,####,       
                ,###########''''           ''''###############################       
              ,#####''   ,,,,##########,,,,          '''####'''          '####       
            ,##' ,,,,###########################,,,                        '##       
           ' ,,###''''                  '''############,,,                           
         ,,##''                                '''############,,,,        ,,,,,,###''
      ,#''                                            '''#######################'''  
     '                                                          ''''####''''         
             ,#######,   #######,   ,#######,      ##                                
            ,#'     '#,  ##    ##  ,#'     '#,    #''#        ,####,   ,####,        
            ##       ##  ##   ,#'  ##            #'  '#       #'       #'  '#        
            ##       ##  #######   ##           ,######,      #####,   #    #        
            '#,     ,#'  ##    ##  '#,     ,#' ,#      #,     #,   #   #,  ,#        
             '#######'   ##     ##  '#######'  #'      '#     '####' # '####'        



                #########################################################
                #                        -***-                          #
                #          Department of theory and spectroscopy        #
                #                                                       #
                #                      Frank Neese                      #
                #                                                       #
                #     Directorship, Architecture, Infrastructure        #
                #                    SHARK, DRIVERS                     #
                #        Core code/Algorithms in most modules           #
                #                                                       #
                #        Max Planck Institute fuer Kohlenforschung      #
                #                Kaiser Wilhelm Platz 1                 #
                #                 D-45470 Muelheim/Ruhr                 #
                #                      Germany                          #
                #                                                       #
                #                  All rights reserved                  #
                #                        -***-                          #
                #########################################################


                         Program Version 6.0.0  -   RELEASE  -


 With contributions from (in alphabetic order):
   Daniel Aravena         : Magnetic Suceptibility
   Michael Atanasov       : Ab Initio Ligand Field Theory (pilot matlab implementation)
   Alexander A. Auer      : GIAO ZORA, VPT2 properties, NMR spectrum
   Ute Becker             : All parallelization in ORCA, NUMFREQ, NUMCALC
   Giovanni Bistoni       : ED, misc. LED, open-shell LED, HFLD
   Martin Brehm           : Molecular dynamics
   Dmytro Bykov           : pre 5.0 version of the SCF Hessian
   Marcos Casanova-Páez   : Triplet and SCS-CIS(D). UHF-(DLPNO)-IP/EA/STEOM-CCSD. UHF-CVS-IP/STEOM-CCSD
   Vijay G. Chilkuri      : MRCI spin determinant printing, contributions to CSF-ICE
   Pauline Colinet        : FMM embedding
   Dipayan Datta          : RHF DLPNO-CCSD density
   Achintya Kumar Dutta   : EOM-CC, STEOM-CC
   Nicolas Foglia         : Exact transition moments, OPA infrastructure, MCD improvements
   Dmitry Ganyushin       : Spin-Orbit,Spin-Spin,Magnetic field MRCI
   Miquel Garcia          : C-PCM and meta-GGA Hessian, CCSD/C-PCM, Gaussian charge scheme
   Tiago L. C. Gouveia    : GS-ROHF, GS-ROCIS
   Yang Guo               : DLPNO-NEVPT2, F12-NEVPT2, CIM, IAO-localization
   Andreas Hansen         : Spin unrestricted coupled pair/coupled cluster methods
   Ingolf Harden          : AUTO-CI MPn and infrastructure 
   Benjamin Helmich-Paris : MC-RPA, TRAH-(SCF,CASSCF), AVAS, COSX integrals, SCF dyn. polar.
   Lee Huntington         : MR-EOM, pCC
   Robert Izsak           : Overlap fitted RIJCOSX, COSX-SCS-MP3, EOM
   Riya Kayal             : Wick's Theorem for AUTO-CI, AUTO-CI UHF-CCSDT
   Emily Kempfer          : AUTO-CI, RHF CISDT and CCSDT
   Christian Kollmar      : KDIIS, OOCD, Brueckner-CCSD(T), CCSD density, CASPT2, CASPT2-K, improved NEVPT2
   Axel Koslowski         : Symmetry handling
   Simone Kossmann        : Meta GGA functionals, TD-DFT gradient, OOMP2, (MP2 Hessian; deprecated post 5.0)
   Lucas Lang             : DCDCAS
   Marvin Lechner         : AUTO-CI (C++ implementation), FIC-MRCC
   Spencer Leger          : CASSCF response
   Dagmar Lenk            : GEPOL surface, SMD, ORCA-2-JSON
   Dimitrios Liakos       : Extrapolation schemes; Compound Job, initial MDCI parallelization
   Dimitrios Manganas     : Further ROCIS development; embedding schemes. LFT, Crystal Embedding
   Dimitrios Pantazis     : SARC Basis sets
   Anastasios Papadopoulos: AUTO-CI, single reference methods and gradients
   Taras Petrenko         : pre 6.0 DFT Hessian and TD-DFT gradient, (ASA, deprecated), ECA, 1-Electron XAS/XES, NRVS
   Peter Pinski           : DLPNO-MP2, DLPNO-MP2 Gradient
   Christoph Reimann      : Effective Core Potentials
   Marius Retegan         : Local ZFS, SOC
   Christoph Riplinger    : Optimizer, TS searches, QM/MM, DLPNO-CCSD(T), (RO)-DLPNO pert. Triples
   Michael Roemelt        : Original ROCIS implementation
   Masaaki Saitow         : Open-shell DLPNO-CCSD energy and density
   Barbara Sandhoefer     : DKH picture change effects
   Kantharuban Sivalingam : CASSCF convergence/infrastructure, NEVPT2 and variants, FIC-MRCI
   Bernardo de Souza      : ESD, SOC TD-DFT
   Georgi Stoychev        : AutoAux, RI-MP2 NMR, DLPNO-MP2 response, X2C
   Van Anh Tran           : RI-MP2 g-tensors
   Willem Van den Heuvel  : Paramagnetic NMR
   Zikuan Wang            : NOTCH, Electric field optimization 
   Frank Wennmohs         : Technical directorship and infrastructure
   Hang Xu                : AUTO-CI-Response properties 


 We gratefully acknowledge several colleagues who have allowed us to
 interface, adapt or use parts of their codes:
   Stefan Grimme, W. Hujo, H. Kruse, P. Pracht,  : VdW corrections, initial TS optimization,
                  C. Bannwarth, S. Ehlert,         DFT functionals, gCP, sTDA/sTD-DF
                  L. Wittmann, M. Mueller
   Ed Valeev, F. Pavosevic, A. Kumar             : LibInt (2-el integral package), F12 methods
   Garnet Chan, S. Sharma, J. Yang, R. Olivares  : DMRG
   Ulf Ekstrom                                   : XCFun DFT Library
   Mihaly Kallay                                 : mrcc  (arbitrary order and MRCC methods)
   Frank Weinhold                                : gennbo (NPA and NBO analysis)
   Simon Mueller                                 : openCOSMO-RS
   Christopher J. Cramer and Donald G. Truhlar   : smd solvation model
   Lars Goerigk                                  : TD-DFT with DH, B97 family of functionals
   V. Asgeirsson, H. Jonsson                     : NEB implementation
   FAccTs GmbH                                   : IRC, NEB, NEB-TS, DLPNO-Multilevel, CI-OPT
                                                   MM, QMMM, 2- and 3-layer-ONIOM, Crystal-QMMM,
                                                   LR-CPCM, SF, NACMEs, symmetry and pop. for TD-DFT,
                                                   nearIR, NL-DFT gradient (VV10), updates on ESD,
                                                   ML-optimized integration grids, MBIS, APM,
                                                   GOAT, DOCKER, SOLVATOR, interface openCOSMO-RS
   S Lehtola, MJT Oliveira, MAL Marques          : LibXC Library
   Liviu Ungur et al                             : ANISO software


 Your calculation uses the libint2 library for the computation of 2-el integrals
 For citations please refer to: http://libint.valeyev.net

 Your ORCA version has been built with support for libXC version: 6.2.2
 For citations please refer to: https://libxc.gitlab.io

 This ORCA versions uses:
   CBLAS   interface :  Fast vector & matrix operations
   LAPACKE interface :  Fast linear algebra routines
   SCALAPACK package :  Parallel linear algebra routines
   Shared memory     :  Shared parallel matrices
   BLAS/LAPACK       :  OpenBLAS 0.3.27  USE64BITINT DYNAMIC_ARCH NO_AFFINITY SkylakeX SINGLE_THREADED
        Core in use  :  SkylakeX
   Copyright (c) 2011-2014, The OpenBLAS Project


Warning: RI is on but no J-basis has been assigned. Assigning Def2/J (nothing to worry about!)
================================================================================

----- Orbital basis set information -----
Your calculation utilizes the basis: 6-31G*
   H-He, Li-Ne : W. J. Hehre, R. Ditchfield and J.A. Pople, J. Chem. Phys. 56, 2257 (1972).
                 Note: He and Ne are unpublished basis sets taken from the Gaussian program.
                 Note: Li and B from J. D. Dill and J. A. Pople, J. Chem. Phys. 62, 2921 (1975).
   Na - Ar     : M. M. Francl, W. J. Pietro, W. J. Hehre, J. S. Binkley, M. S. Gordon, 
                 D. J. DeFrees and J. A. Pople, J. Chem. Phys. 77, 3654 (1982).
   K - Zn      : V. A. Rassolov, J. A. Pople, M. A. Ratner, and T. L. Windus, J. Chem. Phys. 109, 1223 (1998).

----- AuxJ basis set information -----
Your calculation utilizes the auxiliary basis: def2/J
   F. Weigend, Phys. Chem. Chem. Phys. 8, 1057 (2006).

================================================================================
                                        WARNINGS
                       Please study these warnings very carefully!
================================================================================


================================================================================
                                       INPUT FILE
================================================================================
NAME = /home/nmrbox/aojoawo/Documents/ERDOS/inputs/CHEMBL5290167.inp
|  1> ! B3LYP 6-31G* SP
|  2> 
|  3> * xyz 0 1
|  4> C -6.6338 -0.7383 1.0178
|  5> C -6.1513 -0.5571 -0.4153
|  6> N -4.8444 0.0871 -0.4274
|  7> N -4.6572 1.3950 -0.4544
|  8> N -3.3584 1.6402 -0.3963
|  9> C -2.7741 0.4256 -0.3237
| 10> C -1.3164 0.2272 -0.2349
| 11> S -0.2055 1.4912 -0.2182
| 12> C 1.1395 0.4834 -0.1059
| 13> C 2.5524 0.9252 -0.0424
| 14> C 2.8830 2.2918 -0.0733
| 15> C 4.2178 2.6975 -0.0128
| 16> C 5.2369 1.7484 0.0790
| 17> C 4.9340 0.3835 0.1114
| 18> O 5.9947 -0.5303 0.2043
| 19> C 5.8377 -1.9449 0.2467
| 20> C 3.5867 -0.0250 0.0503
| 21> N 0.7608 -0.8148 -0.0802
| 22> C -0.5889 -0.9695 -0.1506
| 23> O -1.1494 -2.2458 -0.1359
| 24> N -3.6944 -0.5574 -0.3349
| 25> H -5.9199 -1.3741 1.5834
| 26> H -6.7203 0.2492 1.5190
| 27> H -7.6296 -1.2294 1.0176
| 28> H -6.8809 0.0653 -0.9771
| 29> H -6.0835 -1.5489 -0.9124
| 30> H 2.1144 3.0500 -0.1441
| 31> H 4.4632 3.7514 -0.0372
| 32> H 6.2682 2.0746 0.1253
| 33> H 5.3427 -2.3022 -0.6809
| 34> H 6.8380 -2.4185 0.3202
| 35> H 5.2403 -2.2363 1.1363
| 36> H 3.3406 -1.0778 0.0746
| 37> H -2.1428 -2.4163 -0.1862
| 38> *
| 39> 
| 40>                          ****END OF INPUT****
================================================================================

                       ****************************
                       * Single Point Calculation *
                       ****************************

---------------------------------
CARTESIAN COORDINATES (ANGSTROEM)
---------------------------------
  C     -6.633800   -0.738300    1.017800
  C     -6.151300   -0.557100   -0.415300
  N     -4.844400    0.087100   -0.427400
  N     -4.657200    1.395000   -0.454400
  N     -3.358400    1.640200   -0.396300
  C     -2.774100    0.425600   -0.323700
  C     -1.316400    0.227200   -0.234900
  S     -0.205500    1.491200   -0.218200
  C      1.139500    0.483400   -0.105900
  C      2.552400    0.925200   -0.042400
  C      2.883000    2.291800   -0.073300
  C      4.217800    2.697500   -0.012800
  C      5.236900    1.748400    0.079000
  C      4.934000    0.383500    0.111400
  O      5.994700   -0.530300    0.204300
  C      5.837700   -1.944900    0.246700
  C      3.586700   -0.025000    0.050300
  N      0.760800   -0.814800   -0.080200
  C     -0.588900   -0.969500   -0.150600
  O     -1.149400   -2.245800   -0.135900
  N     -3.694400   -0.557400   -0.334900
  H     -5.919900   -1.374100    1.583400
  H     -6.720300    0.249200    1.519000
  H     -7.629600   -1.229400    1.017600
  H     -6.880900    0.065300   -0.977100
  H     -6.083500   -1.548900   -0.912400
  H      2.114400    3.050000   -0.144100
  H      4.463200    3.751400   -0.037200
  H      6.268200    2.074600    0.125300
  H      5.342700   -2.302200   -0.680900
  H      6.838000   -2.418500    0.320200
  H      5.240300   -2.236300    1.136300
  H      3.340600   -1.077800    0.074600
  H     -2.142800   -2.416300   -0.186200

----------------------------
CARTESIAN COORDINATES (A.U.)
----------------------------
  NO LB      ZA    FRAG     MASS         X           Y           Z
   0 C     6.0000    0    12.011  -12.536065   -1.395185    1.923363
   1 C     6.0000    0    12.011  -11.624272   -1.052766   -0.784803
   2 N     7.0000    0    14.007   -9.154589    0.164595   -0.807669
   3 N     7.0000    0    14.007   -8.800833    2.636168   -0.858692
   4 N     7.0000    0    14.007   -6.346456    3.099529   -0.748898
   5 C     6.0000    0    12.011   -5.242289    0.804267   -0.611704
   6 C     6.0000    0    12.011   -2.487635    0.429346   -0.443897
   7 S    16.0000    0    32.060   -0.388339    2.817960   -0.412338
   8 C     6.0000    0    12.011    2.153343    0.913494   -0.200122
   9 C     6.0000    0    12.011    4.823337    1.748375   -0.080124
  10 C     6.0000    0    12.011    5.448080    4.330874   -0.138517
  11 C     6.0000    0    12.011    7.970487    5.097536   -0.024188
  12 C     6.0000    0    12.011    9.896307    3.303997    0.149288
  13 C     6.0000    0    12.011    9.323909    0.724710    0.210515
  14 O     8.0000    0    15.999   11.328341   -1.002122    0.386071
  15 C     6.0000    0    12.011   11.031654   -3.675328    0.466195
  16 C     6.0000    0    12.011    6.777881   -0.047243    0.095053
  17 N     7.0000    0    14.007    1.437704   -1.539749   -0.151556
  18 C     6.0000    0    12.011   -1.112860   -1.832089   -0.284593
  19 O     8.0000    0    15.999   -2.172051   -4.243947   -0.256814
  20 N     7.0000    0    14.007   -6.981404   -1.053333   -0.632869
  21 H     1.0000    0     1.008  -11.186990   -2.596673    2.992192
  22 H     1.0000    0     1.008  -12.699527    0.470920    2.870494
  23 H     1.0000    0     1.008  -14.417855   -2.323229    1.922985
  24 H     1.0000    0     1.008  -13.003017    0.123399   -1.846451
  25 H     1.0000    0     1.008  -11.496149   -2.926997   -1.724186
  26 H     1.0000    0     1.008    3.995637    5.763665   -0.272310
  27 H     1.0000    0     1.008    8.434226    7.089119   -0.070298
  28 H     1.0000    0     1.008   11.845181    3.920426    0.236783
  29 H     1.0000    0     1.008   10.096240   -4.350528   -1.286715
  30 H     1.0000    0     1.008   12.921947   -4.570303    0.605090
  31 H     1.0000    0     1.008    9.902732   -4.225995    2.147296
  32 H     1.0000    0     1.008    6.312819   -2.036747    0.140974
  33 H     1.0000    0     1.008   -4.049305   -4.566145   -0.351867

--------------------------------
INTERNAL COORDINATES (ANGSTROEM)
--------------------------------
 C      0   0   0     0.000000000000     0.00000000     0.00000000
 C      1   0   0     1.522962671900     0.00000000     0.00000000
 N      2   1   0     1.457095624865   110.15589956     0.00000000
 N      3   2   1     1.321504918644   124.38738791   270.94321619
 N      4   3   2     1.323019308249   108.75922401   177.16769913
 C      5   4   3     1.349789024255   105.10261950   359.57716695
 C      6   5   4     1.473817251222   123.54028192   180.32510066
 S      7   6   5     1.682876614610   123.53106445   359.80292645
 C      8   7   6     1.684427834607    94.49533577   179.97755150
 C      9   8   7     1.481723962147   125.86412746   179.99837307
 C     10   9   8     1.406359388634   120.86061114     0.00000000
 C     11  10   9     1.396403874243   120.40246319   179.99587032
 C     12  11  10     1.395629915128   120.21638838     0.00000000
 C     13  12  11     1.398481383501   120.47006364     0.00000000
 O     14  13  12     1.403119859456   118.25676842   180.00166087
 C     15  14  13     1.423917104329   124.44547551   180.00117111
 C     10   9   8     1.407568762086   120.14718264   180.00086759
 N      9   8   7     1.352552187533   110.60720021     0.00000000
 C     18   9   8     1.360359636273   112.70347577     0.00000000
 O     19  18   9     1.394029422215   120.16497601   180.00145806
 N      3   2   1     1.321528092777   124.35430282    86.84594509
 H      1   2   3     1.110764696054   110.09850536   299.75867925
 H      1   2   3     1.110783480252   110.08947375    60.22586201
 H      1   2   3     1.110313870039   109.66967720   179.99384431
 H      2   1   3     1.111448226415   109.52979025   239.26326913
 H      2   1   3     1.111473117084   109.51248828   120.65670805
 H     11  10   9     1.081954638606   121.02433788     0.00000000
 H     12  11  10     1.082368574008   119.90982992   179.99803945
 H     13  12  11     1.082649444650   119.57019530   180.00109157
 H     16  15  14     1.110463889552   110.11634957    60.84330628
 H     16  15  14     1.109188577294   109.06999422   179.99744269
 H     16  15  14     1.110490378166   110.11214223   299.15309682
 H     17  10   9     1.081454363346   119.43533594     0.00000000
 H     20  19  18     1.009179815494   123.36291409   180.03646182

---------------------------
INTERNAL COORDINATES (A.U.)
---------------------------
 C      0   0   0     0.000000000000     0.00000000     0.00000000
 C      1   0   0     2.877982362075     0.00000000     0.00000000
 N      2   1   0     2.753511681929   110.15589956     0.00000000
 N      3   2   1     2.497282380867   124.38738791   270.94321619
 N      4   3   2     2.500144162481   108.75922401   177.16769913
 C      5   4   3     2.550731594415   105.10261950   359.57716695
 C      6   5   4     2.785110976258   123.54028192   180.32510066
 S      7   6   5     3.180175918793   123.53106445   359.80292645
 C      8   7   6     3.183107299762    94.49533577   179.97755150
 C      9   8   7     2.800052494526   125.86412746   179.99837307
 C     10   9   8     2.657634090388   120.86061114     0.00000000
 C     11  10   9     2.638820894665   120.40246319   179.99587032
 C     12  11  10     2.637358323900   120.21638838     0.00000000
 C     13  12  11     2.642746818205   120.47006364     0.00000000
 O     14  13  12     2.651512267438   118.25676842   180.00166087
 C     15  14  13     2.690813364588   124.44547551   180.00117111
 C     10   9   8     2.659919475005   120.14718264   180.00086759
 N      9   8   7     2.555953216273   110.60720021     0.00000000
 C     18   9   8     2.570707156196   112.70347577     0.00000000
 O     19  18   9     2.634333830614   120.16497601   180.00145806
 N      3   2   1     2.497326173633   124.35430282    86.84594509
 H      1   2   3     2.099041074770   110.09850536   299.75867925
 H      1   2   3     2.099076571760   110.08947375    60.22586201
 H      1   2   3     2.098189137067   109.66967720   179.99384431
 H      2   1   3     2.100332759956   109.52979025   239.26326913
 H      2   1   3     2.100379796504   109.51248828   120.65670805
 H     11  10   9     2.044597956290   121.02433788     0.00000000
 H     12  11  10     2.045380180838   119.90982992   179.99803945
 H     13  12  11     2.045910949430   119.57019530   180.00109157
 H     16  15  14     2.098472632863   110.11634957    60.84330628
 H     16  15  14     2.096062641960   109.06999422   179.99744269
 H     16  15  14     2.098522689089   110.11214223   299.15309682
 H     17  10   9     2.043652573058   119.43533594     0.00000000
 H     20  19  18     1.907073471164   123.36291409   180.03646182

---------------------
BASIS SET INFORMATION
---------------------
There are 5 groups of distinct atoms

 Group   1 Type C   : 10s4p1d contracted to 3s2p1d pattern {631/31/1}
 Group   2 Type N   : 10s4p1d contracted to 3s2p1d pattern {631/31/1}
 Group   3 Type S   : 16s10p1d contracted to 4s3p1d pattern {6631/631/1}
 Group   4 Type O   : 10s4p1d contracted to 3s2p1d pattern {631/31/1}
 Group   5 Type H   : 4s contracted to 2s pattern {31}

Atom   0C    basis set group =>   1
Atom   1C    basis set group =>   1
Atom   2N    basis set group =>   2
Atom   3N    basis set group =>   2
Atom   4N    basis set group =>   2
Atom   5C    basis set group =>   1
Atom   6C    basis set group =>   1
Atom   7S    basis set group =>   3
Atom   8C    basis set group =>   1
Atom   9C    basis set group =>   1
Atom  10C    basis set group =>   1
Atom  11C    basis set group =>   1
Atom  12C    basis set group =>   1
Atom  13C    basis set group =>   1
Atom  14O    basis set group =>   4
Atom  15C    basis set group =>   1
Atom  16C    basis set group =>   1
Atom  17N    basis set group =>   2
Atom  18C    basis set group =>   1
Atom  19O    basis set group =>   4
Atom  20N    basis set group =>   2
Atom  21H    basis set group =>   5
Atom  22H    basis set group =>   5
Atom  23H    basis set group =>   5
Atom  24H    basis set group =>   5
Atom  25H    basis set group =>   5
Atom  26H    basis set group =>   5
Atom  27H    basis set group =>   5
Atom  28H    basis set group =>   5
Atom  29H    basis set group =>   5
Atom  30H    basis set group =>   5
Atom  31H    basis set group =>   5
Atom  32H    basis set group =>   5
Atom  33H    basis set group =>   5
---------------------------------
AUXILIARY/J BASIS SET INFORMATION
---------------------------------
There are 5 groups of distinct atoms

 Group   1 Type C   : 12s5p4d2f1g contracted to 6s4p3d1f1g pattern {711111/2111/211/2/1}
 Group   2 Type N   : 12s5p4d2f1g contracted to 6s4p3d1f1g pattern {711111/2111/211/2/1}
 Group   3 Type S   : 14s5p5d2f1g contracted to 8s4p3d1f1g pattern {71111111/2111/311/2/1}
 Group   4 Type O   : 12s5p4d2f1g contracted to 6s4p3d1f1g pattern {711111/2111/211/2/1}
 Group   5 Type H   : 5s2p1d contracted to 3s1p1d pattern {311/2/1}

Atom   0C    basis set group =>   1
Atom   1C    basis set group =>   1
Atom   2N    basis set group =>   2
Atom   3N    basis set group =>   2
Atom   4N    basis set group =>   2
Atom   5C    basis set group =>   1
Atom   6C    basis set group =>   1
Atom   7S    basis set group =>   3
Atom   8C    basis set group =>   1
Atom   9C    basis set group =>   1
Atom  10C    basis set group =>   1
Atom  11C    basis set group =>   1
Atom  12C    basis set group =>   1
Atom  13C    basis set group =>   1
Atom  14O    basis set group =>   4
Atom  15C    basis set group =>   1
Atom  16C    basis set group =>   1
Atom  17N    basis set group =>   2
Atom  18C    basis set group =>   1
Atom  19O    basis set group =>   4
Atom  20N    basis set group =>   2
Atom  21H    basis set group =>   5
Atom  22H    basis set group =>   5
Atom  23H    basis set group =>   5
Atom  24H    basis set group =>   5
Atom  25H    basis set group =>   5
Atom  26H    basis set group =>   5
Atom  27H    basis set group =>   5
Atom  28H    basis set group =>   5
Atom  29H    basis set group =>   5
Atom  30H    basis set group =>   5
Atom  31H    basis set group =>   5
Atom  32H    basis set group =>   5
Atom  33H    basis set group =>   5
------------------------------------------------------------------------------
                             ORCA STARTUP CALCULATIONS
                           -- RI-GTO INTEGRALS CHOSEN --
------------------------------------------------------------------------------
------------------------------------------------------------------------------
                   ___                                                        
                  /   \      - P O W E R E D   B Y -                         
                 /     \                                                     
                 |  |  |   _    _      __       _____    __    __             
                 |  |  |  | |  | |    /  \     |  _  \  |  |  /  |          
                  \  \/   | |  | |   /    \    | | | |  |  | /  /          
                 / \  \   | |__| |  /  /\  \   | |_| |  |  |/  /          
                |  |  |   |  __  | /  /__\  \  |    /   |      \           
                |  |  |   | |  | | |   __   |  |    \   |  |\   \          
                \     /   | |  | | |  |  |  |  | |\  \  |  | \   \       
                 \___/    |_|  |_| |__|  |__|  |_| \__\ |__|  \__/        
                                                                              
                      - O R C A' S   B I G   F R I E N D -                    
                                      &                                       
                       - I N T E G R A L  F E E D E R -                       
                                                                              
 v1 FN, 2020, v2 2021, v3 2022-2024                                           
------------------------------------------------------------------------------


----------------------
SHARK INTEGRAL PACKAGE
----------------------

Number of atoms                             ...     34
Number of basis functions                   ...    324
Number of shells                            ...    154
Maximum angular momentum                    ...      2
Integral batch strategy                     ... SHARK/LIBINT Hybrid
RI-J (if used) integral strategy            ... SPLIT-RIJ (Revised 2003 algorithm where possible)
Printlevel                                  ...      1
Contraction scheme used                     ... SEGMENTED contraction
Prescreening option                         ... SCHWARTZ
   Thresh                                   ... 1.000e-10
   Tcut                                     ... 1.000e-11
   Tpresel                                  ... 1.000e-11 
Coulomb Range Separation                    ... NOT USED
Exchange Range Separation                   ... NOT USED
Multipole approximations                    ... NOT USED
Finite Nucleus Model                        ... NOT USED
CABS basis                                  ... NOT available
Auxiliary Coulomb fitting basis             ... AVAILABLE
   # of basis functions in Aux-J            ...   1174
   # of shells in Aux-J                     ...    382
   Maximum angular momentum in Aux-J        ...      4
Auxiliary J/K fitting basis                 ... NOT available
Auxiliary Correlation fitting basis         ... NOT available
Auxiliary 'external' fitting basis          ... NOT available

Checking pre-screening integrals            ... done (  0.0 sec) Dimension = 154
Check shell pair data                       ... done (  0.0 sec)
Shell pair information
Shell pair cut-off parameter TPreSel        ...   1.0e-11
Total number of shell pairs                 ...     11935
Shell pairs after pre-screening             ...      7118
Total number of primitive shell pairs       ...     72520
Primitive shell pairs kept                  ...     24497
          la=0 lb=0:   2218 shell pairs
          la=1 lb=0:   2485 shell pairs
          la=1 lb=1:    711 shell pairs
          la=2 lb=0:    994 shell pairs
          la=2 lb=1:    586 shell pairs
          la=2 lb=2:    124 shell pairs

Calculating one electron integrals          ... done (  0.1 sec)
Calculating RI/J V-Matrix + Cholesky decomp.... done (  0.2 sec)
Calculating Nuclear repulsion               ... done (  0.0 sec) ENN=   1673.582012475175 Eh

Diagonalization of the overlap matrix:
Smallest eigenvalue                        ... 4.527e-04
Time for diagonalization                   ...    0.016 sec
Threshold for overlap eigenvalues          ... 1.000e-07
Number of eigenvalues below threshold      ... 0
Time for construction of square roots      ...    0.023 sec
Total time needed                          ...    0.051 sec

-------------------
DFT GRID GENERATION
-------------------

General Integration Accuracy     IntAcc      ... 4.388
Radial Grid Type                 RadialGrid  ... OptM3 with GC (2021)
Angular Grid (max. ang.)         AngularGrid ... 4 (Lebedev-302)
Angular grid pruning method      GridPruning ... 4 (adaptive)
Weight generation scheme         WeightScheme... mBecke (2022)
Basis function cutoff            BFCut       ... 1.0000e-10
Integration weight cutoff        WCut        ... 1.0000e-14
Partially contracted basis set               ... off
Rotationally invariant grid construction     ... off
Angular grids for H and He will be reduced by one unit

Total number of grid points                  ...   169163
Total number of batches                      ...     2663
Average number of points per batch           ...       63
Average number of grid points per atom       ...     4975

--------------------
COSX GRID GENERATION
--------------------

GRIDX 1
-------
General Integration Accuracy     IntAcc      ... 3.816
Radial Grid Type                 RadialGrid  ... OptM3 with GC (2021)
Angular Grid (max. ang.)         AngularGrid ... 1 (Lebedev-50)
Angular grid pruning method      GridPruning ... 4 (adaptive)
Weight generation scheme         WeightScheme... mBecke (2022)
Basis function cutoff            BFCut       ... 1.0000e-10
Integration weight cutoff        WCut        ... 1.0000e-14
Partially contracted basis set               ... on
Rotationally invariant grid construction     ... off
Angular grids for H and He will be reduced by one unit

Total number of grid points                  ...    22559
Total number of batches                      ...      197
Average number of points per batch           ...      114
Average number of grid points per atom       ...      664
UseSFitting                                  ... on

GRIDX 2
-------
General Integration Accuracy     IntAcc      ... 4.020
Radial Grid Type                 RadialGrid  ... OptM3 with GC (2021)
Angular Grid (max. ang.)         AngularGrid ... 2 (Lebedev-110)
Angular grid pruning method      GridPruning ... 4 (adaptive)
Weight generation scheme         WeightScheme... mBecke (2022)
Basis function cutoff            BFCut       ... 1.0000e-10
Integration weight cutoff        WCut        ... 1.0000e-14
Partially contracted basis set               ... on
Rotationally invariant grid construction     ... off
Angular grids for H and He will be reduced by one unit

Total number of grid points                  ...    47324
Total number of batches                      ...      388
Average number of points per batch           ...      121
Average number of grid points per atom       ...     1392
UseSFitting                                  ... on

GRIDX 3
-------
General Integration Accuracy     IntAcc      ... 4.338
Radial Grid Type                 RadialGrid  ... OptM3 with GC (2021)
Angular Grid (max. ang.)         AngularGrid ... 3 (Lebedev-194)
Angular grid pruning method      GridPruning ... 4 (adaptive)
Weight generation scheme         WeightScheme... mBecke (2022)
Basis function cutoff            BFCut       ... 1.0000e-10
Integration weight cutoff        WCut        ... 1.0000e-14
Partially contracted basis set               ... on
Rotationally invariant grid construction     ... off
Angular grids for H and He will be reduced by one unit

Total number of grid points                  ...   104411
Total number of batches                      ...      831
Average number of points per batch           ...      125
Average number of grid points per atom       ...     3071
UseSFitting                                  ... on
Initializing property integral containers    ... done (  0.1 sec)

SHARK setup successfully completed in   5.8 seconds

Maximum memory used throughout the entire STARTUP-calculation: 69.1 MB
-------------------------------------------------------------------------------
                                 ORCA GUESS
                   Start orbitals & Density for SCF / CASSCF
-------------------------------------------------------------------------------

------------
SCF SETTINGS
------------
Hamiltonian:
 Density Functional     Method          .... DFT(GTOs)
 Exchange Functional    Exchange        .... B88
   X-Alpha parameter    XAlpha          ....  0.666667
   Becke's b parameter  XBeta           ....  0.004200
 Correlation Functional Correlation     .... LYP
 LDA part of GGA corr.  LDAOpt          .... VWN-5
 Gradients option       PostSCFGGA      .... off
 Hybrid DFT is turned on
   Fraction HF Exchange ScalHFX         ....  0.200000
   Scaling of DF-GGA-X  ScalDFX         ....  0.720000
   Scaling of DF-GGA-C  ScalDFC         ....  0.810000
   Scaling of DF-LDA-C  ScalLDAC        ....  1.000000
   Perturbative correction              ....  0.000000
   NL short-range parameter             ....  4.800000
 RI-approximation to the Coulomb term is turned on
   Number of AuxJ basis functions       .... 1174
   RIJ-COSX (HFX calculated with COS-X)).... on


General Settings:
 Integral files         IntName         .... /home/nmrbox/aojoawo/Documents/ERDOS/inputs/CHEMBL5290167
 Hartree-Fock type      HFTyp           .... RHF
 Total Charge           Charge          ....    0
 Multiplicity           Mult            ....    1
 Number of Electrons    NEL             ....  158
 Basis Dimension        Dim             ....  324
 Nuclear Repulsion      ENuc            ....   1673.5820124752 Eh

Convergence Acceleration:
 AO-DIIS                CNVDIIS         .... on
   Start iteration      DIISMaxIt       ....    12
   Startup error        DIISStart       ....  0.200000
   # of expansion vecs  DIISMaxEq       ....     5
   Bias factor          DIISBfac        ....   1.050
   Max. coefficient     DIISMaxC        ....  10.000
 MO-DIIS                CNVKDIIS        .... off
 Trust-Rad. Augm. Hess. CNVTRAH         .... auto
   Auto Start mean grad. ratio tolernc. ....  1.125000
   Auto Start start iteration           ....    50
   Auto Start num. interpolation iter.  ....    10
   Max. Number of Micro iterations      ....    24
   Max. Number of Macro iterations      .... Maxiter - #DIIS iter
   Number of Davidson start vectors     ....     2
   Converg. threshold    (grad. norm)   ....   5.000e-05
   Grad. Scal. Fac. for Micro threshold ....   0.100
   Minimum threshold for Micro iter.    ....   1.000e-02
   NR start threshold (gradient norm)   ....   1.000e-04
   Initial trust radius                 ....   0.400
   Minimum AH scaling param. (alpha)    ....   1.000
   Maximum AH scaling param. (alpha)    .... 1000.000
   Quad. conv. algorithm                .... NR
   White noise on init. David. guess    .... on
   Maximum white noise                  ....   0.010
   Pseudo random numbers                .... off
   Inactive MOs                         .... canonical
   Orbital update algorithm             .... Taylor
   Preconditioner                       .... Diag
   Full preconditioner red. dimension   ....   250
 SOSCF                  CNVSOSCF        .... on
   Start iteration      SOSCFMaxIt      ....   150
   Startup grad/error   SOSCFStart      ....  0.003300
   Hessian update       SOSCFHessUp     .... L-BFGS
 Level Shifting         CNVShift        .... on
   Level shift para.    LevelShift      ....    0.2500
   Turn off err/grad.   ShiftErr        ....    0.0010
 Zerner damping         CNVZerner       .... off
 Static damping         CNVDamp         .... on
   Fraction old density DampFac         ....    0.7000
   Max. Damping (<1)    DampMax         ....    0.9800
   Min. Damping (>=0)   DampMin         ....    0.0000
   Turn off err/grad.   DampErr         ....    0.1000

SCF Procedure:
 Maximum # iterations   MaxIter         ....   125
 SCF integral mode      SCFMode         .... Direct
   Integral package                     .... SHARK and LIBINT hybrid scheme
 Reset frequency        DirectResetFreq ....    20
 Integral Threshold     Thresh          ....  1.000e-10 Eh
 Primitive CutOff       TCut            ....  1.000e-11 Eh

Convergence Tolerance:
 Convergence Check Mode ConvCheckMode   .... Total+1el-Energy
 Convergence forced     ConvForced      .... 0
 Energy Change          TolE            ....  1.000e-06 Eh
 1-El. energy change                    ....  1.000e-03 Eh
 Orbital Gradient       TolG            ....  5.000e-05
 Orbital Rotation angle TolX            ....  5.000e-05
 DIIS Error             TolErr          ....  1.000e-06

------------------------------
INITIAL GUESS: MODEL POTENTIAL
------------------------------
Loading Hartree-Fock densities                     ... done
Calculating cut-offs                               ... done
Initializing the effective Hamiltonian             ... done
Setting up the integral package (SHARK)            ... done
Starting the Coulomb interaction                   ... done (   1.0 sec)
Making the grid                                    ... done (   0.6 sec)
Mapping shells                                     ... done
Starting the XC term evaluation                    ... done (   0.5 sec)
  promolecular density results
     # of electrons  =    158.000778769
     EX              =   -144.981763896
     EC              =     -5.555933595
     EX+EC           =   -150.537697491
Transforming the Hamiltonian                       ... done (   0.0 sec)
Diagonalizing the Hamiltonian                      ... done (   0.0 sec)
Back transforming the eigenvectors                 ... done (   0.0 sec)
Now organizing SCF variables                       ... done
                      ------------------
                      INITIAL GUESS DONE (   2.2 sec)
                      ------------------
             **** ENERGY FILE WAS UPDATED (/home/nmrbox/aojoawo/Documents/ERDOS/inputs/CHEMBL5290167.en.tmp) ****
Finished Guess after   2.4 sec
Maximum memory used throughout the entire GUESS-calculation: 35.7 MB

-------------------------------------------------------------------------------------------
                                      ORCA LEAN-SCF
                              memory conserving SCF solver
-------------------------------------------------------------------------------------------

----------------------------------------D-I-I-S--------------------------------------------
Iteration    Energy (Eh)           Delta-E    RMSDP     MaxDP     DIISErr   Damp  Time(sec)
-------------------------------------------------------------------------------------------
               ***  Starting incremental Fock matrix formation  ***
    1    -1324.4707121762983206     0.00e+00  2.39e-03  9.16e-02  2.18e-01  0.700  18.3
    2    -1324.6830229129398049    -2.12e-01  1.65e-03  5.91e-02  9.60e-02  0.700   8.6
                               ***Turning on AO-DIIS***
    3    -1324.7648261551387350    -8.18e-02  7.05e-04  2.26e-02  3.24e-02  0.700   9.1
    4    -1324.8140673390482789    -4.92e-02  1.25e-03  6.04e-02  1.69e-02  0.000   8.1
    5    -1324.9227175384037309    -1.09e-01  2.62e-04  9.24e-03  5.93e-03  0.000   8.2
                              *** Initializing SOSCF ***
---------------------------------------S-O-S-C-F--------------------------------------
Iteration    Energy (Eh)           Delta-E    RMSDP     MaxDP     MaxGrad    Time(sec)
--------------------------------------------------------------------------------------
    6    -1324.9234579784049401    -7.40e-04  8.97e-05  2.95e-03  2.64e-03     7.1
               *** Restarting incremental Fock matrix formation ***
    7    -1324.9235132200999487    -5.52e-05  6.83e-05  2.30e-03  4.07e-04    17.7
    8    -1324.9234949812937430     1.82e-05  4.01e-05  1.66e-03  6.73e-04    11.1
    9    -1324.9235259997324192    -3.10e-05  1.90e-05  6.79e-04  1.12e-04    10.5
   10    -1324.9235242626184572     1.74e-06  1.11e-05  4.85e-04  2.02e-04    10.5
   11    -1324.9235267893102446    -2.53e-06  3.34e-06  1.68e-04  2.26e-05    10.3
   12    -1324.9235267773149189     1.20e-08  1.99e-06  1.17e-04  3.71e-05     9.0
                 **** Energy Check signals convergence ****

               *****************************************************
               *                     SUCCESS                       *
               *           SCF CONVERGED AFTER  12 CYCLES          *
               *****************************************************

Recomputing exchange energy using gridx3       ... done (   43.006 sec)
Old exchange energy                            :    -29.287797531 Eh
New exchange energy                            :    -29.287787527 Eh
Exchange energy change after final integration :      0.000010004 Eh
Total energy after final integration           :  -1324.923516773 Eh
             **** ENERGY FILE WAS UPDATED (/home/nmrbox/aojoawo/Documents/ERDOS/inputs/CHEMBL5290167.en.tmp) ****

----------------
TOTAL SCF ENERGY
----------------

Total Energy       :      -1324.92351677322836 Eh          -36053.00179 eV

Components:
Nuclear Repulsion  :       1673.58201247517513 Eh           45540.48179 eV
Electronic Energy  :      -2998.50553925249005 Eh          -81593.48386 eV
One Electron Energy:      -5135.50712681850200 Eh         -139744.25338 eV
Two Electron Energy:       2137.00158756601195 Eh           58150.76953 eV

Virial components:
Potential Energy   :      -2643.12872345120968 Eh          -71923.18907 eV
Kinetic Energy     :       1318.20520667798132 Eh           35870.18728 eV
Virial Ratio       :          2.00509655860955

DFT components:
N(Alpha)           :       79.000058773185 electrons
N(Beta)            :       79.000058773185 electrons
N(Total)           :      158.000117546371 electrons
E(X)               :     -116.437384844533 Eh       
E(C)               :       -6.525487368346 Eh       
E(XC)              :     -122.962872212879 Eh       

---------------
SCF CONVERGENCE
---------------

  Last Energy change         ...   -1.1995e-08  Tolerance :   1.0000e-06
  Last MAX-Density change    ...    1.1728e-04  Tolerance :   1.0000e-05
  Last RMS-Density change    ...    1.9871e-06  Tolerance :   1.0000e-06
  Last DIIS Error            ...    2.6359e-03  Tolerance :   1.0000e-06
  Last Orbital Gradient      ...    3.7143e-05  Tolerance :   5.0000e-05
  Last Orbital Rotation      ...    6.8985e-05  Tolerance :   5.0000e-05


----------------
ORBITAL ENERGIES
----------------

  NO   OCC          E(Eh)            E(eV) 
   0   2.0000     -88.897947     -2419.0361 
   1   2.0000     -19.168228      -521.5940 
   2   2.0000     -19.162998      -521.4517 
   3   2.0000     -14.466222      -393.6459 
   4   2.0000     -14.404699      -391.9718 
   5   2.0000     -14.379254      -391.2794 
   6   2.0000     -14.364568      -390.8798 
   7   2.0000     -14.329246      -389.9186 
   8   2.0000     -10.284721      -279.8615 
   9   2.0000     -10.263103      -279.2732 
  10   2.0000     -10.257672      -279.1255 
  11   2.0000     -10.254555      -279.0406 
  12   2.0000     -10.247770      -278.8560 
  13   2.0000     -10.233264      -278.4613 
  14   2.0000     -10.219336      -278.0823 
  15   2.0000     -10.207753      -277.7671 
  16   2.0000     -10.200544      -277.5709 
  17   2.0000     -10.187224      -277.2085 
  18   2.0000     -10.183552      -277.1085 
  19   2.0000     -10.182799      -277.0881 
  20   2.0000     -10.182468      -277.0790 
  21   2.0000      -7.974728      -217.0034 
  22   2.0000      -5.937668      -161.5722 
  23   2.0000      -5.933707      -161.4644 
  24   2.0000      -5.931794      -161.4123 
  25   2.0000      -1.153867       -31.3983 
  26   2.0000      -1.040541       -28.3146 
  27   2.0000      -1.037556       -28.2333 
  28   2.0000      -0.959427       -26.1073 
  29   2.0000      -0.954966       -25.9860 
  30   2.0000      -0.903376       -24.5821 
  31   2.0000      -0.854305       -23.2468 
  32   2.0000      -0.818625       -22.2759 
  33   2.0000      -0.793577       -21.5943 
  34   2.0000      -0.778259       -21.1775 
  35   2.0000      -0.747749       -20.3473 
  36   2.0000      -0.728241       -19.8165 
  37   2.0000      -0.693388       -18.8681 
  38   2.0000      -0.688008       -18.7216 
  39   2.0000      -0.669236       -18.2108 
  40   2.0000      -0.625381       -17.0175 
  41   2.0000      -0.617503       -16.8031 
  42   2.0000      -0.606349       -16.4996 
  43   2.0000      -0.588367       -16.0103 
  44   2.0000      -0.559235       -15.2176 
  45   2.0000      -0.541147       -14.7254 
  46   2.0000      -0.530585       -14.4380 
  47   2.0000      -0.513997       -13.9866 
  48   2.0000      -0.506517       -13.7830 
  49   2.0000      -0.487358       -13.2617 
  50   2.0000      -0.481564       -13.1040 
  51   2.0000      -0.472985       -12.8706 
  52   2.0000      -0.456510       -12.4223 
  53   2.0000      -0.455937       -12.4067 
  54   2.0000      -0.438673       -11.9369 
  55   2.0000      -0.434685       -11.8284 
  56   2.0000      -0.427676       -11.6377 
  57   2.0000      -0.419723       -11.4212 
  58   2.0000      -0.412858       -11.2344 
  59   2.0000      -0.404077       -10.9955 
  60   2.0000      -0.400871       -10.9083 
  61   2.0000      -0.388714       -10.5775 
  62   2.0000      -0.379714       -10.3325 
  63   2.0000      -0.378729       -10.3057 
  64   2.0000      -0.369988       -10.0679 
  65   2.0000      -0.357730        -9.7343 
  66   2.0000      -0.351331        -9.5602 
  67   2.0000      -0.336070        -9.1449 
  68   2.0000      -0.328948        -8.9511 
  69   2.0000      -0.318688        -8.6719 
  70   2.0000      -0.314579        -8.5601 
  71   2.0000      -0.309916        -8.4333 
  72   2.0000      -0.308156        -8.3853 
  73   2.0000      -0.294285        -8.0079 
  74   2.0000      -0.271266        -7.3815 
  75   2.0000      -0.268822        -7.3150 
  76   2.0000      -0.255295        -6.9469 
  77   2.0000      -0.224158        -6.0996 
  78   2.0000      -0.203983        -5.5506 
  79   0.0000      -0.057780        -1.5723 
  80   0.0000      -0.028303        -0.7702 
  81   0.0000       0.003000         0.0816 
  82   0.0000       0.014293         0.3889 
  83   0.0000       0.039021         1.0618 
  84   0.0000       0.054876         1.4933 
  85   0.0000       0.073656         2.0043 
  86   0.0000       0.083368         2.2685 
  87   0.0000       0.086558         2.3554 
  88   0.0000       0.101959         2.7744 
  89   0.0000       0.106138         2.8882 
*Only the first 10 virtual orbitals were printed.

                    ********************************
                    * MULLIKEN POPULATION ANALYSIS *
                    ********************************

-----------------------
MULLIKEN ATOMIC CHARGES
-----------------------
   0 C :   -0.444960
   1 C :   -0.148035
   2 N :   -0.023309
   3 N :   -0.059306
   4 N :   -0.320140
   5 C :    0.429309
   6 C :   -0.245586
   7 S :    0.295730
   8 C :   -0.015107
   9 C :    0.149279
  10 C :   -0.202219
  11 C :   -0.128502
  12 C :   -0.165572
  13 C :    0.379820
  14 O :   -0.514704
  15 C :   -0.197837
  16 C :   -0.246259
  17 N :   -0.408237
  18 C :    0.491671
  19 O :   -0.656189
  20 N :   -0.361286
  21 H :    0.171107
  22 H :    0.176991
  23 H :    0.160405
  24 H :    0.192813
  25 H :    0.185902
  26 H :    0.144906
  27 H :    0.137855
  28 H :    0.140548
  29 H :    0.152092
  30 H :    0.167795
  31 H :    0.151936
  32 H :    0.167429
  33 H :    0.441661
Sum of atomic charges:   -0.0000000

--------------------------------
MULLIKEN REDUCED ORBITAL CHARGES
--------------------------------
  0 C s       :     3.313025  s :     3.313025
      pz      :     0.944062  p :     3.098501
      px      :     1.061586
      py      :     1.092853
      dz2     :     0.007269  d :     0.033433
      dxz     :     0.005323
      dyz     :     0.008189
      dx2y2   :     0.005722
      dxy     :     0.006931

  1 C s       :     3.227157  s :     3.227157
      pz      :     1.018239  p :     2.868853
      px      :     0.817208
      py      :     1.033406
      dz2     :     0.009278  d :     0.052025
      dxz     :     0.010995
      dyz     :     0.010605
      dx2y2   :     0.009434
      dxy     :     0.011713

  2 N s       :     3.428606  s :     3.428606
      pz      :     1.426879  p :     3.513002
      px      :     1.062763
      py      :     1.023360
      dz2     :     0.005114  d :     0.081701
      dxz     :     0.011047
      dyz     :     0.013967
      dx2y2   :     0.026406
      dxy     :     0.025167

  3 N s       :     3.671343  s :     3.671343
      pz      :     1.131741  p :     3.317747
      px      :     1.170153
      py      :     1.015853
      dz2     :     0.007753  d :     0.070216
      dxz     :     0.011266
      dyz     :     0.011415
      dx2y2   :     0.026865
      dxy     :     0.012917

  4 N s       :     3.739535  s :     3.739535
      pz      :     1.170335  p :     3.526447
      px      :     0.943105
      py      :     1.413007
      dz2     :     0.006248  d :     0.054158
      dxz     :     0.008817
      dyz     :     0.007996
      dx2y2   :     0.016449
      dxy     :     0.014649

  5 C s       :     3.012296  s :     3.012296
      pz      :     0.976282  p :     2.485003
      px      :     0.744387
      py      :     0.764334
      dz2     :     0.005027  d :     0.073393
      dxz     :     0.011411
      dyz     :     0.010938
      dx2y2   :     0.023092
      dxy     :     0.022924

  6 C s       :     3.215895  s :     3.215895
      pz      :     1.220874  p :     2.992282
      px      :     0.900469
      py      :     0.870938
      dz2     :     0.003622  d :     0.037409
      dxz     :     0.006140
      dyz     :     0.005995
      dx2y2   :     0.009076
      dxy     :     0.012575

  7 S s       :     5.801286  s :     5.801286
      pz      :     3.608318  p :     9.796820
      px      :     2.929570
      py      :     3.258932
      dz2     :     0.012196  d :     0.106164
      dxz     :     0.021451
      dyz     :     0.010513
      dx2y2   :     0.014180
      dxy     :     0.047823

  8 C s       :     3.181061  s :     3.181061
      pz      :     1.025380  p :     2.773637
      px      :     0.916509
      py      :     0.831748
      dz2     :     0.004150  d :     0.060409
      dxz     :     0.007482
      dyz     :     0.010680
      dx2y2   :     0.016174
      dxy     :     0.021922

  9 C s       :     3.132247  s :     3.132247
      pz      :     0.988675  p :     2.677999
      px      :     0.837518
      py      :     0.851807
      dz2     :     0.003238  d :     0.040475
      dxz     :     0.005514
      dyz     :     0.007020
      dx2y2   :     0.013098
      dxy     :     0.011605

 10 C s       :     3.191590  s :     3.191590
      pz      :     1.025073  p :     2.975029
      px      :     0.980792
      py      :     0.969164
      dz2     :     0.003499  d :     0.035600
      dxz     :     0.003973
      dyz     :     0.004152
      dx2y2   :     0.009844
      dxy     :     0.014133

 11 C s       :     3.193010  s :     3.193010
      pz      :     0.984718  p :     2.898660
      px      :     0.931282
      py      :     0.982660
      dz2     :     0.003503  d :     0.036832
      dxz     :     0.006619
      dyz     :     0.002273
      dx2y2   :     0.013504
      dxy     :     0.010934

 12 C s       :     3.194284  s :     3.194284
      pz      :     1.023075  p :     2.936829
      px      :     0.964666
      py      :     0.949089
      dz2     :     0.003526  d :     0.034459
      dxz     :     0.002532
      dyz     :     0.005572
      dx2y2   :     0.013365
      dxy     :     0.009463

 13 C s       :     3.079592  s :     3.079592
      pz      :     0.962679  p :     2.474068
      px      :     0.761007
      py      :     0.750381
      dz2     :     0.004541  d :     0.066520
      dxz     :     0.011151
      dyz     :     0.009733
      dx2y2   :     0.019114
      dxy     :     0.021981

 14 O s       :     3.867411  s :     3.867411
      pz      :     1.811145  p :     4.620984
      px      :     1.587689
      py      :     1.222150
      dz2     :     0.003786  d :     0.026308
      dxz     :     0.003338
      dyz     :     0.004097
      dx2y2   :     0.007077
      dxy     :     0.008010

 15 C s       :     3.256659  s :     3.256659
      pz      :     1.083465  p :     2.882348
      px      :     1.097206
      py      :     0.701677
      dz2     :     0.010136  d :     0.058830
      dxz     :     0.008113
      dyz     :     0.013323
      dx2y2   :     0.015029
      dxy     :     0.012229

 16 C s       :     3.205045  s :     3.205045
      pz      :     1.039327  p :     3.007595
      px      :     0.957086
      py      :     1.011182
      dz2     :     0.003554  d :     0.033620
      dxz     :     0.005625
      dyz     :     0.002246
      dx2y2   :     0.012614
      dxy     :     0.009581

 17 N s       :     3.713268  s :     3.713268
      pz      :     1.208698  p :     3.657063
      px      :     1.197297
      py      :     1.251068
      dz2     :     0.004382  d :     0.037906
      dxz     :     0.006413
      dyz     :     0.006809
      dx2y2   :     0.014725
      dxy     :     0.005577

 18 C s       :     2.994407  s :     2.994407
      pz      :     0.950021  p :     2.426996
      px      :     0.795347
      py      :     0.681629
      dz2     :     0.005481  d :     0.086926
      dxz     :     0.011707
      dyz     :     0.015206
      dx2y2   :     0.026606
      dxy     :     0.027926

 19 O s       :     3.884759  s :     3.884759
      pz      :     1.849580  p :     4.749442
      px      :     1.414867
      py      :     1.484994
      dz2     :     0.004090  d :     0.021988
      dxz     :     0.000822
      dyz     :     0.004033
      dx2y2   :     0.011525
      dxy     :     0.001518

 20 N s       :     3.717847  s :     3.717847
      pz      :     1.244190  p :     3.590897
      px      :     0.882504
      py      :     1.464203
      dz2     :     0.006014  d :     0.052543
      dxz     :     0.009761
      dyz     :     0.008073
      dx2y2   :     0.008800
      dxy     :     0.019895

 21 H s       :     0.828893  s :     0.828893

 22 H s       :     0.823009  s :     0.823009

 23 H s       :     0.839595  s :     0.839595

 24 H s       :     0.807187  s :     0.807187

 25 H s       :     0.814098  s :     0.814098

 26 H s       :     0.855094  s :     0.855094

 27 H s       :     0.862145  s :     0.862145

 28 H s       :     0.859452  s :     0.859452

 29 H s       :     0.847908  s :     0.847908

 30 H s       :     0.832205  s :     0.832205

 31 H s       :     0.848064  s :     0.848064

 32 H s       :     0.832571  s :     0.832571

 33 H s       :     0.558339  s :     0.558339



                     *******************************
                     * LOEWDIN POPULATION ANALYSIS *
                     *******************************

----------------------
LOEWDIN ATOMIC CHARGES
----------------------
   0 C :   -0.362227
   1 C :   -0.153264
   2 N :    0.097812
   3 N :   -0.067677
   4 N :   -0.122098
   5 C :   -0.000046
   6 C :   -0.268373
   7 S :    0.423726
   8 C :   -0.112237
   9 C :   -0.023023
  10 C :   -0.142159
  11 C :   -0.119797
  12 C :   -0.140572
  13 C :    0.091806
  14 O :   -0.193586
  15 C :   -0.199821
  16 C :   -0.151753
  17 N :   -0.164755
  18 C :    0.100924
  19 O :   -0.337905
  20 N :   -0.159839
  21 H :    0.137468
  22 H :    0.140511
  23 H :    0.136569
  24 H :    0.152468
  25 H :    0.148717
  26 H :    0.138827
  27 H :    0.137425
  28 H :    0.142089
  29 H :    0.119012
  30 H :    0.134823
  31 H :    0.118944
  32 H :    0.153033
  33 H :    0.344979

-------------------------------
LOEWDIN REDUCED ORBITAL CHARGES
-------------------------------
  0 C s       :     2.987975  s :     2.987975
      pz      :     1.051395  p :     3.308117
      px      :     1.119056
      py      :     1.137666
      dz2     :     0.016355  d :     0.066135
      dxz     :     0.011416
      dyz     :     0.016056
      dx2y2   :     0.009996
      dxy     :     0.012312

  1 C s       :     2.929945  s :     2.929945
      pz      :     1.099978  p :     3.113461
      px      :     0.928025
      py      :     1.085458
      dz2     :     0.021077  d :     0.109858
      dxz     :     0.023721
      dyz     :     0.019952
      dx2y2   :     0.020087
      dxy     :     0.025021

  2 N s       :     3.067279  s :     3.067279
      pz      :     1.368166  p :     3.645157
      px      :     1.142823
      py      :     1.134168
      dz2     :     0.011394  d :     0.189751
      dxz     :     0.020778
      dyz     :     0.028496
      dx2y2   :     0.066265
      dxy     :     0.062819

  3 N s       :     3.306309  s :     3.306309
      pz      :     1.130983  p :     3.607217
      px      :     1.291072
      py      :     1.185162
      dz2     :     0.016216  d :     0.154150
      dxz     :     0.019227
      dyz     :     0.021985
      dx2y2   :     0.063432
      dxy     :     0.033291

  4 N s       :     3.298975  s :     3.298975
      pz      :     1.160649  p :     3.707053
      px      :     1.095642
      py      :     1.450762
      dz2     :     0.012111  d :     0.116071
      dxz     :     0.017996
      dyz     :     0.010464
      dx2y2   :     0.040738
      dxy     :     0.034762

  5 C s       :     2.859903  s :     2.859903
      pz      :     0.969737  p :     2.964334
      px      :     1.000175
      py      :     0.994421
      dz2     :     0.011431  d :     0.175809
      dxz     :     0.021709
      dyz     :     0.022511
      dx2y2   :     0.057410
      dxy     :     0.062749

  6 C s       :     2.918220  s :     2.918220
      pz      :     1.187706  p :     3.254088
      px      :     1.024961
      py      :     1.041421
      dz2     :     0.007953  d :     0.096065
      dxz     :     0.011865
      dyz     :     0.012645
      dx2y2   :     0.025900
      dxy     :     0.037702

  7 S s       :     5.516656  s :     5.516656
      pz      :     3.582901  p :     9.933693
      px      :     2.979955
      py      :     3.370837
      dz2     :     0.014766  d :     0.125926
      dxz     :     0.025396
      dyz     :     0.010485
      dx2y2   :     0.016894
      dxy     :     0.058385

  8 C s       :     2.918381  s :     2.918381
      pz      :     1.007071  p :     3.053917
      px      :     1.036707
      py      :     1.010139
      dz2     :     0.008906  d :     0.139939
      dxz     :     0.013630
      dyz     :     0.020968
      dx2y2   :     0.040978
      dxy     :     0.055456

  9 C s       :     2.865513  s :     2.865513
      pz      :     0.982750  p :     3.053716
      px      :     1.006823
      py      :     1.064143
      dz2     :     0.006776  d :     0.103793
      dxz     :     0.011404
      dyz     :     0.014975
      dx2y2   :     0.037565
      dxy     :     0.033072

 10 C s       :     2.912175  s :     2.912175
      pz      :     1.016737  p :     3.146819
      px      :     1.072631
      py      :     1.057451
      dz2     :     0.006213  d :     0.083166
      dxz     :     0.008014
      dyz     :     0.008392
      dx2y2   :     0.026436
      dxy     :     0.034112

 11 C s       :     2.914739  s :     2.914739
      pz      :     0.976985  p :     3.118430
      px      :     1.067997
      py      :     1.073449
      dz2     :     0.006291  d :     0.086627
      dxz     :     0.014742
      dyz     :     0.003897
      dx2y2   :     0.033170
      dxy     :     0.028527

 12 C s       :     2.917270  s :     2.917270
      pz      :     1.011864  p :     3.141903
      px      :     1.078862
      py      :     1.051176
      dz2     :     0.006490  d :     0.081400
      dxz     :     0.004265
      dyz     :     0.011873
      dx2y2   :     0.032971
      dxy     :     0.025801

 13 C s       :     2.860063  s :     2.860063
      pz      :     0.956661  p :     2.890723
      px      :     0.961892
      py      :     0.972170
      dz2     :     0.010074  d :     0.157408
      dxz     :     0.022744
      dyz     :     0.019880
      dx2y2   :     0.050252
      dxy     :     0.054458

 14 O s       :     3.465357  s :     3.465357
      pz      :     1.795034  p :     4.667236
      px      :     1.592740
      py      :     1.279463
      dz2     :     0.006932  d :     0.060993
      dxz     :     0.005210
      dyz     :     0.010566
      dx2y2   :     0.017984
      dxy     :     0.020301

 15 C s       :     2.982305  s :     2.982305
      pz      :     1.137192  p :     3.099875
      px      :     1.142226
      py      :     0.820457
      dz2     :     0.018780  d :     0.117641
      dxz     :     0.014951
      dyz     :     0.027125
      dx2y2   :     0.030704
      dxy     :     0.026082

 16 C s       :     2.916851  s :     2.916851
      pz      :     1.029782  p :     3.156184
      px      :     1.039187
      py      :     1.087215
      dz2     :     0.006487  d :     0.078719
      dxz     :     0.011712
      dyz     :     0.003695
      dx2y2   :     0.031298
      dxy     :     0.025527

 17 N s       :     3.247926  s :     3.247926
      pz      :     1.202859  p :     3.834515
      px      :     1.277060
      py      :     1.354596
      dz2     :     0.008622  d :     0.082314
      dxz     :     0.011857
      dyz     :     0.011285
      dx2y2   :     0.037468
      dxy     :     0.013083

 18 C s       :     2.845091  s :     2.845091
      pz      :     0.957363  p :     2.851356
      px      :     0.981792
      py      :     0.912201
      dz2     :     0.012396  d :     0.202630
      dxz     :     0.023046
      dyz     :     0.031202
      dx2y2   :     0.066249
      dxy     :     0.069736

 19 O s       :     3.526318  s :     3.526318
      pz      :     1.836391  p :     4.769528
      px      :     1.425484
      py      :     1.507653
      dz2     :     0.006023  d :     0.042058
      dxz     :     0.001792
      dyz     :     0.007025
      dx2y2   :     0.021644
      dxy     :     0.005573

 20 N s       :     3.274716  s :     3.274716
      pz      :     1.234954  p :     3.768745
      px      :     1.023399
      py      :     1.510393
      dz2     :     0.011876  d :     0.116378
      dxz     :     0.023642
      dyz     :     0.009578
      dx2y2   :     0.022676
      dxy     :     0.048604

 21 H s       :     0.862532  s :     0.862532

 22 H s       :     0.859489  s :     0.859489

 23 H s       :     0.863431  s :     0.863431

 24 H s       :     0.847532  s :     0.847532

 25 H s       :     0.851283  s :     0.851283

 26 H s       :     0.861173  s :     0.861173

 27 H s       :     0.862575  s :     0.862575

 28 H s       :     0.857911  s :     0.857911

 29 H s       :     0.880988  s :     0.880988

 30 H s       :     0.865177  s :     0.865177

 31 H s       :     0.881056  s :     0.881056

 32 H s       :     0.846967  s :     0.846967

 33 H s       :     0.655021  s :     0.655021



                      *****************************
                      * MAYER POPULATION ANALYSIS *
                      *****************************

  NA   - Mulliken gross atomic population
  ZA   - Total nuclear charge
  QA   - Mulliken gross atomic charge
  VA   - Mayer's total valence
  BVA  - Mayer's bonded valence
  FA   - Mayer's free valence

  ATOM       NA         ZA         QA         VA         BVA        FA
  0 C      6.4450     6.0000    -0.4450     3.8119     3.8119     0.0000
  1 C      6.1480     6.0000    -0.1480     3.7793     3.7793    -0.0000
  2 N      7.0233     7.0000    -0.0233     3.4828     3.4828    -0.0000
  3 N      7.0593     7.0000    -0.0593     2.8535     2.8535    -0.0000
  4 N      7.3201     7.0000    -0.3201     2.9120     2.9120    -0.0000
  5 C      5.5707     6.0000     0.4293     3.7839     3.7839    -0.0000
  6 C      6.2456     6.0000    -0.2456     3.7223     3.7223    -0.0000
  7 S     15.7043    16.0000     0.2957     2.4787     2.4787     0.0000
  8 C      6.0151     6.0000    -0.0151     3.8320     3.8320     0.0000
  9 C      5.8507     6.0000     0.1493     3.9631     3.9631    -0.0000
 10 C      6.2022     6.0000    -0.2022     3.9181     3.9181     0.0000
 11 C      6.1285     6.0000    -0.1285     3.9537     3.9537    -0.0000
 12 C      6.1656     6.0000    -0.1656     3.9122     3.9122    -0.0000
 13 C      5.6202     6.0000     0.3798     3.8078     3.8078    -0.0000
 14 O      8.5147     8.0000    -0.5147     1.9705     1.9705    -0.0000
 15 C      6.1978     6.0000    -0.1978     3.7666     3.7666    -0.0000
 16 C      6.2463     6.0000    -0.2463     3.8454     3.8454    -0.0000
 17 N      7.4082     7.0000    -0.4082     2.9645     2.9645    -0.0000
 18 C      5.5083     6.0000     0.4917     3.8702     3.8702     0.0000
 19 O      8.6562     8.0000    -0.6562     1.8411     1.8411    -0.0000
 20 N      7.3613     7.0000    -0.3613     2.8503     2.8503    -0.0000
 21 H      0.8289     1.0000     0.1711     0.9336     0.9336     0.0000
 22 H      0.8230     1.0000     0.1770     0.9322     0.9322    -0.0000
 23 H      0.8396     1.0000     0.1604     0.9343     0.9343    -0.0000
 24 H      0.8072     1.0000     0.1928     0.9258     0.9258     0.0000
 25 H      0.8141     1.0000     0.1859     0.9270     0.9270     0.0000
 26 H      0.8551     1.0000     0.1449     0.9359     0.9359     0.0000
 27 H      0.8621     1.0000     0.1379     0.9366     0.9366     0.0000
 28 H      0.8595     1.0000     0.1405     0.9387     0.9387    -0.0000
 29 H      0.8479     1.0000     0.1521     0.9295     0.9295     0.0000
 30 H      0.8322     1.0000     0.1678     0.9313     0.9313     0.0000
 31 H      0.8481     1.0000     0.1519     0.9295     0.9295    -0.0000
 32 H      0.8326     1.0000     0.1674     0.9463     0.9463    -0.0000
 33 H      0.5583     1.0000     0.4417     0.7976     0.7976    -0.0000

  Mayer bond orders larger than 0.100000
B(  0-C ,  1-C ) :   1.0031 B(  0-C , 21-H ) :   0.9443 B(  0-C , 22-H ) :   0.9433 
B(  0-C , 23-H ) :   0.9416 B(  1-C ,  2-N ) :   0.8974 B(  1-C , 24-H ) :   0.9256 
B(  1-C , 25-H ) :   0.9274 B(  2-N ,  3-N ) :   1.2491 B(  2-N , 20-N ) :   1.2199 
B(  3-N ,  4-N ) :   1.4264 B(  3-N , 20-N ) :   0.1313 B(  4-N ,  5-C ) :   1.2865 
B(  5-C ,  6-C ) :   1.0573 B(  5-C , 20-N ) :   1.3584 B(  6-C ,  7-S ) :   1.0796 
B(  6-C ,  8-C ) :   0.1204 B(  6-C , 18-C ) :   1.3804 B(  7-S ,  8-C ) :   1.1532 
B(  8-C ,  9-C ) :   1.0238 B(  8-C , 17-N ) :   1.4281 B(  9-C , 10-C ) :   1.3953 
B(  9-C , 16-C ) :   1.3889 B( 10-C , 11-C ) :   1.4369 B( 10-C , 26-H ) :   0.9161 
B( 11-C , 12-C ) :   1.4498 B( 11-C , 27-H ) :   0.9286 B( 12-C , 13-C ) :   1.3899 
B( 12-C , 28-H ) :   0.9196 B( 13-C , 14-O ) :   0.9180 B( 13-C , 16-C ) :   1.3441 
B( 14-O , 15-C ) :   0.9159 B( 15-C , 29-H ) :   0.9303 B( 15-C , 30-H ) :   0.9450 
B( 15-C , 31-H ) :   0.9303 B( 16-C , 32-H ) :   0.8974 B( 17-N , 18-C ) :   1.3193 
B( 18-C , 19-O ) :   1.0099 B( 19-O , 33-H ) :   0.7194 

-------
TIMINGS
-------

Total SCF time: 0 days 0 hours 2 min 51 sec 

Total time                  ....     171.886 sec
Sum of individual times     ....     171.515 sec  ( 99.8%)

SCF preparation             ....       0.268 sec  (  0.2%)
Fock matrix formation       ....     169.305 sec  ( 98.5%)
  Startup                   ....       0.076 sec  (  0.0% of F)
  Split-RI-J                ....      18.484 sec  ( 10.9% of F)
  Chain of spheres X        ....     132.742 sec  ( 78.4% of F)
  XC integration            ....      17.162 sec  ( 10.1% of F)
    XC Preparation          ....       0.000 sec  (  0.0% of XC)
    Basis function eval.    ....       6.690 sec  ( 39.0% of XC)
    Density eval.           ....       3.407 sec  ( 19.9% of XC)
    XC-Functional eval.     ....       0.961 sec  (  5.6% of XC)
    XC-Potential eval.      ....       4.468 sec  ( 26.0% of XC)
Diagonalization             ....       0.000 sec  (  0.0%)
Density matrix formation    ....       0.475 sec  (  0.3%)
Total Energy calculation    ....       0.123 sec  (  0.1%)
Population analysis         ....       0.061 sec  (  0.0%)
Orbital Transformation      ....       0.130 sec  (  0.1%)
Orbital Orthonormalization  ....       0.000 sec  (  0.0%)
DIIS solution               ....       0.815 sec  (  0.5%)
SOSCF solution              ....       0.337 sec  (  0.2%)
Finished LeanSCF after 172.2 sec

Maximum memory used throughout the entire LEANSCF-calculation: 45.3 MB

-------------------------   --------------------
FINAL SINGLE POINT ENERGY     -1324.923516773228
-------------------------   --------------------


------------------------------------------------------------------------------
                              ORCA PROPERTY CALCULATIONS
------------------------------------------------------------------------------

GBWName                                 ... /home/nmrbox/aojoawo/Documents/ERDOS/inputs/CHEMBL5290167.gbw
Number of atoms                         ...     34
Number of basis functions               ...    324
Max core memory                         ...   1024 MB

Electric properties:
Dipole moment                           ... YES
Quadrupole moment                       ...  NO
Static polarizability (Dipole/Dipole)   ...  NO
Static polarizability (Dipole/Quad.)    ...  NO
Static polarizability (Quad./Quad.)     ...  NO
Static polarizability (Velocity)        ...  NO

Atomic electric properties:
Dipole moment                           ...  NO
Quadrupole moment                       ...  NO
Static polarizability                   ...  NO

Choice of electric origin               ... Center of mass
Position of electric origin             ...     0.019630     0.510080    -0.155739

General magnetic properties:
Magnetizability                         ...  NO

EPR properties:
g-Tensor (aka g-matrix)                 ...  NO
Zero-Field splitting spin-orbit         ...  NO
Zero-field splitting spin-spin          ...  NO
Hyperfine couplings                     ...  NO (   0 nuclei)
Quadrupole couplings                    ...  NO (   0 nuclei)
Contact density                         ...  NO (   0 nuclei)

NMR properties:
Chemical shifts                         ...  NO (   0 nuclei)
Spin-rotation constants                 ...  NO (   0 nuclei)
Spin-spin couplings                     ...  NO (   0 nuclei,    0 pairs)

Choice of magnetic origin               ... GIAO
Position of magnetic origin             ...     0.000000     0.000000     0.000000

Properties with geometric perturbations:
SCF Hessian                             ...  NO
IR spectrum                             ...  NO
VCD spectrum                            ...  NO
X-ray spectroscopy properties:
SCF XES/XAS/RIXS spectra                ...  NO


-------------
DIPOLE MOMENT
-------------

Method             : SCF
Type of density    : Electron Density
Multiplicity       :   1
Irrep              :   0
Energy             : -1324.9235167732283571 Eh
Relativity type    : 
Basis              : AO
                                X                 Y                 Z
Electronic contribution:      0.574360117       7.614008418      -3.583221540
Nuclear contribution   :     -1.796545863      -8.452598404       3.668481817
                        -----------------------------------------
Total Dipole Moment    :     -1.222185745      -0.838589986       0.085260276
                        -----------------------------------------
Magnitude (a.u.)       :      1.484668473
Magnitude (Debye)      :      3.773727355



--------------------
Rotational spectrum 
--------------------
 
Rotational constants in cm-1:             0.029611             0.003563             0.003220 
Rotational constants in MHz :           887.728109           106.811586            96.525885 

Dipole components along the rotational axes: 
x,y,z [a.u.] :     1.255793    -0.790193     0.053090 
x,y,z [Debye]:     3.191972    -2.008512     0.134944 

 

Dipole moment calculation done in   0.0 sec 

Maximum memory used throughout the entire PROP-calculation: 21.6 MB

--------------------------------
SUGGESTED CITATIONS FOR THIS RUN
--------------------------------

Below you find a list of papers that are relevant to this ORCA run
We neither can nor want to force you to cite these papers, but we appreciate if you do
You receive ORCA, which is the product of decades of hard work by many enthusiastic individuals, for free
The only thing we kindly ask in return is that you cite our papers,
We deeply appreciate it, if you show your appreciation for ORCA by not just citing the generic ORCA reference.

Please note that relegating all ORCA citations to the supporting information does *not* help us.
SI sections are not indexed - citations you put there will not count into any citation statistics
But we need these citations in order to attract the funding resources that allow us to do what we are doing

Therefore, if you are a happy ORCA user, please consider citing a few of the papers listed below in the main body of your paper

In addition to the list printed below, the program has created the file /home/nmrbox/aojoawo/Documents/ERDOS/inputs/CHEMBL5290167.bibtex that contains the list in bibtex format
You can import this file easily into all common literature databanks and citation aid programs


List of essential papers. We consider these as the minimum necessary citations

  1. Neese,F.
     Software update: the ORCA program system, version 5.0
     WIRES Comput. Molec. Sci., 2022 12(1)e1606
     doi.org/10.1002/wcms.1606

List of papers to cite with high priority. The work reported in these papers was absolutely
necessary for this run to complete.
Our perspective: the developers of density functionals and basis sets usually get cited in chemistry papers
Good! But without the algorithms to do something with them, the functionals or basis sets would not do anything.
Hence, in our opinion, the algorithm design and method developments papers are equally worthy of getting cited

  1. Neese,F.
     An improvement of the resolution of the identity approximation for the formation of the Coulomb matrix
     J. Comp. Chem., 2003 24(14)1740-1747
     doi.org/10.1002/jcc.10318
  2. Neese,F.; Wennmohs,F.; Hansen,A.; Becker,U.
     Efficient, approximate and parallel Hartree-Fock and hybrid DFT calculations. A 'chain-of-spheres' algorithm for the Hartree-Fock exchange
     Chem. Phys., 2009 356(1-3)98-109
     doi.org/10.1016/j.chemphys.2008.10.036
  3. Helmich-Paris,B.; de Souza,B.; Neese,F.; Izsák,R.
     An improved chain of spheres for exchange algorithm
     J. Chem. Phys., 2021 155 104109
     doi.org/doi: 10.1063/5.0058766.
  4. Neese,F.
     The SHARK Integral Generation and Digestion System
     J. Comp. Chem., 2022  1-16
     doi.org/10.1002/jcc.26942

List of suggested additional citations. These are papers that are important in the 'surrounding' of 
of this run, or papers that preceded the highly important papers. If you like your results we are grateful for a citation.

  1. Izsak,R.; Neese,F.
     An overlap fitted chain of spheres exchange method
     J. Chem. Phys., 2011 135 144105
     doi.org/10.1063/1.3646921
  2. Izsak,R.; Hansen,A.; Neese,F.
     The resolution of identity and chain of spheres approximations for the LPNO-CCSD singles Fock term
     Molec. Phys., 2012 110 2413-2417
     doi.org/10.1080/00268976.2012.687466
  3. Neese,F.
     The ORCA program system
     WIRES Comput. Molec. Sci., 2012 2(1)73-78
     doi.org/10.1002/wcms.81
  4. Izsak,R.; Neese,F.; Klopper,W.
     Robust fitting techniques in the chain of spheres approximation to the Fock exchange: The role of the complementary space
     J. Chem. Phys., 2013 139 
     doi.org/10.1063/1.4819264
  5. Neese,F.
     Software update: the ORCA program system, version 4.0
     WIRES Comput. Molec. Sci., 2018 8(1)1-6
     doi.org/10.1002/wcms.1327
  6. Neese,F.; Wennmohs,F.; Becker,U.; Riplinger,C.
     The ORCA quantum chemistry program package
     J. Chem. Phys., 2020 152 Art. No. L224108
     doi.org/10.1063/5.0004608

List of optional additional citations

  1. Neese,F.
     Approximate second-order SCF convergence for spin unrestricted wavefunctions
     Chem. Phys. Lett., 2000 325(1-3)93-98
     doi.org/10.1016/s0009-2614(00)00662-x

Timings for individual modules:

Sum of individual times          ...      180.739 sec (=   3.012 min)
Startup calculation              ...        5.907 sec (=   0.098 min)   3.3 %
SCF iterations                   ...      174.681 sec (=   2.911 min)  96.6 %
Property calculations            ...        0.151 sec (=   0.003 min)   0.1 %
                             ****ORCA TERMINATED NORMALLY****
TOTAL RUN TIME: 0 days 0 hours 3 minutes 1 seconds 401 msec
