
                                 *****************
                                 * O   R   C   A *
                                 *****************

                                            #,                                       
                                            ###                                      
                                            ####                                     
                                            #####                                    
                                            ######                                   
                                           ########,                                 
                                     ,,################,,,,,                         
                               ,,#################################,,                 
                          ,,##########################################,,             
                       ,#########################################, ''#####,          
                    ,#############################################,,   '####,        
                  ,##################################################,,,,####,       
                ,###########''''           ''''###############################       
              ,#####''   ,,,,##########,,,,          '''####'''          '####       
            ,##' ,,,,###########################,,,                        '##       
           ' ,,###''''                  '''############,,,                           
         ,,##''                                '''############,,,,        ,,,,,,###''
      ,#''                                            '''#######################'''  
     '                                                          ''''####''''         
             ,#######,   #######,   ,#######,      ##                                
            ,#'     '#,  ##    ##  ,#'     '#,    #''#        ,####,   ,####,        
            ##       ##  ##   ,#'  ##            #'  '#       #'       #'  '#        
            ##       ##  #######   ##           ,######,      #####,   #    #        
            '#,     ,#'  ##    ##  '#,     ,#' ,#      #,     #,   #   #,  ,#        
             '#######'   ##     ##  '#######'  #'      '#     '####' # '####'        



                #########################################################
                #                        -***-                          #
                #          Department of theory and spectroscopy        #
                #                                                       #
                #                      Frank Neese                      #
                #                                                       #
                #     Directorship, Architecture, Infrastructure        #
                #                    SHARK, DRIVERS                     #
                #        Core code/Algorithms in most modules           #
                #                                                       #
                #        Max Planck Institute fuer Kohlenforschung      #
                #                Kaiser Wilhelm Platz 1                 #
                #                 D-45470 Muelheim/Ruhr                 #
                #                      Germany                          #
                #                                                       #
                #                  All rights reserved                  #
                #                        -***-                          #
                #########################################################


                         Program Version 6.0.0  -   RELEASE  -


 With contributions from (in alphabetic order):
   Daniel Aravena         : Magnetic Suceptibility
   Michael Atanasov       : Ab Initio Ligand Field Theory (pilot matlab implementation)
   Alexander A. Auer      : GIAO ZORA, VPT2 properties, NMR spectrum
   Ute Becker             : All parallelization in ORCA, NUMFREQ, NUMCALC
   Giovanni Bistoni       : ED, misc. LED, open-shell LED, HFLD
   Martin Brehm           : Molecular dynamics
   Dmytro Bykov           : pre 5.0 version of the SCF Hessian
   Marcos Casanova-Páez   : Triplet and SCS-CIS(D). UHF-(DLPNO)-IP/EA/STEOM-CCSD. UHF-CVS-IP/STEOM-CCSD
   Vijay G. Chilkuri      : MRCI spin determinant printing, contributions to CSF-ICE
   Pauline Colinet        : FMM embedding
   Dipayan Datta          : RHF DLPNO-CCSD density
   Achintya Kumar Dutta   : EOM-CC, STEOM-CC
   Nicolas Foglia         : Exact transition moments, OPA infrastructure, MCD improvements
   Dmitry Ganyushin       : Spin-Orbit,Spin-Spin,Magnetic field MRCI
   Miquel Garcia          : C-PCM and meta-GGA Hessian, CCSD/C-PCM, Gaussian charge scheme
   Tiago L. C. Gouveia    : GS-ROHF, GS-ROCIS
   Yang Guo               : DLPNO-NEVPT2, F12-NEVPT2, CIM, IAO-localization
   Andreas Hansen         : Spin unrestricted coupled pair/coupled cluster methods
   Ingolf Harden          : AUTO-CI MPn and infrastructure 
   Benjamin Helmich-Paris : MC-RPA, TRAH-(SCF,CASSCF), AVAS, COSX integrals, SCF dyn. polar.
   Lee Huntington         : MR-EOM, pCC
   Robert Izsak           : Overlap fitted RIJCOSX, COSX-SCS-MP3, EOM
   Riya Kayal             : Wick's Theorem for AUTO-CI, AUTO-CI UHF-CCSDT
   Emily Kempfer          : AUTO-CI, RHF CISDT and CCSDT
   Christian Kollmar      : KDIIS, OOCD, Brueckner-CCSD(T), CCSD density, CASPT2, CASPT2-K, improved NEVPT2
   Axel Koslowski         : Symmetry handling
   Simone Kossmann        : Meta GGA functionals, TD-DFT gradient, OOMP2, (MP2 Hessian; deprecated post 5.0)
   Lucas Lang             : DCDCAS
   Marvin Lechner         : AUTO-CI (C++ implementation), FIC-MRCC
   Spencer Leger          : CASSCF response
   Dagmar Lenk            : GEPOL surface, SMD, ORCA-2-JSON
   Dimitrios Liakos       : Extrapolation schemes; Compound Job, initial MDCI parallelization
   Dimitrios Manganas     : Further ROCIS development; embedding schemes. LFT, Crystal Embedding
   Dimitrios Pantazis     : SARC Basis sets
   Anastasios Papadopoulos: AUTO-CI, single reference methods and gradients
   Taras Petrenko         : pre 6.0 DFT Hessian and TD-DFT gradient, (ASA, deprecated), ECA, 1-Electron XAS/XES, NRVS
   Peter Pinski           : DLPNO-MP2, DLPNO-MP2 Gradient
   Christoph Reimann      : Effective Core Potentials
   Marius Retegan         : Local ZFS, SOC
   Christoph Riplinger    : Optimizer, TS searches, QM/MM, DLPNO-CCSD(T), (RO)-DLPNO pert. Triples
   Michael Roemelt        : Original ROCIS implementation
   Masaaki Saitow         : Open-shell DLPNO-CCSD energy and density
   Barbara Sandhoefer     : DKH picture change effects
   Kantharuban Sivalingam : CASSCF convergence/infrastructure, NEVPT2 and variants, FIC-MRCI
   Bernardo de Souza      : ESD, SOC TD-DFT
   Georgi Stoychev        : AutoAux, RI-MP2 NMR, DLPNO-MP2 response, X2C
   Van Anh Tran           : RI-MP2 g-tensors
   Willem Van den Heuvel  : Paramagnetic NMR
   Zikuan Wang            : NOTCH, Electric field optimization 
   Frank Wennmohs         : Technical directorship and infrastructure
   Hang Xu                : AUTO-CI-Response properties 


 We gratefully acknowledge several colleagues who have allowed us to
 interface, adapt or use parts of their codes:
   Stefan Grimme, W. Hujo, H. Kruse, P. Pracht,  : VdW corrections, initial TS optimization,
                  C. Bannwarth, S. Ehlert,         DFT functionals, gCP, sTDA/sTD-DF
                  L. Wittmann, M. Mueller
   Ed Valeev, F. Pavosevic, A. Kumar             : LibInt (2-el integral package), F12 methods
   Garnet Chan, S. Sharma, J. Yang, R. Olivares  : DMRG
   Ulf Ekstrom                                   : XCFun DFT Library
   Mihaly Kallay                                 : mrcc  (arbitrary order and MRCC methods)
   Frank Weinhold                                : gennbo (NPA and NBO analysis)
   Simon Mueller                                 : openCOSMO-RS
   Christopher J. Cramer and Donald G. Truhlar   : smd solvation model
   Lars Goerigk                                  : TD-DFT with DH, B97 family of functionals
   V. Asgeirsson, H. Jonsson                     : NEB implementation
   FAccTs GmbH                                   : IRC, NEB, NEB-TS, DLPNO-Multilevel, CI-OPT
                                                   MM, QMMM, 2- and 3-layer-ONIOM, Crystal-QMMM,
                                                   LR-CPCM, SF, NACMEs, symmetry and pop. for TD-DFT,
                                                   nearIR, NL-DFT gradient (VV10), updates on ESD,
                                                   ML-optimized integration grids, MBIS, APM,
                                                   GOAT, DOCKER, SOLVATOR, interface openCOSMO-RS
   S Lehtola, MJT Oliveira, MAL Marques          : LibXC Library
   Liviu Ungur et al                             : ANISO software


 Your calculation uses the libint2 library for the computation of 2-el integrals
 For citations please refer to: http://libint.valeyev.net

 Your ORCA version has been built with support for libXC version: 6.2.2
 For citations please refer to: https://libxc.gitlab.io

 This ORCA versions uses:
   CBLAS   interface :  Fast vector & matrix operations
   LAPACKE interface :  Fast linear algebra routines
   SCALAPACK package :  Parallel linear algebra routines
   Shared memory     :  Shared parallel matrices
   BLAS/LAPACK       :  OpenBLAS 0.3.27  USE64BITINT DYNAMIC_ARCH NO_AFFINITY SkylakeX SINGLE_THREADED
        Core in use  :  SkylakeX
   Copyright (c) 2011-2014, The OpenBLAS Project


Warning: RI is on but no J-basis has been assigned. Assigning Def2/J (nothing to worry about!)
================================================================================

----- Orbital basis set information -----
Your calculation utilizes the basis: 6-31G*
   H-He, Li-Ne : W. J. Hehre, R. Ditchfield and J.A. Pople, J. Chem. Phys. 56, 2257 (1972).
                 Note: He and Ne are unpublished basis sets taken from the Gaussian program.
                 Note: Li and B from J. D. Dill and J. A. Pople, J. Chem. Phys. 62, 2921 (1975).
   Na - Ar     : M. M. Francl, W. J. Pietro, W. J. Hehre, J. S. Binkley, M. S. Gordon, 
                 D. J. DeFrees and J. A. Pople, J. Chem. Phys. 77, 3654 (1982).
   K - Zn      : V. A. Rassolov, J. A. Pople, M. A. Ratner, and T. L. Windus, J. Chem. Phys. 109, 1223 (1998).

----- AuxJ basis set information -----
Your calculation utilizes the auxiliary basis: def2/J
   F. Weigend, Phys. Chem. Chem. Phys. 8, 1057 (2006).

================================================================================
                                        WARNINGS
                       Please study these warnings very carefully!
================================================================================


================================================================================
                                       INPUT FILE
================================================================================
NAME = /home/nmrbox/aojoawo/Documents/ERDOS/inputs/CHEMBL104.inp
|  1> ! B3LYP 6-31G* SP
|  2> 
|  3> * xyz 0 1
|  4> Cl -0.4912 1.1436 2.7648
|  5> C -0.8049 1.9405 1.2248
|  6> C -1.4022 3.2052 1.3073
|  7> C -1.7849 3.8886 0.1572
|  8> C -1.6024 3.3018 -1.0893
|  9> C -1.0047 2.0457 -1.1926
| 10> C -0.5249 1.3565 -0.0501
| 11> C 0.0961 -0.0598 -0.2175
| 12> C 1.3046 -0.3088 0.7085
| 13> C 2.1624 0.7516 1.0843
| 14> C 3.3263 0.5077 1.8184
| 15> C 3.6914 -0.7993 2.1392
| 16> C 2.9087 -1.8666 1.7006
| 17> C 1.7440 -1.6274 0.9665
| 18> C -1.0884 -1.0276 0.0154
| 19> C -1.3240 -1.6601 1.2589
| 20> C -2.4495 -2.4655 1.4537
| 21> C -3.3798 -2.6318 0.4288
| 22> C -3.1942 -1.9813 -0.7898
| 23> C -2.0710 -1.1752 -0.9908
| 24> N 0.6548 -0.2448 -1.5834
| 25> C 1.4911 0.5986 -2.2265
| 26> C 1.9950 -0.0387 -3.3341
| 27> N 1.5306 -1.3007 -3.3747
| 28> C 0.7379 -1.3998 -2.2880
| 29> H -1.5923 3.6548 2.2740
| 30> H -2.2528 4.8615 0.2348
| 31> H -1.9393 3.8150 -1.9809
| 32> H -0.9379 1.6125 -2.1804
| 33> H 1.9399 1.7733 0.8076
| 34> H 3.9562 1.3337 2.1226
| 35> H 4.5967 -0.9865 2.7020
| 36> H 3.2149 -2.8830 1.9119
| 37> H 1.1914 -2.4780 0.5895
| 38> H -0.6458 -1.5401 2.0901
| 39> H -2.6053 -2.9540 2.4070
| 40> H -4.2522 -3.2532 0.5842
| 41> H -3.9271 -2.0931 -1.5784
| 42> H -1.9704 -0.6626 -1.9384
| 43> H 1.7494 1.5955 -1.8932
| 44> H 2.6911 0.3785 -4.0491
| 45> H 0.2627 -2.3267 -1.9951
| 46> *
| 47> 
| 48>                          ****END OF INPUT****
================================================================================

                       ****************************
                       * Single Point Calculation *
                       ****************************

---------------------------------
CARTESIAN COORDINATES (ANGSTROEM)
---------------------------------
  Cl    -0.491200    1.143600    2.764800
  C     -0.804900    1.940500    1.224800
  C     -1.402200    3.205200    1.307300
  C     -1.784900    3.888600    0.157200
  C     -1.602400    3.301800   -1.089300
  C     -1.004700    2.045700   -1.192600
  C     -0.524900    1.356500   -0.050100
  C      0.096100   -0.059800   -0.217500
  C      1.304600   -0.308800    0.708500
  C      2.162400    0.751600    1.084300
  C      3.326300    0.507700    1.818400
  C      3.691400   -0.799300    2.139200
  C      2.908700   -1.866600    1.700600
  C      1.744000   -1.627400    0.966500
  C     -1.088400   -1.027600    0.015400
  C     -1.324000   -1.660100    1.258900
  C     -2.449500   -2.465500    1.453700
  C     -3.379800   -2.631800    0.428800
  C     -3.194200   -1.981300   -0.789800
  C     -2.071000   -1.175200   -0.990800
  N      0.654800   -0.244800   -1.583400
  C      1.491100    0.598600   -2.226500
  C      1.995000   -0.038700   -3.334100
  N      1.530600   -1.300700   -3.374700
  C      0.737900   -1.399800   -2.288000
  H     -1.592300    3.654800    2.274000
  H     -2.252800    4.861500    0.234800
  H     -1.939300    3.815000   -1.980900
  H     -0.937900    1.612500   -2.180400
  H      1.939900    1.773300    0.807600
  H      3.956200    1.333700    2.122600
  H      4.596700   -0.986500    2.702000
  H      3.214900   -2.883000    1.911900
  H      1.191400   -2.478000    0.589500
  H     -0.645800   -1.540100    2.090100
  H     -2.605300   -2.954000    2.407000
  H     -4.252200   -3.253200    0.584200
  H     -3.927100   -2.093100   -1.578400
  H     -1.970400   -0.662600   -1.938400
  H      1.749400    1.595500   -1.893200
  H      2.691100    0.378500   -4.049100
  H      0.262700   -2.326700   -1.995100

----------------------------
CARTESIAN COORDINATES (A.U.)
----------------------------
  NO LB      ZA    FRAG     MASS         X           Y           Z
   0 Cl   17.0000    0    35.453   -0.928233    2.161091    5.224715
   1 C     6.0000    0    12.011   -1.521041    3.667014    2.314537
   2 C     6.0000    0    12.011   -2.649774    6.056950    2.470439
   3 C     6.0000    0    12.011   -3.372972    7.348389    0.297065
   4 C     6.0000    0    12.011   -3.028097    6.239498   -2.058479
   5 C     6.0000    0    12.011   -1.898608    3.865813   -2.253687
   6 C     6.0000    0    12.011   -0.991917    2.563414   -0.094675
   7 C     6.0000    0    12.011    0.181603   -0.113006   -0.411015
   8 C     6.0000    0    12.011    2.465337   -0.583547    1.338871
   9 C     6.0000    0    12.011    4.086344    1.420318    2.049030
  10 C     6.0000    0    12.011    6.285796    0.959414    3.436278
  11 C     6.0000    0    12.011    6.975735   -1.510458    4.042502
  12 C     6.0000    0    12.011    5.496646   -3.527363    3.213668
  13 C     6.0000    0    12.011    3.295682   -3.075340    1.826420
  14 C     6.0000    0    12.011   -2.056778   -1.941883    0.029102
  15 C     6.0000    0    12.011   -2.501997   -3.137134    2.378976
  16 C     6.0000    0    12.011   -4.628884   -4.659120    2.747095
  17 C     6.0000    0    12.011   -6.386896   -4.973381    0.810315
  18 C     6.0000    0    12.011   -6.036163   -3.744114   -1.492506
  19 C     6.0000    0    12.011   -3.913623   -2.220806   -1.872341
  20 N     7.0000    0    14.007    1.237393   -0.462605   -2.992192
  21 C     6.0000    0    12.011    2.817771    1.131190   -4.207475
  22 C     6.0000    0    12.011    3.770004   -0.073132   -6.300536
  23 N     7.0000    0    14.007    2.892415   -2.457967   -6.377259
  24 C     6.0000    0    12.011    1.394429   -2.645239   -4.323693
  25 H     1.0000    0     1.008   -3.009011    6.906571    4.297237
  26 H     1.0000    0     1.008   -4.257175    9.186904    0.443708
  27 H     1.0000    0     1.008   -3.664746    7.209305   -3.743358
  28 H     1.0000    0     1.008   -1.772374    3.047183   -4.120359
  29 H     1.0000    0     1.008    3.665880    3.351051    1.526143
  30 H     1.0000    0     1.008    7.476135    2.520328    4.011133
  31 H     1.0000    0     1.008    8.686504   -1.864215    5.106040
  32 H     1.0000    0     1.008    6.075281   -5.448080    3.612967
  33 H     1.0000    0     1.008    2.251420   -4.682741    1.113994
  34 H     1.0000    0     1.008   -1.220385   -2.910367    3.949717
  35 H     1.0000    0     1.008   -4.923303   -5.582251    4.548571
  36 H     1.0000    0     1.008   -8.035493   -6.147657    1.103978
  37 H     1.0000    0     1.008   -7.421144   -3.955386   -2.982744
  38 H     1.0000    0     1.008   -3.723516   -1.252133   -3.663045
  39 H     1.0000    0     1.008    3.305887    3.015058   -3.577630
  40 H     1.0000    0     1.008    5.085442    0.715261   -7.651690
  41 H     1.0000    0     1.008    0.496431   -4.396826   -3.770193

--------------------------------
INTERNAL COORDINATES (ANGSTROEM)
--------------------------------
 Cl     0   0   0     0.000000000000     0.00000000     0.00000000
 C      1   0   0     1.762117277595     0.00000000     0.00000000
 C      2   1   0     1.401085161580   115.63593297     0.00000000
 C      3   2   1     1.391482971509   120.79068615   184.64280678
 C      4   3   2     1.389749164418   119.85749420     1.45906116
 C      5   4   3     1.394884722836   120.19312494   358.29978462
 C      6   5   4     1.417924867544   121.53537045   357.65469221
 C      7   6   5     1.555496528444   119.40265767   178.24371666
 C      8   7   6     1.542708413797   113.27252771   142.29772001
 C      9   8   7     1.414741898722   120.89330431   328.45936401
 C     10   9   8     1.397516808486   120.91016931   186.06336870
 C     11  10   9     1.394438829781   120.16447390     2.97055622
 C     12  11  10     1.394316513565   119.87587364     1.43080529
 C     13  12  11     1.397370938584   120.13932178   358.56082974
 C      8   7   6     1.547229620968   104.34123144   266.96659360
 C     15   8   7     1.414869555825   122.64271531   262.08327889
 C     16  15   8     1.397628867046   120.94419498   176.15631516
 C     17  16  15     1.394106807243   120.24199415   358.40531392
 C     18  17  16     1.393765966725   119.88334801   359.32201396
 C     19  18  17     1.397059930712   120.14230603     0.69543545
 N      8   7   6     1.487297381158   111.22673911    25.95670821
 C     21   8   7     1.350666080125   126.31277997    49.82911216
 C     22  21   8     1.373624497452   108.74481769   167.76606978
 N     23  22  21     1.345347434680   109.44587720   357.50652692
 C     24  23  22     1.348744227050   104.32890685     0.54948892
 H      3   2   1     1.082952935265   120.14198445     3.27441578
 H      4   3   2     1.082352336349   120.07294831   179.49657982
 H      5   4   3     1.082509311738   119.84800846   177.35012697
 H      6   5   4     1.080681877335   117.07473038   176.65659074
 H     10   9   8     1.081637661142   121.01902195     5.72426841
 H     11  10   9     1.082399025314   119.94127939   181.79608484
 H     12  11  10     1.082291906096   120.05028325   179.58357293
 H     13  12  11     1.082347028453   119.90787629   177.30677708
 H     14  13  12     1.082134982338   118.30067867   176.33921272
 H     16  15   8     1.079466849885   121.49554415   356.18441388
 H     17  16  15     1.082444816145   119.91544086   179.03920805
 H     18  17  16     1.082297962670   120.05454435   180.22983275
 H     19  18  17     1.082373138063   119.91006648   181.31406242
 H     20  19  18     1.082046616371   118.29986370   181.65161176
 H     22  21   8     1.082412763229   125.18681377   350.20293970
 H     23  22  21     1.081589594070   126.16920963   179.97622606
 H     25  24  23     1.082011580345   122.62714638   184.42218582

---------------------------
INTERNAL COORDINATES (A.U.)
---------------------------
 Cl     0   0   0     0.000000000000     0.00000000     0.00000000
 C      1   0   0     3.329919070506     0.00000000     0.00000000
 C      2   1   0     2.647667245687   115.63593297     0.00000000
 C      3   2   1     2.629521736167   120.79068615   184.64280678
 C      4   3   2     2.626245315596   119.85749420     1.45906116
 C      5   4   3     2.635950114550   120.19312494   358.29978462
 C      6   5   4     2.679489678135   121.53537045   357.65469221
 C      7   6   5     2.939462441024   119.40265767   178.24371666
 C      8   7   6     2.915296406572   113.27252771   142.29772001
 C      9   8   7     2.673474738769   120.89330431   328.45936401
 C     10   9   8     2.640924035590   120.91016931   186.06336870
 C     11  10   9     2.635107498791   120.16447390     2.97055622
 C     12  11  10     2.634876354642   119.87587364     1.43080529
 C     13  12  11     2.640648381425   120.13932178   358.56082974
 C      8   7   6     2.923840249920   104.34123144   266.96659360
 C     15   8   7     2.673715975732   122.64271531   262.08327889
 C     16  15   8     2.641135795579   120.94419498   176.15631516
 C     17  16  15     2.634480067124   120.24199415   358.40531392
 C     18  17  16     2.633835971890   119.88334801   359.32201396
 C     19  18  17     2.640060661720   120.14230603     0.69543545
 N      8   7   6     2.810584730087   111.22673911    25.95670821
 C     21   8   7     2.552388989813   126.31277997    49.82911216
 C     22  21   8     2.595774111029   108.74481769   167.76606978
 N     23  22  21     2.542338206519   109.44587720   357.50652692
 C     24  23  22     2.548757213831   104.32890685     0.54948892
 H      3   2   1     2.046484463578   120.14198445     3.27441578
 H      4   3   2     2.045349496109   120.07294831   179.49657982
 H      5   4   3     2.045646136605   119.84800846   177.35012697
 H      6   5   4     2.042192786055   117.07473038   176.65659074
 H     10   9   8     2.043998955693   121.01902195     5.72426841
 H     11  10   9     2.045437725466   119.94127939   181.79608484
 H     12  11  10     2.045235299480   120.05028325   179.58357293
 H     13  12  11     2.045339465639   119.90787629   177.30677708
 H     14  13  12     2.044938756555   118.30067867   176.33921272
 H     16  15   8     2.039896716929   121.49554415   356.18441388
 H     17  16  15     2.045524257598   119.91544086   179.03920805
 H     18  17  16     2.045246744748   120.05454435   180.22983275
 H     19  18  17     2.045388805652   119.91006648   181.31406242
 H     20  19  18     2.044771769077   118.29986370   181.65161176
 H     22  21   8     2.045463686363   125.18681377   350.20293970
 H     23  22  21     2.043908122091   126.16920963   179.97622606
 H     25  24  23     2.044705560583   122.62714638   184.42218582

---------------------
BASIS SET INFORMATION
---------------------
There are 4 groups of distinct atoms

 Group   1 Type Cl  : 16s10p1d contracted to 4s3p1d pattern {6631/631/1}
 Group   2 Type C   : 10s4p1d contracted to 3s2p1d pattern {631/31/1}
 Group   3 Type N   : 10s4p1d contracted to 3s2p1d pattern {631/31/1}
 Group   4 Type H   : 4s contracted to 2s pattern {31}

Atom   0Cl   basis set group =>   1
Atom   1C    basis set group =>   2
Atom   2C    basis set group =>   2
Atom   3C    basis set group =>   2
Atom   4C    basis set group =>   2
Atom   5C    basis set group =>   2
Atom   6C    basis set group =>   2
Atom   7C    basis set group =>   2
Atom   8C    basis set group =>   2
Atom   9C    basis set group =>   2
Atom  10C    basis set group =>   2
Atom  11C    basis set group =>   2
Atom  12C    basis set group =>   2
Atom  13C    basis set group =>   2
Atom  14C    basis set group =>   2
Atom  15C    basis set group =>   2
Atom  16C    basis set group =>   2
Atom  17C    basis set group =>   2
Atom  18C    basis set group =>   2
Atom  19C    basis set group =>   2
Atom  20N    basis set group =>   3
Atom  21C    basis set group =>   2
Atom  22C    basis set group =>   2
Atom  23N    basis set group =>   3
Atom  24C    basis set group =>   2
Atom  25H    basis set group =>   4
Atom  26H    basis set group =>   4
Atom  27H    basis set group =>   4
Atom  28H    basis set group =>   4
Atom  29H    basis set group =>   4
Atom  30H    basis set group =>   4
Atom  31H    basis set group =>   4
Atom  32H    basis set group =>   4
Atom  33H    basis set group =>   4
Atom  34H    basis set group =>   4
Atom  35H    basis set group =>   4
Atom  36H    basis set group =>   4
Atom  37H    basis set group =>   4
Atom  38H    basis set group =>   4
Atom  39H    basis set group =>   4
Atom  40H    basis set group =>   4
Atom  41H    basis set group =>   4
---------------------------------
AUXILIARY/J BASIS SET INFORMATION
---------------------------------
There are 4 groups of distinct atoms

 Group   1 Type Cl  : 14s5p5d2f1g contracted to 8s4p3d1f1g pattern {71111111/2111/311/2/1}
 Group   2 Type C   : 12s5p4d2f1g contracted to 6s4p3d1f1g pattern {711111/2111/211/2/1}
 Group   3 Type N   : 12s5p4d2f1g contracted to 6s4p3d1f1g pattern {711111/2111/211/2/1}
 Group   4 Type H   : 5s2p1d contracted to 3s1p1d pattern {311/2/1}

Atom   0Cl   basis set group =>   1
Atom   1C    basis set group =>   2
Atom   2C    basis set group =>   2
Atom   3C    basis set group =>   2
Atom   4C    basis set group =>   2
Atom   5C    basis set group =>   2
Atom   6C    basis set group =>   2
Atom   7C    basis set group =>   2
Atom   8C    basis set group =>   2
Atom   9C    basis set group =>   2
Atom  10C    basis set group =>   2
Atom  11C    basis set group =>   2
Atom  12C    basis set group =>   2
Atom  13C    basis set group =>   2
Atom  14C    basis set group =>   2
Atom  15C    basis set group =>   2
Atom  16C    basis set group =>   2
Atom  17C    basis set group =>   2
Atom  18C    basis set group =>   2
Atom  19C    basis set group =>   2
Atom  20N    basis set group =>   3
Atom  21C    basis set group =>   2
Atom  22C    basis set group =>   2
Atom  23N    basis set group =>   3
Atom  24C    basis set group =>   2
Atom  25H    basis set group =>   4
Atom  26H    basis set group =>   4
Atom  27H    basis set group =>   4
Atom  28H    basis set group =>   4
Atom  29H    basis set group =>   4
Atom  30H    basis set group =>   4
Atom  31H    basis set group =>   4
Atom  32H    basis set group =>   4
Atom  33H    basis set group =>   4
Atom  34H    basis set group =>   4
Atom  35H    basis set group =>   4
Atom  36H    basis set group =>   4
Atom  37H    basis set group =>   4
Atom  38H    basis set group =>   4
Atom  39H    basis set group =>   4
Atom  40H    basis set group =>   4
Atom  41H    basis set group =>   4
------------------------------------------------------------------------------
                             ORCA STARTUP CALCULATIONS
                           -- RI-GTO INTEGRALS CHOSEN --
------------------------------------------------------------------------------
------------------------------------------------------------------------------
                   ___                                                        
                  /   \      - P O W E R E D   B Y -                         
                 /     \                                                     
                 |  |  |   _    _      __       _____    __    __             
                 |  |  |  | |  | |    /  \     |  _  \  |  |  /  |          
                  \  \/   | |  | |   /    \    | | | |  |  | /  /          
                 / \  \   | |__| |  /  /\  \   | |_| |  |  |/  /          
                |  |  |   |  __  | /  /__\  \  |    /   |      \           
                |  |  |   | |  | | |   __   |  |    \   |  |\   \          
                \     /   | |  | | |  |  |  |  | |\  \  |  | \   \       
                 \___/    |_|  |_| |__|  |__|  |_| \__\ |__|  \__/        
                                                                              
                      - O R C A' S   B I G   F R I E N D -                    
                                      &                                       
                       - I N T E G R A L  F E E D E R -                       
                                                                              
 v1 FN, 2020, v2 2021, v3 2022-2024                                           
------------------------------------------------------------------------------


----------------------
SHARK INTEGRAL PACKAGE
----------------------

Number of atoms                             ...     42
Number of basis functions                   ...    388
Number of shells                            ...    186
Maximum angular momentum                    ...      2
Integral batch strategy                     ... SHARK/LIBINT Hybrid
RI-J (if used) integral strategy            ... SPLIT-RIJ (Revised 2003 algorithm where possible)
Printlevel                                  ...      1
Contraction scheme used                     ... SEGMENTED contraction
Prescreening option                         ... SCHWARTZ
   Thresh                                   ... 1.000e-10
   Tcut                                     ... 1.000e-11
   Tpresel                                  ... 1.000e-11 
Coulomb Range Separation                    ... NOT USED
Exchange Range Separation                   ... NOT USED
Multipole approximations                    ... NOT USED
Finite Nucleus Model                        ... NOT USED
CABS basis                                  ... NOT available
Auxiliary Coulomb fitting basis             ... AVAILABLE
   # of basis functions in Aux-J            ...   1414
   # of shells in Aux-J                     ...    462
   Maximum angular momentum in Aux-J        ...      4
Auxiliary J/K fitting basis                 ... NOT available
Auxiliary Correlation fitting basis         ... NOT available
Auxiliary 'external' fitting basis          ... NOT available

Checking pre-screening integrals            ... done (  0.0 sec) Dimension = 186
Check shell pair data                       ... done (  0.0 sec)
Shell pair information
Shell pair cut-off parameter TPreSel        ...   1.0e-11
Total number of shell pairs                 ...     17391
Shell pairs after pre-screening             ...     13392
Total number of primitive shell pairs       ...    104346
Primitive shell pairs kept                  ...     42322
          la=0 lb=0:   4355 shell pairs
          la=1 lb=0:   4717 shell pairs
          la=1 lb=1:   1240 shell pairs
          la=2 lb=0:   1823 shell pairs
          la=2 lb=1:   1054 shell pairs
          la=2 lb=2:    203 shell pairs

Calculating one electron integrals          ... done (  0.1 sec)
Calculating RI/J V-Matrix + Cholesky decomp.... done (  0.2 sec)
Calculating Nuclear repulsion               ... done (  0.0 sec) ENN=   2300.933524873325 Eh

Diagonalization of the overlap matrix:
Smallest eigenvalue                        ... 4.407e-04
Time for diagonalization                   ...    0.019 sec
Threshold for overlap eigenvalues          ... 1.000e-07
Number of eigenvalues below threshold      ... 0
Time for construction of square roots      ...    0.029 sec
Total time needed                          ...    0.061 sec

-------------------
DFT GRID GENERATION
-------------------

General Integration Accuracy     IntAcc      ... 4.388
Radial Grid Type                 RadialGrid  ... OptM3 with GC (2021)
Angular Grid (max. ang.)         AngularGrid ... 4 (Lebedev-302)
Angular grid pruning method      GridPruning ... 4 (adaptive)
Weight generation scheme         WeightScheme... mBecke (2022)
Basis function cutoff            BFCut       ... 1.0000e-10
Integration weight cutoff        WCut        ... 1.0000e-14
Partially contracted basis set               ... off
Rotationally invariant grid construction     ... off
Angular grids for H and He will be reduced by one unit

Total number of grid points                  ...   203738
Total number of batches                      ...     3210
Average number of points per batch           ...       63
Average number of grid points per atom       ...     4851

--------------------
COSX GRID GENERATION
--------------------

GRIDX 1
-------
General Integration Accuracy     IntAcc      ... 3.816
Radial Grid Type                 RadialGrid  ... OptM3 with GC (2021)
Angular Grid (max. ang.)         AngularGrid ... 1 (Lebedev-50)
Angular grid pruning method      GridPruning ... 4 (adaptive)
Weight generation scheme         WeightScheme... mBecke (2022)
Basis function cutoff            BFCut       ... 1.0000e-10
Integration weight cutoff        WCut        ... 1.0000e-14
Partially contracted basis set               ... on
Rotationally invariant grid construction     ... off
Angular grids for H and He will be reduced by one unit

Total number of grid points                  ...    26875
Total number of batches                      ...      229
Average number of points per batch           ...      117
Average number of grid points per atom       ...      640
UseSFitting                                  ... on

GRIDX 2
-------
General Integration Accuracy     IntAcc      ... 4.020
Radial Grid Type                 RadialGrid  ... OptM3 with GC (2021)
Angular Grid (max. ang.)         AngularGrid ... 2 (Lebedev-110)
Angular grid pruning method      GridPruning ... 4 (adaptive)
Weight generation scheme         WeightScheme... mBecke (2022)
Basis function cutoff            BFCut       ... 1.0000e-10
Integration weight cutoff        WCut        ... 1.0000e-14
Partially contracted basis set               ... on
Rotationally invariant grid construction     ... off
Angular grids for H and He will be reduced by one unit

Total number of grid points                  ...    55925
Total number of batches                      ...      460
Average number of points per batch           ...      121
Average number of grid points per atom       ...     1332
UseSFitting                                  ... on

GRIDX 3
-------
General Integration Accuracy     IntAcc      ... 4.338
Radial Grid Type                 RadialGrid  ... OptM3 with GC (2021)
Angular Grid (max. ang.)         AngularGrid ... 3 (Lebedev-194)
Angular grid pruning method      GridPruning ... 4 (adaptive)
Weight generation scheme         WeightScheme... mBecke (2022)
Basis function cutoff            BFCut       ... 1.0000e-10
Integration weight cutoff        WCut        ... 1.0000e-14
Partially contracted basis set               ... on
Rotationally invariant grid construction     ... off
Angular grids for H and He will be reduced by one unit

Total number of grid points                  ...   122683
Total number of batches                      ...      978
Average number of points per batch           ...      125
Average number of grid points per atom       ...     2921
UseSFitting                                  ... on
Initializing property integral containers    ... done (  0.0 sec)

SHARK setup successfully completed in   7.3 seconds

Maximum memory used throughout the entire STARTUP-calculation: 91.9 MB
-------------------------------------------------------------------------------
                                 ORCA GUESS
                   Start orbitals & Density for SCF / CASSCF
-------------------------------------------------------------------------------

------------
SCF SETTINGS
------------
Hamiltonian:
 Density Functional     Method          .... DFT(GTOs)
 Exchange Functional    Exchange        .... B88
   X-Alpha parameter    XAlpha          ....  0.666667
   Becke's b parameter  XBeta           ....  0.004200
 Correlation Functional Correlation     .... LYP
 LDA part of GGA corr.  LDAOpt          .... VWN-5
 Gradients option       PostSCFGGA      .... off
 Hybrid DFT is turned on
   Fraction HF Exchange ScalHFX         ....  0.200000
   Scaling of DF-GGA-X  ScalDFX         ....  0.720000
   Scaling of DF-GGA-C  ScalDFC         ....  0.810000
   Scaling of DF-LDA-C  ScalLDAC        ....  1.000000
   Perturbative correction              ....  0.000000
   NL short-range parameter             ....  4.800000
 RI-approximation to the Coulomb term is turned on
   Number of AuxJ basis functions       .... 1414
   RIJ-COSX (HFX calculated with COS-X)).... on


General Settings:
 Integral files         IntName         .... /home/nmrbox/aojoawo/Documents/ERDOS/inputs/CHEMBL104
 Hartree-Fock type      HFTyp           .... RHF
 Total Charge           Charge          ....    0
 Multiplicity           Mult            ....    1
 Number of Electrons    NEL             ....  180
 Basis Dimension        Dim             ....  388
 Nuclear Repulsion      ENuc            ....   2300.9335248733 Eh

Convergence Acceleration:
 AO-DIIS                CNVDIIS         .... on
   Start iteration      DIISMaxIt       ....    12
   Startup error        DIISStart       ....  0.200000
   # of expansion vecs  DIISMaxEq       ....     5
   Bias factor          DIISBfac        ....   1.050
   Max. coefficient     DIISMaxC        ....  10.000
 MO-DIIS                CNVKDIIS        .... off
 Trust-Rad. Augm. Hess. CNVTRAH         .... auto
   Auto Start mean grad. ratio tolernc. ....  1.125000
   Auto Start start iteration           ....    50
   Auto Start num. interpolation iter.  ....    10
   Max. Number of Micro iterations      ....    24
   Max. Number of Macro iterations      .... Maxiter - #DIIS iter
   Number of Davidson start vectors     ....     2
   Converg. threshold    (grad. norm)   ....   5.000e-05
   Grad. Scal. Fac. for Micro threshold ....   0.100
   Minimum threshold for Micro iter.    ....   1.000e-02
   NR start threshold (gradient norm)   ....   1.000e-04
   Initial trust radius                 ....   0.400
   Minimum AH scaling param. (alpha)    ....   1.000
   Maximum AH scaling param. (alpha)    .... 1000.000
   Quad. conv. algorithm                .... NR
   White noise on init. David. guess    .... on
   Maximum white noise                  ....   0.010
   Pseudo random numbers                .... off
   Inactive MOs                         .... canonical
   Orbital update algorithm             .... Taylor
   Preconditioner                       .... Diag
   Full preconditioner red. dimension   ....   250
 SOSCF                  CNVSOSCF        .... on
   Start iteration      SOSCFMaxIt      ....   150
   Startup grad/error   SOSCFStart      ....  0.003300
   Hessian update       SOSCFHessUp     .... L-BFGS
 Level Shifting         CNVShift        .... on
   Level shift para.    LevelShift      ....    0.2500
   Turn off err/grad.   ShiftErr        ....    0.0010
 Zerner damping         CNVZerner       .... off
 Static damping         CNVDamp         .... on
   Fraction old density DampFac         ....    0.7000
   Max. Damping (<1)    DampMax         ....    0.9800
   Min. Damping (>=0)   DampMin         ....    0.0000
   Turn off err/grad.   DampErr         ....    0.1000

SCF Procedure:
 Maximum # iterations   MaxIter         ....   125
 SCF integral mode      SCFMode         .... Direct
   Integral package                     .... SHARK and LIBINT hybrid scheme
 Reset frequency        DirectResetFreq ....    20
 Integral Threshold     Thresh          ....  1.000e-10 Eh
 Primitive CutOff       TCut            ....  1.000e-11 Eh

Convergence Tolerance:
 Convergence Check Mode ConvCheckMode   .... Total+1el-Energy
 Convergence forced     ConvForced      .... 0
 Energy Change          TolE            ....  1.000e-06 Eh
 1-El. energy change                    ....  1.000e-03 Eh
 Orbital Gradient       TolG            ....  5.000e-05
 Orbital Rotation angle TolX            ....  5.000e-05
 DIIS Error             TolErr          ....  1.000e-06

------------------------------
INITIAL GUESS: MODEL POTENTIAL
------------------------------
Loading Hartree-Fock densities                     ... done
Calculating cut-offs                               ... done
Initializing the effective Hamiltonian             ... done
Setting up the integral package (SHARK)            ... done
Starting the Coulomb interaction                   ... done (   1.6 sec)
Making the grid                                    ... done (   0.9 sec)
Mapping shells                                     ... done
Starting the XC term evaluation                    ... done (   0.8 sec)
  promolecular density results
     # of electrons  =    179.988143615
     EX              =   -158.841353236
     EC              =     -6.223455241
     EX+EC           =   -165.064808476
Transforming the Hamiltonian                       ... done (   0.0 sec)
Diagonalizing the Hamiltonian                      ... done (   0.0 sec)
Back transforming the eigenvectors                 ... done (   0.0 sec)
Now organizing SCF variables                       ... done
                      ------------------
                      INITIAL GUESS DONE (   3.4 sec)
                      ------------------
             **** ENERGY FILE WAS UPDATED (/home/nmrbox/aojoawo/Documents/ERDOS/inputs/CHEMBL104.en.tmp) ****
Finished Guess after   3.6 sec
Maximum memory used throughout the entire GUESS-calculation: 50.2 MB

-------------------------------------------------------------------------------------------
                                      ORCA LEAN-SCF
                              memory conserving SCF solver
-------------------------------------------------------------------------------------------

----------------------------------------D-I-I-S--------------------------------------------
Iteration    Energy (Eh)           Delta-E    RMSDP     MaxDP     DIISErr   Damp  Time(sec)
-------------------------------------------------------------------------------------------
               ***  Starting incremental Fock matrix formation  ***
    1    -1417.0366469429609424     0.00e+00  2.05e-03  7.42e-02  1.91e-01  0.700  32.7
    2    -1417.2660011919424505    -2.29e-01  1.46e-03  4.58e-02  8.21e-02  0.700  15.9
                               ***Turning on AO-DIIS***
    3    -1417.3617340841224177    -9.57e-02  6.52e-04  1.39e-02  2.95e-02  0.700  14.9
    4    -1417.4188336345641801    -5.71e-02  1.10e-03  3.44e-02  1.53e-02  0.000  13.8
    5    -1417.5418375427843785    -1.23e-01  2.33e-04  7.12e-03  5.67e-03  0.000  15.0
                              *** Initializing SOSCF ***
---------------------------------------S-O-S-C-F--------------------------------------
Iteration    Energy (Eh)           Delta-E    RMSDP     MaxDP     MaxGrad    Time(sec)
--------------------------------------------------------------------------------------
    6    -1417.5427275431206908    -8.90e-04  6.95e-05  2.01e-03  1.55e-03    12.6
               *** Restarting incremental Fock matrix formation ***
    7    -1417.5427115624656835     1.60e-05  4.82e-05  1.30e-03  2.68e-04    32.5
    8    -1417.5427044200396267     7.14e-06  2.30e-05  7.65e-04  5.75e-04    18.4
    9    -1417.5427181839854711    -1.38e-05  9.84e-06  3.37e-04  6.67e-05    16.4
   10    -1417.5427177475435201     4.36e-07  4.95e-06  3.05e-04  9.73e-05    14.6
                 **** Energy Check signals convergence ****

               *****************************************************
               *                     SUCCESS                       *
               *           SCF CONVERGED AFTER  10 CYCLES          *
               *****************************************************

Recomputing exchange energy using gridx3       ... done (   55.868 sec)
Old exchange energy                            :    -32.195925906 Eh
New exchange energy                            :    -32.195929552 Eh
Exchange energy change after final integration :     -0.000003646 Eh
Total energy after final integration           :  -1417.542721393 Eh
             **** ENERGY FILE WAS UPDATED (/home/nmrbox/aojoawo/Documents/ERDOS/inputs/CHEMBL104.en.tmp) ****

----------------
TOTAL SCF ENERGY
----------------

Total Energy       :      -1417.54272139322302 Eh          -38573.29848 eV

Components:
Nuclear Repulsion  :       2300.93352487332459 Eh           62611.58432 eV
Electronic Energy  :      -3718.47624262086811 Eh         -101184.88270 eV
One Electron Energy:      -6507.30478841088006 Eh         -177072.76550 eV
Two Electron Energy:       2788.82854579001196 Eh           75887.88280 eV

Virial components:
Potential Energy   :      -2828.66176274749159 Eh          -76971.79974 eV
Kinetic Energy     :       1411.11904135426857 Eh           38398.50126 eV
Virial Ratio       :          2.00455218861818

DFT components:
N(Alpha)           :       90.000031788131 electrons
N(Beta)            :       90.000031788131 electrons
N(Total)           :      180.000063576262 electrons
E(X)               :     -127.802062867009 Eh       
E(C)               :       -7.321288441363 Eh       
E(XC)              :     -135.123351308372 Eh       

---------------
SCF CONVERGENCE
---------------

  Last Energy change         ...   -4.3644e-07  Tolerance :   1.0000e-06
  Last MAX-Density change    ...    3.0514e-04  Tolerance :   1.0000e-05
  Last RMS-Density change    ...    4.9491e-06  Tolerance :   1.0000e-06
  Last DIIS Error            ...    1.5529e-03  Tolerance :   1.0000e-06
  Last Orbital Gradient      ...    9.7326e-05  Tolerance :   5.0000e-05
  Last Orbital Rotation      ...    1.2630e-04  Tolerance :   5.0000e-05


----------------
ORBITAL ENERGIES
----------------

  NO   OCC          E(Eh)            E(eV) 
   0   2.0000    -101.530390     -2762.7824 
   1   2.0000     -14.383827      -391.4038 
   2   2.0000     -14.294105      -388.9624 
   3   2.0000     -10.268244      -279.4131 
   4   2.0000     -10.257163      -279.1116 
   5   2.0000     -10.224025      -278.2099 
   6   2.0000     -10.215280      -277.9719 
   7   2.0000     -10.205821      -277.7145 
   8   2.0000     -10.201092      -277.5858 
   9   2.0000     -10.199558      -277.5441 
  10   2.0000     -10.199369      -277.5389 
  11   2.0000     -10.196996      -277.4744 
  12   2.0000     -10.195040      -277.4212 
  13   2.0000     -10.188339      -277.2388 
  14   2.0000     -10.186897      -277.1996 
  15   2.0000     -10.186472      -277.1880 
  16   2.0000     -10.185952      -277.1739 
  17   2.0000     -10.185267      -277.1552 
  18   2.0000     -10.184819      -277.1430 
  19   2.0000     -10.184184      -277.1257 
  20   2.0000     -10.183672      -277.1118 
  21   2.0000     -10.181941      -277.0647 
  22   2.0000     -10.181632      -277.0563 
  23   2.0000     -10.181100      -277.0418 
  24   2.0000     -10.173934      -276.8468 
  25   2.0000      -9.461847      -257.4700 
  26   2.0000      -7.225000      -196.6023 
  27   2.0000      -7.215446      -196.3423 
  28   2.0000      -7.215044      -196.3313 
  29   2.0000      -1.015585       -27.6355 
  30   2.0000      -0.904300       -24.6072 
  31   2.0000      -0.881743       -23.9935 
  32   2.0000      -0.852298       -23.1922 
  33   2.0000      -0.848005       -23.0754 
  34   2.0000      -0.837886       -22.8000 
  35   2.0000      -0.795524       -21.6473 
  36   2.0000      -0.757939       -20.6246 
  37   2.0000      -0.749220       -20.3873 
  38   2.0000      -0.745028       -20.2732 
  39   2.0000      -0.739554       -20.1243 
  40   2.0000      -0.737163       -20.0592 
  41   2.0000      -0.722481       -19.6597 
  42   2.0000      -0.688332       -18.7305 
  43   2.0000      -0.623788       -16.9741 
  44   2.0000      -0.617090       -16.7919 
  45   2.0000      -0.609788       -16.5932 
  46   2.0000      -0.603107       -16.4114 
  47   2.0000      -0.595562       -16.2061 
  48   2.0000      -0.586806       -15.9678 
  49   2.0000      -0.575890       -15.6708 
  50   2.0000      -0.557846       -15.1798 
  51   2.0000      -0.536423       -14.5968 
  52   2.0000      -0.522299       -14.2125 
  53   2.0000      -0.518451       -14.1078 
  54   2.0000      -0.498310       -13.5597 
  55   2.0000      -0.476369       -12.9627 
  56   2.0000      -0.471167       -12.8211 
  57   2.0000      -0.462217       -12.5776 
  58   2.0000      -0.455513       -12.3951 
  59   2.0000      -0.447653       -12.1812 
  60   2.0000      -0.446982       -12.1630 
  61   2.0000      -0.440596       -11.9892 
  62   2.0000      -0.432587       -11.7713 
  63   2.0000      -0.426131       -11.5956 
  64   2.0000      -0.421911       -11.4808 
  65   2.0000      -0.420433       -11.4406 
  66   2.0000      -0.410826       -11.1791 
  67   2.0000      -0.409385       -11.1399 
  68   2.0000      -0.406180       -11.0527 
  69   2.0000      -0.392159       -10.6712 
  70   2.0000      -0.386930       -10.5289 
  71   2.0000      -0.374883       -10.2011 
  72   2.0000      -0.365240        -9.9387 
  73   2.0000      -0.361575        -9.8389 
  74   2.0000      -0.359589        -9.7849 
  75   2.0000      -0.353720        -9.6252 
  76   2.0000      -0.348647        -9.4872 
  77   2.0000      -0.342180        -9.3112 
  78   2.0000      -0.337080        -9.1724 
  79   2.0000      -0.330345        -8.9891 
  80   2.0000      -0.313092        -8.5197 
  81   2.0000      -0.277763        -7.5583 
  82   2.0000      -0.265254        -7.2179 
  83   2.0000      -0.253000        -6.8845 
  84   2.0000      -0.252533        -6.8718 
  85   2.0000      -0.248943        -6.7741 
  86   2.0000      -0.244589        -6.6556 
  87   2.0000      -0.238907        -6.5010 
  88   2.0000      -0.235489        -6.4080 
  89   2.0000      -0.207234        -5.6391 
  90   0.0000      -0.031196        -0.8489 
  91   0.0000      -0.020560        -0.5595 
  92   0.0000      -0.012448        -0.3387 
  93   0.0000      -0.005406        -0.1471 
  94   0.0000      -0.000063        -0.0017 
  95   0.0000       0.005571         0.1516 
  96   0.0000       0.027124         0.7381 
  97   0.0000       0.041571         1.1312 
  98   0.0000       0.086067         2.3420 
  99   0.0000       0.091243         2.4828 
 100   0.0000       0.095021         2.5857 
*Only the first 10 virtual orbitals were printed.

                    ********************************
                    * MULLIKEN POPULATION ANALYSIS *
                    ********************************

-----------------------
MULLIKEN ATOMIC CHARGES
-----------------------
   0 Cl:    0.001163
   1 C :   -0.113901
   2 C :   -0.130698
   3 C :   -0.111853
   4 C :   -0.131412
   5 C :   -0.169213
   6 C :    0.108867
   7 C :    0.009034
   8 C :    0.137938
   9 C :   -0.162899
  10 C :   -0.129046
  11 C :   -0.120754
  12 C :   -0.131703
  13 C :   -0.169685
  14 C :    0.103434
  15 C :   -0.165693
  16 C :   -0.135692
  17 C :   -0.120498
  18 C :   -0.129297
  19 C :   -0.164987
  20 N :   -0.346595
  21 C :   -0.021516
  22 C :   -0.045077
  23 N :   -0.388689
  24 C :    0.130529
  25 H :    0.155533
  26 H :    0.139693
  27 H :    0.139523
  28 H :    0.164211
  29 H :    0.136035
  30 H :    0.130226
  31 H :    0.128553
  32 H :    0.132223
  33 H :    0.140073
  34 H :    0.157247
  35 H :    0.133599
  36 H :    0.130354
  37 H :    0.134001
  38 H :    0.142176
  39 H :    0.145937
  40 H :    0.128538
  41 H :    0.160323
Sum of atomic charges:   -0.0000000

--------------------------------
MULLIKEN REDUCED ORBITAL CHARGES
--------------------------------
  0 Cls       :     5.930738  s :     5.930738
      pz      :     3.338657  p :    11.038051
      px      :     3.909327
      py      :     3.790067
      dz2     :     0.010120  d :     0.030048
      dxz     :     0.005953
      dyz     :     0.010354
      dx2y2   :     0.001853
      dxy     :     0.001767

  1 C s       :     3.191775  s :     3.191775
      pz      :     0.853345  p :     2.874955
      px      :     1.045860
      py      :     0.975750
      dz2     :     0.012729  d :     0.047171
      dxz     :     0.008427
      dyz     :     0.013933
      dx2y2   :     0.006097
      dxy     :     0.005984

  2 C s       :     3.191821  s :     3.191821
      pz      :     0.994632  p :     2.903219
      px      :     0.979492
      py      :     0.929095
      dz2     :     0.010433  d :     0.035658
      dxz     :     0.004384
      dyz     :     0.009871
      dx2y2   :     0.005585
      dxy     :     0.005385

  3 C s       :     3.179949  s :     3.179949
      pz      :     0.934368  p :     2.895242
      px      :     0.976627
      py      :     0.984247
      dz2     :     0.010858  d :     0.036663
      dxz     :     0.006970
      dyz     :     0.009667
      dx2y2   :     0.004052
      dxy     :     0.005116

  4 C s       :     3.186296  s :     3.186296
      pz      :     0.965214  p :     2.908587
      px      :     0.985838
      py      :     0.957535
      dz2     :     0.009237  d :     0.036529
      dxz     :     0.005802
      dyz     :     0.011650
      dx2y2   :     0.004784
      dxy     :     0.005056

  5 C s       :     3.210514  s :     3.210514
      pz      :     0.989502  p :     2.922936
      px      :     0.970793
      py      :     0.962642
      dz2     :     0.009875  d :     0.035762
      dxz     :     0.004289
      dyz     :     0.010976
      dx2y2   :     0.005450
      dxy     :     0.005171

  6 C s       :     3.167837  s :     3.167837
      pz      :     0.817353  p :     2.685892
      px      :     0.964988
      py      :     0.903551
      dz2     :     0.009592  d :     0.037404
      dxz     :     0.007354
      dyz     :     0.009591
      dx2y2   :     0.005285
      dxy     :     0.005582

  7 C s       :     3.216117  s :     3.216117
      pz      :     0.797228  p :     2.713889
      px      :     0.946240
      py      :     0.970420
      dz2     :     0.017479  d :     0.060961
      dxz     :     0.014568
      dyz     :     0.006401
      dx2y2   :     0.010763
      dxy     :     0.011750

  8 C s       :     3.141979  s :     3.141979
      pz      :     0.945207  p :     2.681655
      px      :     0.884981
      py      :     0.851466
      dz2     :     0.004487  d :     0.038429
      dxz     :     0.005909
      dyz     :     0.007307
      dx2y2   :     0.009998
      dxy     :     0.010727

  9 C s       :     3.203384  s :     3.203384
      pz      :     0.979121  p :     2.923663
      px      :     0.960756
      py      :     0.983787
      dz2     :     0.005057  d :     0.035852
      dxz     :     0.005302
      dyz     :     0.005385
      dx2y2   :     0.011344
      dxy     :     0.008763

 10 C s       :     3.187377  s :     3.187377
      pz      :     0.977320  p :     2.905429
      px      :     0.972887
      py      :     0.955221
      dz2     :     0.004857  d :     0.036240
      dxz     :     0.004737
      dyz     :     0.006259
      dx2y2   :     0.008446
      dxy     :     0.011941

 11 C s       :     3.184426  s :     3.184426
      pz      :     0.988973  p :     2.899926
      px      :     0.971076
      py      :     0.939877
      dz2     :     0.002987  d :     0.036403
      dxz     :     0.006027
      dyz     :     0.007351
      dx2y2   :     0.010759
      dxy     :     0.009278

 12 C s       :     3.187496  s :     3.187496
      pz      :     0.977765  p :     2.907901
      px      :     0.956335
      py      :     0.973801
      dz2     :     0.005389  d :     0.036305
      dxz     :     0.005317
      dyz     :     0.005123
      dx2y2   :     0.011239
      dxy     :     0.009237

 13 C s       :     3.208438  s :     3.208438
      pz      :     0.977085  p :     2.925460
      px      :     0.975945
      py      :     0.972431
      dz2     :     0.004565  d :     0.035786
      dxz     :     0.004736
      dyz     :     0.006667
      dx2y2   :     0.008534
      dxy     :     0.011285

 14 C s       :     3.157904  s :     3.157904
      pz      :     0.869140  p :     2.700273
      px      :     0.896722
      py      :     0.934411
      dz2     :     0.009691  d :     0.038390
      dxz     :     0.009367
      dyz     :     0.006825
      dx2y2   :     0.005873
      dxy     :     0.006634

 15 C s       :     3.207452  s :     3.207452
      pz      :     0.981726  p :     2.922381
      px      :     0.975063
      py      :     0.965592
      dz2     :     0.007812  d :     0.035859
      dxz     :     0.011686
      dyz     :     0.005782
      dx2y2   :     0.005905
      dxy     :     0.004674

 16 C s       :     3.190012  s :     3.190012
      pz      :     0.976071  p :     2.909433
      px      :     0.950724
      py      :     0.982637
      dz2     :     0.009016  d :     0.036248
      dxz     :     0.008085
      dyz     :     0.007330
      dx2y2   :     0.005981
      dxy     :     0.005835

 17 C s       :     3.185296  s :     3.185296
      pz      :     0.944085  p :     2.898758
      px      :     0.972099
      py      :     0.982573
      dz2     :     0.010200  d :     0.036444
      dxz     :     0.008469
      dyz     :     0.006818
      dx2y2   :     0.003523
      dxy     :     0.007434

 18 C s       :     3.187510  s :     3.187510
      pz      :     0.960661  p :     2.905490
      px      :     0.973864
      py      :     0.970965
      dz2     :     0.007589  d :     0.036297
      dxz     :     0.011931
      dyz     :     0.005701
      dx2y2   :     0.006105
      dxy     :     0.004970

 19 C s       :     3.206626  s :     3.206626
      pz      :     0.988569  p :     2.922575
      px      :     0.951703
      py      :     0.982303
      dz2     :     0.008371  d :     0.035786
      dxz     :     0.007908
      dyz     :     0.007379
      dx2y2   :     0.006444
      dxy     :     0.005684

 20 N s       :     3.544701  s :     3.544701
      pz      :     1.192391  p :     3.755072
      px      :     1.385175
      py      :     1.177506
      dz2     :     0.009789  d :     0.046822
      dxz     :     0.007955
      dyz     :     0.011507
      dx2y2   :     0.008630
      dxy     :     0.008940

 21 C s       :     3.107947  s :     3.107947
      pz      :     0.956164  p :     2.861505
      px      :     0.960843
      py      :     0.944498
      dz2     :     0.009885  d :     0.052065
      dxz     :     0.007231
      dyz     :     0.013423
      dx2y2   :     0.011622
      dxy     :     0.009904

 22 C s       :     3.146604  s :     3.146604
      pz      :     0.978734  p :     2.843631
      px      :     1.004714
      py      :     0.860183
      dz2     :     0.008787  d :     0.054841
      dxz     :     0.008271
      dyz     :     0.014611
      dx2y2   :     0.010134
      dxy     :     0.013038

 23 N s       :     3.668951  s :     3.668951
      pz      :     1.282903  p :     3.677704
      px      :     1.117605
      py      :     1.277197
      dz2     :     0.010619  d :     0.042033
      dxz     :     0.007818
      dyz     :     0.007309
      dx2y2   :     0.009725
      dxy     :     0.006563

 24 C s       :     3.071937  s :     3.071937
      pz      :     0.892554  p :     2.727160
      px      :     0.986857
      py      :     0.847749
      dz2     :     0.014797  d :     0.070374
      dxz     :     0.009898
      dyz     :     0.020341
      dx2y2   :     0.011062
      dxy     :     0.014277

 25 H s       :     0.844467  s :     0.844467

 26 H s       :     0.860307  s :     0.860307

 27 H s       :     0.860477  s :     0.860477

 28 H s       :     0.835789  s :     0.835789

 29 H s       :     0.863965  s :     0.863965

 30 H s       :     0.869774  s :     0.869774

 31 H s       :     0.871447  s :     0.871447

 32 H s       :     0.867777  s :     0.867777

 33 H s       :     0.859927  s :     0.859927

 34 H s       :     0.842753  s :     0.842753

 35 H s       :     0.866401  s :     0.866401

 36 H s       :     0.869646  s :     0.869646

 37 H s       :     0.865999  s :     0.865999

 38 H s       :     0.857824  s :     0.857824

 39 H s       :     0.854063  s :     0.854063

 40 H s       :     0.871462  s :     0.871462

 41 H s       :     0.839677  s :     0.839677



                     *******************************
                     * LOEWDIN POPULATION ANALYSIS *
                     *******************************

----------------------
LOEWDIN ATOMIC CHARGES
----------------------
   0 Cl:    0.050018
   1 C :   -0.081527
   2 C :   -0.131244
   3 C :   -0.123101
   4 C :   -0.128265
   5 C :   -0.124850
   6 C :   -0.018609
   7 C :    0.057426
   8 C :   -0.017688
   9 C :   -0.123550
  10 C :   -0.128725
  11 C :   -0.125250
  12 C :   -0.129343
  13 C :   -0.126165
  14 C :   -0.021170
  15 C :   -0.125147
  16 C :   -0.129827
  17 C :   -0.124465
  18 C :   -0.129616
  19 C :   -0.123888
  20 N :    0.038873
  21 C :   -0.159564
  22 C :   -0.142108
  23 N :   -0.171690
  24 C :   -0.090327
  25 H :    0.146320
  26 H :    0.137998
  27 H :    0.137170
  28 H :    0.148540
  29 H :    0.134788
  30 H :    0.132763
  31 H :    0.131777
  32 H :    0.133560
  33 H :    0.137279
  34 H :    0.145383
  35 H :    0.134303
  36 H :    0.132490
  37 H :    0.134431
  38 H :    0.137429
  39 H :    0.136628
  40 H :    0.128744
  41 H :    0.140198

-------------------------------
LOEWDIN REDUCED ORBITAL CHARGES
-------------------------------
  0 Cls       :     5.804955  s :     5.804955
      pz      :     3.406117  p :    11.111576
      px      :     3.904884
      py      :     3.800575
      dz2     :     0.011447  d :     0.033451
      dxz     :     0.006407
      dyz     :     0.011841
      dx2y2   :     0.001928
      dxy     :     0.001827

  1 C s       :     2.919111  s :     2.919111
      pz      :     0.962272  p :     3.053028
      px      :     1.041880
      py      :     1.048876
      dz2     :     0.031585  d :     0.109387
      dxz     :     0.017370
      dyz     :     0.034078
      dx2y2   :     0.013117
      dxy     :     0.013237

  2 C s       :     2.919152  s :     2.919152
      pz      :     1.085388  p :     3.127050
      px      :     1.000467
      py      :     1.041195
      dz2     :     0.024110  d :     0.085042
      dxz     :     0.009698
      dyz     :     0.024575
      dx2y2   :     0.013200
      dxy     :     0.013458

  3 C s       :     2.914830  s :     2.914830
      pz      :     1.071101  p :     3.121472
      px      :     0.992937
      py      :     1.057435
      dz2     :     0.029360  d :     0.086798
      dxz     :     0.016247
      dyz     :     0.025600
      dx2y2   :     0.006868
      dxy     :     0.008722

  4 C s       :     2.914780  s :     2.914780
      pz      :     1.074886  p :     3.127002
      px      :     0.996508
      py      :     1.055608
      dz2     :     0.022466  d :     0.086483
      dxz     :     0.012468
      dyz     :     0.028793
      dx2y2   :     0.010981
      dxy     :     0.011775

  5 C s       :     2.919284  s :     2.919284
      pz      :     1.069674  p :     3.122071
      px      :     0.996241
      py      :     1.056156
      dz2     :     0.021945  d :     0.083495
      dxz     :     0.009717
      dyz     :     0.026614
      dx2y2   :     0.012475
      dxy     :     0.012744

  6 C s       :     2.893649  s :     2.893649
      pz      :     1.049138  p :     3.033240
      px      :     0.996438
      py      :     0.987664
      dz2     :     0.027076  d :     0.091720
      dxz     :     0.017201
      dyz     :     0.025282
      dx2y2   :     0.010562
      dxy     :     0.011599

  7 C s       :     2.858429  s :     2.858429
      pz      :     0.907738  p :     2.948327
      px      :     1.012452
      py      :     1.028137
      dz2     :     0.039190  d :     0.135817
      dxz     :     0.033986
      dyz     :     0.013303
      dx2y2   :     0.022242
      dxy     :     0.027096

  8 C s       :     2.886736  s :     2.886736
      pz      :     0.974101  p :     3.035187
      px      :     0.992946
      py      :     1.068140
      dz2     :     0.010199  d :     0.095765
      dxz     :     0.013216
      dyz     :     0.016994
      dx2y2   :     0.026884
      dxy     :     0.028471

  9 C s       :     2.919468  s :     2.919468
      pz      :     1.009112  p :     3.120502
      px      :     1.042446
      py      :     1.068944
      dz2     :     0.009911  d :     0.083580
      dxz     :     0.013499
      dyz     :     0.011738
      dx2y2   :     0.026117
      dxy     :     0.022316

 10 C s       :     2.915968  s :     2.915968
      pz      :     1.007893  p :     3.127275
      px      :     1.046706
      py      :     1.072675
      dz2     :     0.009890  d :     0.085483
      dxz     :     0.011162
      dyz     :     0.014457
      dx2y2   :     0.021815
      dxy     :     0.028160

 11 C s       :     2.916957  s :     2.916957
      pz      :     1.004205  p :     3.122491
      px      :     1.045050
      py      :     1.073237
      dz2     :     0.006578  d :     0.085801
      dxz     :     0.010441
      dyz     :     0.017625
      dx2y2   :     0.027381
      dxy     :     0.023777

 12 C s       :     2.916170  s :     2.916170
      pz      :     1.008938  p :     3.127622
      px      :     1.044841
      py      :     1.073842
      dz2     :     0.010817  d :     0.085552
      dxz     :     0.013542
      dyz     :     0.011560
      dx2y2   :     0.026254
      dxy     :     0.023378

 13 C s       :     2.919170  s :     2.919170
      pz      :     1.012356  p :     3.123425
      px      :     1.046742
      py      :     1.064327
      dz2     :     0.009086  d :     0.083570
      dxz     :     0.011142
      dyz     :     0.015062
      dx2y2   :     0.021478
      dxy     :     0.026802

 14 C s       :     2.886027  s :     2.886027
      pz      :     1.061695  p :     3.040214
      px      :     1.002601
      py      :     0.975919
      dz2     :     0.025654  d :     0.094929
      dxz     :     0.024843
      dyz     :     0.016612
      dx2y2   :     0.012435
      dxy     :     0.015384

 15 C s       :     2.921002  s :     2.921002
      pz      :     1.059251  p :     3.120803
      px      :     1.053627
      py      :     1.007925
      dz2     :     0.018802  d :     0.083343
      dxz     :     0.025751
      dyz     :     0.014330
      dx2y2   :     0.012450
      dxy     :     0.012009

 16 C s       :     2.916476  s :     2.916476
      pz      :     1.064055  p :     3.127864
      px      :     1.047654
      py      :     1.016155
      dz2     :     0.020305  d :     0.085486
      dxz     :     0.021433
      dyz     :     0.014820
      dx2y2   :     0.014200
      dxy     :     0.014729

 17 C s       :     2.917268  s :     2.917268
      pz      :     1.062414  p :     3.121279
      px      :     1.047670
      py      :     1.011195
      dz2     :     0.026031  d :     0.085919
      dxz     :     0.022255
      dyz     :     0.016820
      dx2y2   :     0.007124
      dxy     :     0.013689

 18 C s       :     2.916077  s :     2.916077
      pz      :     1.062566  p :     3.127904
      px      :     1.048036
      py      :     1.017302
      dz2     :     0.018818  d :     0.085634
      dxz     :     0.026410
      dyz     :     0.014624
      dx2y2   :     0.013111
      dxy     :     0.012670

 19 C s       :     2.918938  s :     2.918938
      pz      :     1.060863  p :     3.121418
      px      :     1.039786
      py      :     1.020768
      dz2     :     0.018556  d :     0.083532
      dxz     :     0.020520
      dyz     :     0.014731
      dx2y2   :     0.015116
      dxy     :     0.014609

 20 N s       :     3.067132  s :     3.067132
      pz      :     1.196751  p :     3.777261
      px      :     1.350441
      py      :     1.230069
      dz2     :     0.023612  d :     0.116733
      dxz     :     0.017217
      dyz     :     0.031834
      dx2y2   :     0.021988
      dxy     :     0.022082

 21 C s       :     2.904834  s :     2.904834
      pz      :     1.052891  p :     3.133141
      px      :     1.032696
      py      :     1.047554
      dz2     :     0.023995  d :     0.121588
      dxz     :     0.018923
      dyz     :     0.032227
      dx2y2   :     0.023810
      dxy     :     0.022634

 22 C s       :     2.908011  s :     2.908011
      pz      :     1.056738  p :     3.107834
      px      :     1.043429
      py      :     1.007667
      dz2     :     0.021269  d :     0.126263
      dxz     :     0.015813
      dyz     :     0.035844
      dx2y2   :     0.023515
      dxy     :     0.029822

 23 N s       :     3.266542  s :     3.266542
      pz      :     1.319042  p :     3.815638
      px      :     1.157037
      py      :     1.339558
      dz2     :     0.021224  d :     0.089510
      dxz     :     0.017266
      dyz     :     0.014425
      dx2y2   :     0.022363
      dxy     :     0.014232

 24 C s       :     2.899965  s :     2.899965
      pz      :     0.999553  p :     3.033929
      px      :     1.043468
      py      :     0.990908
      dz2     :     0.032500  d :     0.156433
      dxz     :     0.023783
      dyz     :     0.047923
      dx2y2   :     0.023754
      dxy     :     0.028473

 25 H s       :     0.853680  s :     0.853680

 26 H s       :     0.862002  s :     0.862002

 27 H s       :     0.862830  s :     0.862830

 28 H s       :     0.851460  s :     0.851460

 29 H s       :     0.865212  s :     0.865212

 30 H s       :     0.867237  s :     0.867237

 31 H s       :     0.868223  s :     0.868223

 32 H s       :     0.866440  s :     0.866440

 33 H s       :     0.862721  s :     0.862721

 34 H s       :     0.854617  s :     0.854617

 35 H s       :     0.865697  s :     0.865697

 36 H s       :     0.867510  s :     0.867510

 37 H s       :     0.865569  s :     0.865569

 38 H s       :     0.862571  s :     0.862571

 39 H s       :     0.863372  s :     0.863372

 40 H s       :     0.871256  s :     0.871256

 41 H s       :     0.859802  s :     0.859802



                      *****************************
                      * MAYER POPULATION ANALYSIS *
                      *****************************

  NA   - Mulliken gross atomic population
  ZA   - Total nuclear charge
  QA   - Mulliken gross atomic charge
  VA   - Mayer's total valence
  BVA  - Mayer's bonded valence
  FA   - Mayer's free valence

  ATOM       NA         ZA         QA         VA         BVA        FA
  0 Cl    16.9988    17.0000     0.0012     1.1525     1.1525     0.0000
  1 C      6.1139     6.0000    -0.1139     3.9333     3.9333    -0.0000
  2 C      6.1307     6.0000    -0.1307     3.9244     3.9244    -0.0000
  3 C      6.1119     6.0000    -0.1119     3.9473     3.9473     0.0000
  4 C      6.1314     6.0000    -0.1314     3.9493     3.9493    -0.0000
  5 C      6.1692     6.0000    -0.1692     3.9079     3.9079     0.0000
  6 C      5.8911     6.0000     0.1089     3.8796     3.8796    -0.0000
  7 C      5.9910     6.0000     0.0090     3.8621     3.8621     0.0000
  8 C      5.8621     6.0000     0.1379     3.8939     3.8939    -0.0000
  9 C      6.1629     6.0000    -0.1629     3.9204     3.9204    -0.0000
 10 C      6.1290     6.0000    -0.1290     3.9519     3.9519     0.0000
 11 C      6.1208     6.0000    -0.1208     3.9522     3.9522    -0.0000
 12 C      6.1317     6.0000    -0.1317     3.9509     3.9509    -0.0000
 13 C      6.1697     6.0000    -0.1697     3.9208     3.9208     0.0000
 14 C      5.8966     6.0000     0.1034     3.9122     3.9122    -0.0000
 15 C      6.1657     6.0000    -0.1657     3.9182     3.9182    -0.0000
 16 C      6.1357     6.0000    -0.1357     3.9456     3.9456    -0.0000
 17 C      6.1205     6.0000    -0.1205     3.9488     3.9488     0.0000
 18 C      6.1293     6.0000    -0.1293     3.9502     3.9502    -0.0000
 19 C      6.1650     6.0000    -0.1650     3.9101     3.9101    -0.0000
 20 N      7.3466     7.0000    -0.3466     3.3300     3.3300    -0.0000
 21 C      6.0215     6.0000    -0.0215     3.8076     3.8076    -0.0000
 22 C      6.0451     6.0000    -0.0451     3.9200     3.9200    -0.0000
 23 N      7.3887     7.0000    -0.3887     3.0234     3.0234    -0.0000
 24 C      5.8695     6.0000     0.1305     3.8286     3.8286    -0.0000
 25 H      0.8445     1.0000     0.1555     0.9370     0.9370     0.0000
 26 H      0.8603     1.0000     0.1397     0.9348     0.9348    -0.0000
 27 H      0.8605     1.0000     0.1395     0.9355     0.9355     0.0000
 28 H      0.8358     1.0000     0.1642     0.9396     0.9396    -0.0000
 29 H      0.8640     1.0000     0.1360     0.9433     0.9433     0.0000
 30 H      0.8698     1.0000     0.1302     0.9369     0.9369     0.0000
 31 H      0.8714     1.0000     0.1286     0.9363     0.9363    -0.0000
 32 H      0.8678     1.0000     0.1322     0.9365     0.9365     0.0000
 33 H      0.8599     1.0000     0.1401     0.9462     0.9462     0.0000
 34 H      0.8428     1.0000     0.1572     0.9441     0.9441     0.0000
 35 H      0.8664     1.0000     0.1336     0.9365     0.9365    -0.0000
 36 H      0.8696     1.0000     0.1304     0.9360     0.9360     0.0000
 37 H      0.8660     1.0000     0.1340     0.9362     0.9362    -0.0000
 38 H      0.8578     1.0000     0.1422     0.9443     0.9443    -0.0000
 39 H      0.8541     1.0000     0.1459     0.9474     0.9474    -0.0000
 40 H      0.8715     1.0000     0.1285     0.9440     0.9440    -0.0000
 41 H      0.8397     1.0000     0.1603     0.9475     0.9475     0.0000

  Mayer bond orders larger than 0.100000
B(  0-Cl,  1-C ) :   1.0327 B(  1-C ,  2-C ) :   1.4045 B(  1-C ,  6-C ) :   1.3581 
B(  2-C ,  3-C ) :   1.4564 B(  2-C , 25-H ) :   0.9220 B(  3-C ,  4-C ) :   1.4482 
B(  3-C , 26-H ) :   0.9272 B(  4-C ,  5-C ) :   1.4417 B(  4-C , 27-H ) :   0.9273 
B(  5-C ,  6-C ) :   1.3969 B(  5-C , 28-H ) :   0.9092 B(  6-C ,  7-C ) :   0.9459 
B(  7-C ,  8-C ) :   0.9330 B(  7-C , 14-C ) :   0.9396 B(  7-C , 20-N ) :   0.8686 
B(  8-C ,  9-C ) :   1.4084 B(  8-C , 13-C ) :   1.4085 B(  9-C , 10-C ) :   1.4418 
B(  9-C , 29-H ) :   0.9167 B( 10-C , 11-C ) :   1.4534 B( 10-C , 30-H ) :   0.9293 
B( 11-C , 12-C ) :   1.4528 B( 11-C , 31-H ) :   0.9296 B( 12-C , 13-C ) :   1.4394 
B( 12-C , 32-H ) :   0.9291 B( 13-C , 33-H ) :   0.9165 B( 14-C , 15-C ) :   1.4232 
B( 14-C , 19-C ) :   1.3902 B( 15-C , 16-C ) :   1.4292 B( 15-C , 34-H ) :   0.9078 
B( 16-C , 17-C ) :   1.4576 B( 16-C , 35-H ) :   0.9290 B( 17-C , 18-C ) :   1.4462 
B( 17-C , 36-H ) :   0.9295 B( 18-C , 19-C ) :   1.4502 B( 18-C , 37-H ) :   0.9289 
B( 19-C , 38-H ) :   0.9163 B( 20-N , 21-C ) :   1.1626 B( 20-N , 24-C ) :   1.1827 
B( 21-C , 22-C ) :   1.5554 B( 21-C , 39-H ) :   0.9243 B( 22-C , 23-N ) :   1.3403 
B( 22-C , 40-H ) :   0.9410 B( 23-N , 24-C ) :   1.5511 B( 24-C , 41-H ) :   0.9260 


-------
TIMINGS
-------

Total SCF time: 0 days 0 hours 4 min 3 sec 

Total time                  ....     243.082 sec
Sum of individual times     ....     242.759 sec  ( 99.9%)

SCF preparation             ....       0.291 sec  (  0.1%)
Fock matrix formation       ....     241.119 sec  ( 99.2%)
  Startup                   ....       0.074 sec  (  0.0% of F)
  Split-RI-J                ....      27.874 sec  ( 11.6% of F)
  Chain of spheres X        ....     189.095 sec  ( 78.4% of F)
  XC integration            ....      23.435 sec  (  9.7% of F)
    XC Preparation          ....       0.000 sec  (  0.0% of XC)
    Basis function eval.    ....       8.708 sec  ( 37.2% of XC)
    Density eval.           ....       5.814 sec  ( 24.8% of XC)
    XC-Functional eval.     ....       0.861 sec  (  3.7% of XC)
    XC-Potential eval.      ....       6.859 sec  ( 29.3% of XC)
Diagonalization             ....       0.000 sec  (  0.0%)
Density matrix formation    ....       0.266 sec  (  0.1%)
Total Energy calculation    ....       0.056 sec  (  0.0%)
Population analysis         ....       0.051 sec  (  0.0%)
Orbital Transformation      ....       0.123 sec  (  0.1%)
Orbital Orthonormalization  ....       0.000 sec  (  0.0%)
DIIS solution               ....       0.567 sec  (  0.2%)
SOSCF solution              ....       0.285 sec  (  0.1%)
Finished LeanSCF after 243.2 sec

Maximum memory used throughout the entire LEANSCF-calculation: 70.9 MB

-------------------------   --------------------
FINAL SINGLE POINT ENERGY     -1417.542721393223
-------------------------   --------------------


------------------------------------------------------------------------------
                              ORCA PROPERTY CALCULATIONS
------------------------------------------------------------------------------

GBWName                                 ... /home/nmrbox/aojoawo/Documents/ERDOS/inputs/CHEMBL104.gbw
Number of atoms                         ...     42
Number of basis functions               ...    388
Max core memory                         ...   1024 MB

Electric properties:
Dipole moment                           ... YES
Quadrupole moment                       ...  NO
Static polarizability (Dipole/Dipole)   ...  NO
Static polarizability (Dipole/Quad.)    ...  NO
Static polarizability (Quad./Quad.)     ...  NO
Static polarizability (Velocity)        ...  NO

Atomic electric properties:
Dipole moment                           ...  NO
Quadrupole moment                       ...  NO
Static polarizability                   ...  NO

Choice of electric origin               ... Center of mass
Position of electric origin             ...    -0.007794     0.139192     0.294399

General magnetic properties:
Magnetizability                         ...  NO

EPR properties:
g-Tensor (aka g-matrix)                 ...  NO
Zero-Field splitting spin-orbit         ...  NO
Zero-field splitting spin-spin          ...  NO
Hyperfine couplings                     ...  NO (   0 nuclei)
Quadrupole couplings                    ...  NO (   0 nuclei)
Contact density                         ...  NO (   0 nuclei)

NMR properties:
Chemical shifts                         ...  NO (   0 nuclei)
Spin-rotation constants                 ...  NO (   0 nuclei)
Spin-spin couplings                     ...  NO (   0 nuclei,    0 pairs)

Choice of magnetic origin               ... GIAO
Position of magnetic origin             ...     0.000000     0.000000     0.000000

Properties with geometric perturbations:
SCF Hessian                             ...  NO
IR spectrum                             ...  NO
VCD spectrum                            ...  NO
X-ray spectroscopy properties:
SCF XES/XAS/RIXS spectra                ...  NO


-------------
DIPOLE MOMENT
-------------

Method             : SCF
Type of density    : Electron Density
Multiplicity       :   1
Irrep              :   0
Energy             : -1417.5427213932230188 Eh
Relativity type    : 
Basis              : AO
                                X                 Y                 Z
Electronic contribution:     -0.984500152       3.644782481       6.822948133
Nuclear contribution   :      0.243014397      -2.763143352      -5.914024007
                        -----------------------------------------
Total Dipole Moment    :     -0.741485756       0.881639129       0.908924126
                        -----------------------------------------
Magnitude (a.u.)       :      1.467389432
Magnitude (Debye)      :      3.729807524



--------------------
Rotational spectrum 
--------------------
 
Rotational constants in cm-1:             0.007783             0.007235             0.006755 
Rotational constants in MHz :           233.327407           216.898099           202.518526 

Dipole components along the rotational axes: 
x,y,z [a.u.] :    -1.152631     0.884742     0.204707 
x,y,z [Debye]:    -2.929755     2.248836     0.520324 

 

Dipole moment calculation done in   0.0 sec 

Maximum memory used throughout the entire PROP-calculation: 34.0 MB

--------------------------------
SUGGESTED CITATIONS FOR THIS RUN
--------------------------------

Below you find a list of papers that are relevant to this ORCA run
We neither can nor want to force you to cite these papers, but we appreciate if you do
You receive ORCA, which is the product of decades of hard work by many enthusiastic individuals, for free
The only thing we kindly ask in return is that you cite our papers,
We deeply appreciate it, if you show your appreciation for ORCA by not just citing the generic ORCA reference.

Please note that relegating all ORCA citations to the supporting information does *not* help us.
SI sections are not indexed - citations you put there will not count into any citation statistics
But we need these citations in order to attract the funding resources that allow us to do what we are doing

Therefore, if you are a happy ORCA user, please consider citing a few of the papers listed below in the main body of your paper

In addition to the list printed below, the program has created the file /home/nmrbox/aojoawo/Documents/ERDOS/inputs/CHEMBL104.bibtex that contains the list in bibtex format
You can import this file easily into all common literature databanks and citation aid programs


List of essential papers. We consider these as the minimum necessary citations

  1. Neese,F.
     Software update: the ORCA program system, version 5.0
     WIRES Comput. Molec. Sci., 2022 12(1)e1606
     doi.org/10.1002/wcms.1606

List of papers to cite with high priority. The work reported in these papers was absolutely
necessary for this run to complete.
Our perspective: the developers of density functionals and basis sets usually get cited in chemistry papers
Good! But without the algorithms to do something with them, the functionals or basis sets would not do anything.
Hence, in our opinion, the algorithm design and method developments papers are equally worthy of getting cited

  1. Neese,F.
     An improvement of the resolution of the identity approximation for the formation of the Coulomb matrix
     J. Comp. Chem., 2003 24(14)1740-1747
     doi.org/10.1002/jcc.10318
  2. Neese,F.; Wennmohs,F.; Hansen,A.; Becker,U.
     Efficient, approximate and parallel Hartree-Fock and hybrid DFT calculations. A 'chain-of-spheres' algorithm for the Hartree-Fock exchange
     Chem. Phys., 2009 356(1-3)98-109
     doi.org/10.1016/j.chemphys.2008.10.036
  3. Helmich-Paris,B.; de Souza,B.; Neese,F.; Izsák,R.
     An improved chain of spheres for exchange algorithm
     J. Chem. Phys., 2021 155 104109
     doi.org/doi: 10.1063/5.0058766.
  4. Neese,F.
     The SHARK Integral Generation and Digestion System
     J. Comp. Chem., 2022  1-16
     doi.org/10.1002/jcc.26942

List of suggested additional citations. These are papers that are important in the 'surrounding' of 
of this run, or papers that preceded the highly important papers. If you like your results we are grateful for a citation.

  1. Izsak,R.; Neese,F.
     An overlap fitted chain of spheres exchange method
     J. Chem. Phys., 2011 135 144105
     doi.org/10.1063/1.3646921
  2. Izsak,R.; Hansen,A.; Neese,F.
     The resolution of identity and chain of spheres approximations for the LPNO-CCSD singles Fock term
     Molec. Phys., 2012 110 2413-2417
     doi.org/10.1080/00268976.2012.687466
  3. Neese,F.
     The ORCA program system
     WIRES Comput. Molec. Sci., 2012 2(1)73-78
     doi.org/10.1002/wcms.81
  4. Izsak,R.; Neese,F.; Klopper,W.
     Robust fitting techniques in the chain of spheres approximation to the Fock exchange: The role of the complementary space
     J. Chem. Phys., 2013 139 
     doi.org/10.1063/1.4819264
  5. Neese,F.
     Software update: the ORCA program system, version 4.0
     WIRES Comput. Molec. Sci., 2018 8(1)1-6
     doi.org/10.1002/wcms.1327
  6. Neese,F.; Wennmohs,F.; Becker,U.; Riplinger,C.
     The ORCA quantum chemistry program package
     J. Chem. Phys., 2020 152 Art. No. L224108
     doi.org/10.1063/5.0004608

List of optional additional citations

  1. Neese,F.
     Approximate second-order SCF convergence for spin unrestricted wavefunctions
     Chem. Phys. Lett., 2000 325(1-3)93-98
     doi.org/10.1016/s0009-2614(00)00662-x

Timings for individual modules:

Sum of individual times          ...      254.465 sec (=   4.241 min)
Startup calculation              ...        7.377 sec (=   0.123 min)   2.9 %
SCF iterations                   ...      246.908 sec (=   4.115 min)  97.0 %
Property calculations            ...        0.181 sec (=   0.003 min)   0.1 %
                             ****ORCA TERMINATED NORMALLY****
TOTAL RUN TIME: 0 days 0 hours 4 minutes 15 seconds 197 msec
