
                                 *****************
                                 * O   R   C   A *
                                 *****************

                                            #,                                       
                                            ###                                      
                                            ####                                     
                                            #####                                    
                                            ######                                   
                                           ########,                                 
                                     ,,################,,,,,                         
                               ,,#################################,,                 
                          ,,##########################################,,             
                       ,#########################################, ''#####,          
                    ,#############################################,,   '####,        
                  ,##################################################,,,,####,       
                ,###########''''           ''''###############################       
              ,#####''   ,,,,##########,,,,          '''####'''          '####       
            ,##' ,,,,###########################,,,                        '##       
           ' ,,###''''                  '''############,,,                           
         ,,##''                                '''############,,,,        ,,,,,,###''
      ,#''                                            '''#######################'''  
     '                                                          ''''####''''         
             ,#######,   #######,   ,#######,      ##                                
            ,#'     '#,  ##    ##  ,#'     '#,    #''#        ,####,   ,####,        
            ##       ##  ##   ,#'  ##            #'  '#       #'       #'  '#        
            ##       ##  #######   ##           ,######,      #####,   #    #        
            '#,     ,#'  ##    ##  '#,     ,#' ,#      #,     #,   #   #,  ,#        
             '#######'   ##     ##  '#######'  #'      '#     '####' # '####'        



                #########################################################
                #                        -***-                          #
                #          Department of theory and spectroscopy        #
                #                                                       #
                #                      Frank Neese                      #
                #                                                       #
                #     Directorship, Architecture, Infrastructure        #
                #                    SHARK, DRIVERS                     #
                #        Core code/Algorithms in most modules           #
                #                                                       #
                #        Max Planck Institute fuer Kohlenforschung      #
                #                Kaiser Wilhelm Platz 1                 #
                #                 D-45470 Muelheim/Ruhr                 #
                #                      Germany                          #
                #                                                       #
                #                  All rights reserved                  #
                #                        -***-                          #
                #########################################################


                         Program Version 6.0.0  -   RELEASE  -


 With contributions from (in alphabetic order):
   Daniel Aravena         : Magnetic Suceptibility
   Michael Atanasov       : Ab Initio Ligand Field Theory (pilot matlab implementation)
   Alexander A. Auer      : GIAO ZORA, VPT2 properties, NMR spectrum
   Ute Becker             : All parallelization in ORCA, NUMFREQ, NUMCALC
   Giovanni Bistoni       : ED, misc. LED, open-shell LED, HFLD
   Martin Brehm           : Molecular dynamics
   Dmytro Bykov           : pre 5.0 version of the SCF Hessian
   Marcos Casanova-Páez   : Triplet and SCS-CIS(D). UHF-(DLPNO)-IP/EA/STEOM-CCSD. UHF-CVS-IP/STEOM-CCSD
   Vijay G. Chilkuri      : MRCI spin determinant printing, contributions to CSF-ICE
   Pauline Colinet        : FMM embedding
   Dipayan Datta          : RHF DLPNO-CCSD density
   Achintya Kumar Dutta   : EOM-CC, STEOM-CC
   Nicolas Foglia         : Exact transition moments, OPA infrastructure, MCD improvements
   Dmitry Ganyushin       : Spin-Orbit,Spin-Spin,Magnetic field MRCI
   Miquel Garcia          : C-PCM and meta-GGA Hessian, CCSD/C-PCM, Gaussian charge scheme
   Tiago L. C. Gouveia    : GS-ROHF, GS-ROCIS
   Yang Guo               : DLPNO-NEVPT2, F12-NEVPT2, CIM, IAO-localization
   Andreas Hansen         : Spin unrestricted coupled pair/coupled cluster methods
   Ingolf Harden          : AUTO-CI MPn and infrastructure 
   Benjamin Helmich-Paris : MC-RPA, TRAH-(SCF,CASSCF), AVAS, COSX integrals, SCF dyn. polar.
   Lee Huntington         : MR-EOM, pCC
   Robert Izsak           : Overlap fitted RIJCOSX, COSX-SCS-MP3, EOM
   Riya Kayal             : Wick's Theorem for AUTO-CI, AUTO-CI UHF-CCSDT
   Emily Kempfer          : AUTO-CI, RHF CISDT and CCSDT
   Christian Kollmar      : KDIIS, OOCD, Brueckner-CCSD(T), CCSD density, CASPT2, CASPT2-K, improved NEVPT2
   Axel Koslowski         : Symmetry handling
   Simone Kossmann        : Meta GGA functionals, TD-DFT gradient, OOMP2, (MP2 Hessian; deprecated post 5.0)
   Lucas Lang             : DCDCAS
   Marvin Lechner         : AUTO-CI (C++ implementation), FIC-MRCC
   Spencer Leger          : CASSCF response
   Dagmar Lenk            : GEPOL surface, SMD, ORCA-2-JSON
   Dimitrios Liakos       : Extrapolation schemes; Compound Job, initial MDCI parallelization
   Dimitrios Manganas     : Further ROCIS development; embedding schemes. LFT, Crystal Embedding
   Dimitrios Pantazis     : SARC Basis sets
   Anastasios Papadopoulos: AUTO-CI, single reference methods and gradients
   Taras Petrenko         : pre 6.0 DFT Hessian and TD-DFT gradient, (ASA, deprecated), ECA, 1-Electron XAS/XES, NRVS
   Peter Pinski           : DLPNO-MP2, DLPNO-MP2 Gradient
   Christoph Reimann      : Effective Core Potentials
   Marius Retegan         : Local ZFS, SOC
   Christoph Riplinger    : Optimizer, TS searches, QM/MM, DLPNO-CCSD(T), (RO)-DLPNO pert. Triples
   Michael Roemelt        : Original ROCIS implementation
   Masaaki Saitow         : Open-shell DLPNO-CCSD energy and density
   Barbara Sandhoefer     : DKH picture change effects
   Kantharuban Sivalingam : CASSCF convergence/infrastructure, NEVPT2 and variants, FIC-MRCI
   Bernardo de Souza      : ESD, SOC TD-DFT
   Georgi Stoychev        : AutoAux, RI-MP2 NMR, DLPNO-MP2 response, X2C
   Van Anh Tran           : RI-MP2 g-tensors
   Willem Van den Heuvel  : Paramagnetic NMR
   Zikuan Wang            : NOTCH, Electric field optimization 
   Frank Wennmohs         : Technical directorship and infrastructure
   Hang Xu                : AUTO-CI-Response properties 


 We gratefully acknowledge several colleagues who have allowed us to
 interface, adapt or use parts of their codes:
   Stefan Grimme, W. Hujo, H. Kruse, P. Pracht,  : VdW corrections, initial TS optimization,
                  C. Bannwarth, S. Ehlert,         DFT functionals, gCP, sTDA/sTD-DF
                  L. Wittmann, M. Mueller
   Ed Valeev, F. Pavosevic, A. Kumar             : LibInt (2-el integral package), F12 methods
   Garnet Chan, S. Sharma, J. Yang, R. Olivares  : DMRG
   Ulf Ekstrom                                   : XCFun DFT Library
   Mihaly Kallay                                 : mrcc  (arbitrary order and MRCC methods)
   Frank Weinhold                                : gennbo (NPA and NBO analysis)
   Simon Mueller                                 : openCOSMO-RS
   Christopher J. Cramer and Donald G. Truhlar   : smd solvation model
   Lars Goerigk                                  : TD-DFT with DH, B97 family of functionals
   V. Asgeirsson, H. Jonsson                     : NEB implementation
   FAccTs GmbH                                   : IRC, NEB, NEB-TS, DLPNO-Multilevel, CI-OPT
                                                   MM, QMMM, 2- and 3-layer-ONIOM, Crystal-QMMM,
                                                   LR-CPCM, SF, NACMEs, symmetry and pop. for TD-DFT,
                                                   nearIR, NL-DFT gradient (VV10), updates on ESD,
                                                   ML-optimized integration grids, MBIS, APM,
                                                   GOAT, DOCKER, SOLVATOR, interface openCOSMO-RS
   S Lehtola, MJT Oliveira, MAL Marques          : LibXC Library
   Liviu Ungur et al                             : ANISO software


 Your calculation uses the libint2 library for the computation of 2-el integrals
 For citations please refer to: http://libint.valeyev.net

 Your ORCA version has been built with support for libXC version: 6.2.2
 For citations please refer to: https://libxc.gitlab.io

 This ORCA versions uses:
   CBLAS   interface :  Fast vector & matrix operations
   LAPACKE interface :  Fast linear algebra routines
   SCALAPACK package :  Parallel linear algebra routines
   Shared memory     :  Shared parallel matrices
   BLAS/LAPACK       :  OpenBLAS 0.3.27  USE64BITINT DYNAMIC_ARCH NO_AFFINITY SkylakeX SINGLE_THREADED
        Core in use  :  SkylakeX
   Copyright (c) 2011-2014, The OpenBLAS Project


Warning: RI is on but no J-basis has been assigned. Assigning Def2/J (nothing to worry about!)
================================================================================

----- Orbital basis set information -----
Your calculation utilizes the basis: 6-31G*
   H-He, Li-Ne : W. J. Hehre, R. Ditchfield and J.A. Pople, J. Chem. Phys. 56, 2257 (1972).
                 Note: He and Ne are unpublished basis sets taken from the Gaussian program.
                 Note: Li and B from J. D. Dill and J. A. Pople, J. Chem. Phys. 62, 2921 (1975).
   Na - Ar     : M. M. Francl, W. J. Pietro, W. J. Hehre, J. S. Binkley, M. S. Gordon, 
                 D. J. DeFrees and J. A. Pople, J. Chem. Phys. 77, 3654 (1982).
   K - Zn      : V. A. Rassolov, J. A. Pople, M. A. Ratner, and T. L. Windus, J. Chem. Phys. 109, 1223 (1998).

----- AuxJ basis set information -----
Your calculation utilizes the auxiliary basis: def2/J
   F. Weigend, Phys. Chem. Chem. Phys. 8, 1057 (2006).

================================================================================
                                        WARNINGS
                       Please study these warnings very carefully!
================================================================================


================================================================================
                                       INPUT FILE
================================================================================
NAME = /home/nmrbox/aojoawo/Documents/ERDOS/inputs/CHEMBL3682567.inp
|  1> ! B3LYP 6-31G* SP
|  2> 
|  3> * xyz 0 1
|  4> C 0.4569 2.1999 1.0233
|  5> C -0.3696 1.8129 -0.1834
|  6> C -0.8052 0.4785 -0.3625
|  7> N -0.4763 -0.5445 0.5843
|  8> C 0.5348 -1.5470 0.2478
|  9> C 1.8959 -0.9106 0.2281
| 10> C 2.6526 -0.8171 1.4162
| 11> C 3.8798 -0.1379 1.4229
| 12> C 4.3300 0.4500 0.2395
| 13> C 3.5960 0.3706 -0.9152
| 14> C 2.3739 -0.3027 -0.9497
| 15> C 4.2390 1.0908 -2.0367
| 16> C 5.5464 1.6363 -1.4298
| 17> C 5.5761 1.2274 0.0559
| 18> S -1.4800 -0.7593 1.9823
| 19> O -0.6157 -1.0221 3.1840
| 20> O -2.2799 0.4878 2.2388
| 21> C -2.5752 -2.1062 1.6997
| 22> C -3.6721 -1.9417 0.8458
| 23> C -4.5358 -3.0113 0.5939
| 24> C -4.3103 -4.2650 1.1909
| 25> C -5.2199 -5.4015 0.9268
| 26> O -6.2162 -5.2590 0.1670
| 27> O -4.9834 -6.6413 1.5157
| 28> C -3.2021 -4.4250 2.0416
| 29> C -2.3396 -3.3534 2.2914
| 30> N -1.5221 0.1357 -1.4642
| 31> C -1.8569 1.0329 -2.4222
| 32> C -1.4560 2.3661 -2.3065
| 33> C -1.7946 3.2957 -3.3020
| 34> C -1.3856 4.6247 -3.1891
| 35> C -0.6369 5.0349 -2.0863
| 36> C -0.2933 4.1203 -1.0872
| 37> C -0.6992 2.7702 -1.1780
| 38> H 0.6173 1.3607 1.7277
| 39> H -0.0561 3.0072 1.5864
| 40> H 1.4565 2.5530 0.6925
| 41> H 0.5193 -2.3775 0.9865
| 42> H 0.3026 -1.9952 -0.7428
| 43> H 2.2838 -1.2543 2.3355
| 44> H 4.4593 -0.0598 2.3336
| 45> H 1.7961 -0.3328 -1.8652
| 46> H 3.5848 1.9206 -2.3818
| 47> H 4.4486 0.3909 -2.8742
| 48> H 6.4229 1.2057 -1.9619
| 49> H 5.5821 2.7437 -1.5252
| 50> H 6.4613 0.5928 0.2773
| 51> H 5.5687 2.1225 0.7145
| 52> H -3.8558 -0.9858 0.3712
| 53> H -5.3772 -2.8572 -0.0702
| 54> H -5.5997 -7.4259 1.3409
| 55> H -2.9984 -5.3786 2.5123
| 56> H -1.4866 -3.5005 2.9417
| 57> H -2.4326 0.7000 -3.2770
| 58> H -2.3733 2.9938 -4.1670
| 59> H -1.6482 5.3384 -3.9594
| 60> H -0.3206 6.0669 -2.0046
| 61> H 0.2900 4.4826 -0.2519
| 62> *
| 63> 
| 64>                          ****END OF INPUT****
================================================================================

                       ****************************
                       * Single Point Calculation *
                       ****************************

---------------------------------
CARTESIAN COORDINATES (ANGSTROEM)
---------------------------------
  C      0.456900    2.199900    1.023300
  C     -0.369600    1.812900   -0.183400
  C     -0.805200    0.478500   -0.362500
  N     -0.476300   -0.544500    0.584300
  C      0.534800   -1.547000    0.247800
  C      1.895900   -0.910600    0.228100
  C      2.652600   -0.817100    1.416200
  C      3.879800   -0.137900    1.422900
  C      4.330000    0.450000    0.239500
  C      3.596000    0.370600   -0.915200
  C      2.373900   -0.302700   -0.949700
  C      4.239000    1.090800   -2.036700
  C      5.546400    1.636300   -1.429800
  C      5.576100    1.227400    0.055900
  S     -1.480000   -0.759300    1.982300
  O     -0.615700   -1.022100    3.184000
  O     -2.279900    0.487800    2.238800
  C     -2.575200   -2.106200    1.699700
  C     -3.672100   -1.941700    0.845800
  C     -4.535800   -3.011300    0.593900
  C     -4.310300   -4.265000    1.190900
  C     -5.219900   -5.401500    0.926800
  O     -6.216200   -5.259000    0.167000
  O     -4.983400   -6.641300    1.515700
  C     -3.202100   -4.425000    2.041600
  C     -2.339600   -3.353400    2.291400
  N     -1.522100    0.135700   -1.464200
  C     -1.856900    1.032900   -2.422200
  C     -1.456000    2.366100   -2.306500
  C     -1.794600    3.295700   -3.302000
  C     -1.385600    4.624700   -3.189100
  C     -0.636900    5.034900   -2.086300
  C     -0.293300    4.120300   -1.087200
  C     -0.699200    2.770200   -1.178000
  H      0.617300    1.360700    1.727700
  H     -0.056100    3.007200    1.586400
  H      1.456500    2.553000    0.692500
  H      0.519300   -2.377500    0.986500
  H      0.302600   -1.995200   -0.742800
  H      2.283800   -1.254300    2.335500
  H      4.459300   -0.059800    2.333600
  H      1.796100   -0.332800   -1.865200
  H      3.584800    1.920600   -2.381800
  H      4.448600    0.390900   -2.874200
  H      6.422900    1.205700   -1.961900
  H      5.582100    2.743700   -1.525200
  H      6.461300    0.592800    0.277300
  H      5.568700    2.122500    0.714500
  H     -3.855800   -0.985800    0.371200
  H     -5.377200   -2.857200   -0.070200
  H     -5.599700   -7.425900    1.340900
  H     -2.998400   -5.378600    2.512300
  H     -1.486600   -3.500500    2.941700
  H     -2.432600    0.700000   -3.277000
  H     -2.373300    2.993800   -4.167000
  H     -1.648200    5.338400   -3.959400
  H     -0.320600    6.066900   -2.004600
  H      0.290000    4.482600   -0.251900

----------------------------
CARTESIAN COORDINATES (A.U.)
----------------------------
  NO LB      ZA    FRAG     MASS         X           Y           Z
   0 C     6.0000    0    12.011    0.863416    4.157209    1.933757
   1 C     6.0000    0    12.011   -0.698443    3.425885   -0.346576
   2 C     6.0000    0    12.011   -1.521607    0.904234   -0.685026
   3 N     7.0000    0    14.007   -0.900077   -1.028956    1.104167
   4 C     6.0000    0    12.011    1.010626   -2.923406    0.468274
   5 C     6.0000    0    12.011    3.582732   -1.720785    0.431047
   6 C     6.0000    0    12.011    5.012688   -1.544095    2.676230
   7 C     6.0000    0    12.011    7.331759   -0.260593    2.688891
   8 C     6.0000    0    12.011    8.182514    0.850377    0.452589
   9 C     6.0000    0    12.011    6.795455    0.700333   -1.729477
  10 C     6.0000    0    12.011    4.486021   -0.572020   -1.794673
  11 C     6.0000    0    12.011    8.010549    2.061313   -3.848805
  12 C     6.0000    0    12.011   10.481177    3.092159   -2.701930
  13 C     6.0000    0    12.011   10.537302    2.319450    0.105636
  14 S    16.0000    0    32.060   -2.796795   -1.434869    3.746004
  15 O     8.0000    0    15.999   -1.163504   -1.931489    6.016888
  16 O     8.0000    0    15.999   -4.308387    0.921808    4.230719
  17 C     6.0000    0    12.011   -4.866423   -3.980141    3.211968
  18 C     6.0000    0    12.011   -6.939263   -3.669281    1.598330
  19 C     6.0000    0    12.011   -8.571420   -5.690532    1.122308
  20 C     6.0000    0    12.011   -8.145287   -8.059682    2.250475
  21 C     6.0000    0    12.011   -9.864181  -10.207356    1.751398
  22 O     8.0000    0    15.999  -11.746916   -9.938070    0.315584
  23 O     8.0000    0    15.999   -9.417261  -12.550238    2.864258
  24 C     6.0000    0    12.011   -6.051092   -8.362038    3.858065
  25 C     6.0000    0    12.011   -4.421203   -6.337008    4.330118
  26 N     7.0000    0    14.007   -2.876352    0.256436   -2.766937
  27 C     6.0000    0    12.011   -3.509032    1.951898   -4.577295
  28 C     6.0000    0    12.011   -2.751441    4.471281   -4.358653
  29 C     6.0000    0    12.011   -3.391303    6.227970   -6.239876
  30 C     6.0000    0    12.011   -2.618405    8.739416   -6.026526
  31 C     6.0000    0    12.011   -1.203567    9.514582   -3.942536
  32 C     6.0000    0    12.011   -0.554257    7.786239   -2.054510
  33 C     6.0000    0    12.011   -1.321297    5.234919   -2.226097
  34 H     1.0000    0     1.008    1.166528    2.571350    3.264880
  35 H     1.0000    0     1.008   -0.106014    5.682784    2.997862
  36 H     1.0000    0     1.008    2.752386    4.824471    1.308635
  37 H     1.0000    0     1.008    0.981335   -4.492824    1.864215
  38 H     1.0000    0     1.008    0.571831   -3.770382   -1.403689
  39 H     1.0000    0     1.008    4.315757   -2.370283    4.413455
  40 H     1.0000    0     1.008    8.426856   -0.113006    4.409865
  41 H     1.0000    0     1.008    3.394137   -0.628901   -3.524717
  42 H     1.0000    0     1.008    6.774290    3.629408   -4.500950
  43 H     1.0000    0     1.008    8.406636    0.738694   -5.431451
  44 H     1.0000    0     1.008   12.137522    2.278443   -3.707454
  45 H     1.0000    0     1.008   10.548640    5.184842   -2.882210
  46 H     1.0000    0     1.008   12.210087    1.120230    0.524021
  47 H     1.0000    0     1.008   10.523318    4.010944    1.350209
  48 H     1.0000    0     1.008   -7.286406   -1.862892    0.701466
  49 H     1.0000    0     1.008  -10.161435   -5.399326   -0.132659
  50 H     1.0000    0     1.008  -10.581899  -14.032917    2.533934
  51 H     1.0000    0     1.008   -5.666155  -10.164081    4.747559
  52 H     1.0000    0     1.008   -2.809267   -6.614986    5.559007
  53 H     1.0000    0     1.008   -4.596948    1.322808   -6.192633
  54 H     1.0000    0     1.008   -4.484887    5.657462   -7.874489
  55 H     1.0000    0     1.008   -3.114647   10.088114   -7.482182
  56 H     1.0000    0     1.008   -0.605846   11.464779   -3.788145
  57 H     1.0000    0     1.008    0.548021    8.470886   -0.476022

--------------------------------
INTERNAL COORDINATES (ANGSTROEM)
--------------------------------
 C      0   0   0     0.000000000000     0.00000000     0.00000000
 C      1   0   0     1.512942874004     0.00000000     0.00000000
 C      2   1   0     1.415078630324   120.68499699     0.00000000
 N      3   2   1     1.432178218659   121.27915031   359.78382056
 C      4   3   2     1.463065859762   119.74220182   253.96818786
 C      5   4   3     1.502659728615   109.80371945    70.60766515
 C      6   5   4     1.411707742417   120.16805878    87.26771660
 C      7   6   5     1.402632300355   120.33583592   184.66824352
 C      8   7   6     1.395973499032   118.81892078     0.51442349
 C      9   8   7     1.370544581544   121.13818760   359.92319234
 C     10   9   8     1.395726173001   121.17836701   359.88121482
 C     10   9   8     1.479830831548   112.18545464   178.48839410
 C     12  10   9     1.541165993655   104.02967774     1.21968555
 C      9   8   7     1.480143550471   126.71598814   178.63362944
 S      4   3   2     1.734346196698   119.23855473    85.33205795
 O     15   4   3     1.503383257855   109.46653867   220.82639760
 O     15   4   3     1.503625841092   110.03850760   339.76952112
 C     15   4   3     1.758825008351   109.00744426    99.67844818
 C     18  15   4     1.399783936899   119.73390062   285.13171981
 C     19  18  15     1.397667864695   120.28189667   178.82844247
 C     20  19  18     1.406777501953   120.42843048   359.76894230
 C     21  20  19     1.479443550799   120.68339036   180.08083725
 O     22  21  20     1.261037660024   120.43107516   359.60017292
 O     22  21  20     1.392781210384   120.26084145   179.58228199
 C     21  20  19     1.406199747547   118.97694359   359.87110431
 C     25  21  20     1.398081846674   120.46820748     0.10865709
 N      3   2   1     1.358381514892   120.20397005   181.43398243
 C     27   3   2     1.354556340652   122.47242319   359.58937549
 C     28  27   3     1.396971560197   120.17310490     0.49963132
 C     29  28  27     1.403505030272   120.27337363   179.60152587
 C     30  29  28     1.395087241000   120.18781130   180.43326773
 C     31  30  29     1.394626677645   120.10435529     0.06272458
 C     32  31  30     1.397410079397   120.32164058   359.89799224
 C     33  32  31     1.412717048811   120.58969451   359.93144018
 H      1   2   3     1.107322970050   113.11899626   357.12429037
 H      1   2   3     1.109947701471   109.76682383   237.46886091
 H      1   2   3     1.110544195429   109.60073814   117.01627236
 H      5   4   3     1.111597134757   110.45394910   191.76920509
 H      5   4   3     1.111795143001   109.68319787   309.14793447
 H      7   6   5     1.082714075830   120.34832941     3.62297234
 H      8   7   6     1.082263530754   120.49375131   179.64890642
 H     11  10   9     1.083004662963   120.09596433   178.41887472
 H     12  10   9     1.111593311423   110.05146070   242.32256994
 H     12  10   9     1.111394808338   110.27638646   120.39776188
 H     13  12  10     1.112114661355   110.06781085   118.40101073
 H     13  12  10     1.112074822123   110.23772148   238.19563773
 H     14   9   8     1.111446876823   110.23749570    61.46585189
 H     14   9   8     1.111311266028   110.11575497   299.52540306
 H     19  18  15     1.082929203596   120.26543462   359.11836226
 H     20  19  18     1.082926396391   118.80043265   179.96754098
 H     24  22  21     1.012905666881   120.87969774   180.04105223
 H     25  21  20     1.082776588221   120.76076733   180.31222459
 H     26  25  21     1.082652991498   119.29034055   180.60529699
 H     28  27   3     1.083021671067   119.07783791   180.16970974
 H     30  29  28     1.083633840372   120.69700918     0.31913480
 H     31  30  29     1.082445629120   119.95987653   179.95611142
 H     32  31  30     1.082471514637   119.79936077   179.88781484
 H     33  32  31     1.081307666670   117.75226715   179.85960959

---------------------------
INTERNAL COORDINATES (A.U.)
---------------------------
 C      0   0   0     0.000000000000     0.00000000     0.00000000
 C      1   0   0     2.859047688136     0.00000000     0.00000000
 C      2   1   0     2.674111069277   120.68499699     0.00000000
 N      3   2   1     2.706424608232   121.27915031   359.78382056
 C      4   3   2     2.764793790839   119.74220182   253.96818786
 C      5   4   3     2.839615359554   109.80371945    70.60766515
 C      6   5   4     2.667741014304   120.16805878    87.26771660
 C      7   6   5     2.650590914263   120.33583592   184.66824352
 C      8   7   6     2.638007603383   118.81892078     0.51442349
 C      9   8   7     2.589953913448   121.13818760   359.92319234
 C     10   9   8     2.637540224918   121.17836701   359.88121482
 C     10   9   8     2.796474996159   112.18545464   178.48839410
 C     12  10   9     2.912381654921   104.02967774     1.21968555
 C      9   8   7     2.797065949279   126.71598814   178.63362944
 S      4   3   2     3.277439333167   119.23855473    85.33205795
 O     15   4   3     2.840982631669   109.46653867   220.82639760
 O     15   4   3     2.841441047551   110.03850760   339.76952112
 C     15   4   3     3.323697583275   109.00744426    99.67844818
 C     18  15   4     2.645208287401   119.73390062   285.13171981
 C     19  18  15     2.641209490455   120.28189667   178.82844247
 C     20  19  18     2.658424210052   120.42843048   359.76894230
 C     21  20  19     2.795743141606   120.68339036   180.08083725
 O     22  21  20     2.383015822007   120.43107516   359.60017292
 O     22  21  20     2.631975052098   120.26084145   179.58228199
 C     21  20  19     2.657332412452   118.97694359   359.87110431
 C     25  21  20     2.641991803021   120.46820748     0.10865709
 N      3   2   1     2.566969048527   120.20397005   181.43398243
 C     27   3   2     2.559740516798   122.47242319   359.58937549
 C     28  27   3     2.639893665650   120.17310490     0.49963132
 C     29  28  27     2.652240134796   120.27337363   179.60152587
 C     30  29  28     2.636332818417   120.18781130   180.43326773
 C     31  30  29     2.635462479810   120.10435529     0.06272458
 C     32  31  30     2.640722346841   120.32164058   359.89799224
 C     33  32  31     2.669648326973   120.58969451   359.93144018
 H      1   2   3     2.092537155194   113.11899626   357.12429037
 H      1   2   3     2.097497178755   109.76682383   237.46886091
 H      1   2   3     2.098624388976   109.60073814   117.01627236
 H      5   4   3     2.100614155942   110.45394910   191.76920509
 H      5   4   3     2.100988337295   109.68319787   309.14793447
 H      7   6   5     2.046033084660   120.34832941     3.62297234
 H      8   7   6     2.045181677856   120.49375131   179.64890642
 H     11  10   9     2.046582214760   120.09596433   178.41887472
 H     12  10   9     2.100606930888   110.05146070   242.32256994
 H     12  10   9     2.100231814420   110.27638646   120.39776188
 H     13  12  10     2.101592139479   110.06781085   118.40101073
 H     13  12  10     2.101516854242   110.23772148   238.19563773
 H     14   9   8     2.100330209598   110.23749570    61.46585189
 H     14   9   8     2.100073942334   110.11575497   299.52540306
 H     19  18  15     2.046439617221   120.26543462   359.11836226
 H     20  19  18     2.046434312373   118.80043265   179.96754098
 H     24  22  21     1.914114309902   120.87969774   180.04105223
 H     25  21  20     2.046151215960   120.76076733   180.31222459
 H     26  25  21     2.045917652002   119.29034055   180.60529699
 H     28  27   3     2.046614355418   119.07783791   180.16970974
 H     30  29  28     2.047771187753   120.69700918     0.31913480
 H     31  30  29     2.045525793896   119.95987653   179.95611142
 H     32  31  30     2.045574710434   119.79936077   179.88781484
 H     33  32  31     2.043375356516   117.75226715   179.85960959

---------------------
BASIS SET INFORMATION
---------------------
There are 5 groups of distinct atoms

 Group   1 Type C   : 10s4p1d contracted to 3s2p1d pattern {631/31/1}
 Group   2 Type N   : 10s4p1d contracted to 3s2p1d pattern {631/31/1}
 Group   3 Type S   : 16s10p1d contracted to 4s3p1d pattern {6631/631/1}
 Group   4 Type O   : 10s4p1d contracted to 3s2p1d pattern {631/31/1}
 Group   5 Type H   : 4s contracted to 2s pattern {31}

Atom   0C    basis set group =>   1
Atom   1C    basis set group =>   1
Atom   2C    basis set group =>   1
Atom   3N    basis set group =>   2
Atom   4C    basis set group =>   1
Atom   5C    basis set group =>   1
Atom   6C    basis set group =>   1
Atom   7C    basis set group =>   1
Atom   8C    basis set group =>   1
Atom   9C    basis set group =>   1
Atom  10C    basis set group =>   1
Atom  11C    basis set group =>   1
Atom  12C    basis set group =>   1
Atom  13C    basis set group =>   1
Atom  14S    basis set group =>   3
Atom  15O    basis set group =>   4
Atom  16O    basis set group =>   4
Atom  17C    basis set group =>   1
Atom  18C    basis set group =>   1
Atom  19C    basis set group =>   1
Atom  20C    basis set group =>   1
Atom  21C    basis set group =>   1
Atom  22O    basis set group =>   4
Atom  23O    basis set group =>   4
Atom  24C    basis set group =>   1
Atom  25C    basis set group =>   1
Atom  26N    basis set group =>   2
Atom  27C    basis set group =>   1
Atom  28C    basis set group =>   1
Atom  29C    basis set group =>   1
Atom  30C    basis set group =>   1
Atom  31C    basis set group =>   1
Atom  32C    basis set group =>   1
Atom  33C    basis set group =>   1
Atom  34H    basis set group =>   5
Atom  35H    basis set group =>   5
Atom  36H    basis set group =>   5
Atom  37H    basis set group =>   5
Atom  38H    basis set group =>   5
Atom  39H    basis set group =>   5
Atom  40H    basis set group =>   5
Atom  41H    basis set group =>   5
Atom  42H    basis set group =>   5
Atom  43H    basis set group =>   5
Atom  44H    basis set group =>   5
Atom  45H    basis set group =>   5
Atom  46H    basis set group =>   5
Atom  47H    basis set group =>   5
Atom  48H    basis set group =>   5
Atom  49H    basis set group =>   5
Atom  50H    basis set group =>   5
Atom  51H    basis set group =>   5
Atom  52H    basis set group =>   5
Atom  53H    basis set group =>   5
Atom  54H    basis set group =>   5
Atom  55H    basis set group =>   5
Atom  56H    basis set group =>   5
Atom  57H    basis set group =>   5
---------------------------------
AUXILIARY/J BASIS SET INFORMATION
---------------------------------
There are 5 groups of distinct atoms

 Group   1 Type C   : 12s5p4d2f1g contracted to 6s4p3d1f1g pattern {711111/2111/211/2/1}
 Group   2 Type N   : 12s5p4d2f1g contracted to 6s4p3d1f1g pattern {711111/2111/211/2/1}
 Group   3 Type S   : 14s5p5d2f1g contracted to 8s4p3d1f1g pattern {71111111/2111/311/2/1}
 Group   4 Type O   : 12s5p4d2f1g contracted to 6s4p3d1f1g pattern {711111/2111/211/2/1}
 Group   5 Type H   : 5s2p1d contracted to 3s1p1d pattern {311/2/1}

Atom   0C    basis set group =>   1
Atom   1C    basis set group =>   1
Atom   2C    basis set group =>   1
Atom   3N    basis set group =>   2
Atom   4C    basis set group =>   1
Atom   5C    basis set group =>   1
Atom   6C    basis set group =>   1
Atom   7C    basis set group =>   1
Atom   8C    basis set group =>   1
Atom   9C    basis set group =>   1
Atom  10C    basis set group =>   1
Atom  11C    basis set group =>   1
Atom  12C    basis set group =>   1
Atom  13C    basis set group =>   1
Atom  14S    basis set group =>   3
Atom  15O    basis set group =>   4
Atom  16O    basis set group =>   4
Atom  17C    basis set group =>   1
Atom  18C    basis set group =>   1
Atom  19C    basis set group =>   1
Atom  20C    basis set group =>   1
Atom  21C    basis set group =>   1
Atom  22O    basis set group =>   4
Atom  23O    basis set group =>   4
Atom  24C    basis set group =>   1
Atom  25C    basis set group =>   1
Atom  26N    basis set group =>   2
Atom  27C    basis set group =>   1
Atom  28C    basis set group =>   1
Atom  29C    basis set group =>   1
Atom  30C    basis set group =>   1
Atom  31C    basis set group =>   1
Atom  32C    basis set group =>   1
Atom  33C    basis set group =>   1
Atom  34H    basis set group =>   5
Atom  35H    basis set group =>   5
Atom  36H    basis set group =>   5
Atom  37H    basis set group =>   5
Atom  38H    basis set group =>   5
Atom  39H    basis set group =>   5
Atom  40H    basis set group =>   5
Atom  41H    basis set group =>   5
Atom  42H    basis set group =>   5
Atom  43H    basis set group =>   5
Atom  44H    basis set group =>   5
Atom  45H    basis set group =>   5
Atom  46H    basis set group =>   5
Atom  47H    basis set group =>   5
Atom  48H    basis set group =>   5
Atom  49H    basis set group =>   5
Atom  50H    basis set group =>   5
Atom  51H    basis set group =>   5
Atom  52H    basis set group =>   5
Atom  53H    basis set group =>   5
Atom  54H    basis set group =>   5
Atom  55H    basis set group =>   5
Atom  56H    basis set group =>   5
Atom  57H    basis set group =>   5
------------------------------------------------------------------------------
                             ORCA STARTUP CALCULATIONS
                           -- RI-GTO INTEGRALS CHOSEN --
------------------------------------------------------------------------------
------------------------------------------------------------------------------
                   ___                                                        
                  /   \      - P O W E R E D   B Y -                         
                 /     \                                                     
                 |  |  |   _    _      __       _____    __    __             
                 |  |  |  | |  | |    /  \     |  _  \  |  |  /  |          
                  \  \/   | |  | |   /    \    | | | |  |  | /  /          
                 / \  \   | |__| |  /  /\  \   | |_| |  |  |/  /          
                |  |  |   |  __  | /  /__\  \  |    /   |      \           
                |  |  |   | |  | | |   __   |  |    \   |  |\   \          
                \     /   | |  | | |  |  |  |  | |\  \  |  | \   \       
                 \___/    |_|  |_| |__|  |__|  |_| \__\ |__|  \__/        
                                                                              
                      - O R C A' S   B I G   F R I E N D -                    
                                      &                                       
                       - I N T E G R A L  F E E D E R -                       
                                                                              
 v1 FN, 2020, v2 2021, v3 2022-2024                                           
------------------------------------------------------------------------------


----------------------
SHARK INTEGRAL PACKAGE
----------------------

Number of atoms                             ...     58
Number of basis functions                   ...    528
Number of shells                            ...    254
Maximum angular momentum                    ...      2
Integral batch strategy                     ... SHARK/LIBINT Hybrid
RI-J (if used) integral strategy            ... SPLIT-RIJ (Revised 2003 algorithm where possible)
Printlevel                                  ...      1
Contraction scheme used                     ... SEGMENTED contraction
Prescreening option                         ... SCHWARTZ
   Thresh                                   ... 1.000e-10
   Tcut                                     ... 1.000e-11
   Tpresel                                  ... 1.000e-11 
Coulomb Range Separation                    ... NOT USED
Exchange Range Separation                   ... NOT USED
Multipole approximations                    ... NOT USED
Finite Nucleus Model                        ... NOT USED
CABS basis                                  ... NOT available
Auxiliary Coulomb fitting basis             ... AVAILABLE
   # of basis functions in Aux-J            ...   1932
   # of shells in Aux-J                     ...    632
   Maximum angular momentum in Aux-J        ...      4
Auxiliary J/K fitting basis                 ... NOT available
Auxiliary Correlation fitting basis         ... NOT available
Auxiliary 'external' fitting basis          ... NOT available

Checking pre-screening integrals            ... done (  0.0 sec) Dimension = 254
Check shell pair data                       ... done (  0.0 sec)
Shell pair information
Shell pair cut-off parameter TPreSel        ...   1.0e-11
Total number of shell pairs                 ...     32385
Shell pairs after pre-screening             ...     18311
Total number of primitive shell pairs       ...    192087
Primitive shell pairs kept                  ...     55578
          la=0 lb=0:   6061 shell pairs
          la=1 lb=0:   6475 shell pairs
          la=1 lb=1:   1746 shell pairs
          la=2 lb=0:   2412 shell pairs
          la=2 lb=1:   1372 shell pairs
          la=2 lb=2:    245 shell pairs

Calculating one electron integrals          ... done (  0.2 sec)
Calculating RI/J V-Matrix + Cholesky decomp.... done (  0.5 sec)
Calculating Nuclear repulsion               ... done (  0.0 sec) ENN=   3640.382508423157 Eh

Diagonalization of the overlap matrix:
Smallest eigenvalue                        ... 3.534e-04
Time for diagonalization                   ...    0.042 sec
Threshold for overlap eigenvalues          ... 1.000e-07
Number of eigenvalues below threshold      ... 0
Time for construction of square roots      ...    0.033 sec
Total time needed                          ...    0.084 sec

-------------------
DFT GRID GENERATION
-------------------

General Integration Accuracy     IntAcc      ... 4.388
Radial Grid Type                 RadialGrid  ... OptM3 with GC (2021)
Angular Grid (max. ang.)         AngularGrid ... 4 (Lebedev-302)
Angular grid pruning method      GridPruning ... 4 (adaptive)
Weight generation scheme         WeightScheme... mBecke (2022)
Basis function cutoff            BFCut       ... 1.0000e-10
Integration weight cutoff        WCut        ... 1.0000e-14
Partially contracted basis set               ... off
Rotationally invariant grid construction     ... off
Angular grids for H and He will be reduced by one unit

Total number of grid points                  ...   279980
Total number of batches                      ...     4407
Average number of points per batch           ...       63
Average number of grid points per atom       ...     4827

--------------------
COSX GRID GENERATION
--------------------

GRIDX 1
-------
General Integration Accuracy     IntAcc      ... 3.816
Radial Grid Type                 RadialGrid  ... OptM3 with GC (2021)
Angular Grid (max. ang.)         AngularGrid ... 1 (Lebedev-50)
Angular grid pruning method      GridPruning ... 4 (adaptive)
Weight generation scheme         WeightScheme... mBecke (2022)
Basis function cutoff            BFCut       ... 1.0000e-10
Integration weight cutoff        WCut        ... 1.0000e-14
Partially contracted basis set               ... on
Rotationally invariant grid construction     ... off
Angular grids for H and He will be reduced by one unit

Total number of grid points                  ...    36482
Total number of batches                      ...      317
Average number of points per batch           ...      115
Average number of grid points per atom       ...      629
UseSFitting                                  ... on

GRIDX 2
-------
General Integration Accuracy     IntAcc      ... 4.020
Radial Grid Type                 RadialGrid  ... OptM3 with GC (2021)
Angular Grid (max. ang.)         AngularGrid ... 2 (Lebedev-110)
Angular grid pruning method      GridPruning ... 4 (adaptive)
Weight generation scheme         WeightScheme... mBecke (2022)
Basis function cutoff            BFCut       ... 1.0000e-10
Integration weight cutoff        WCut        ... 1.0000e-14
Partially contracted basis set               ... on
Rotationally invariant grid construction     ... off
Angular grids for H and He will be reduced by one unit

Total number of grid points                  ...    76815
Total number of batches                      ...      632
Average number of points per batch           ...      121
Average number of grid points per atom       ...     1324
UseSFitting                                  ... on

GRIDX 3
-------
General Integration Accuracy     IntAcc      ... 4.338
Radial Grid Type                 RadialGrid  ... OptM3 with GC (2021)
Angular Grid (max. ang.)         AngularGrid ... 3 (Lebedev-194)
Angular grid pruning method      GridPruning ... 4 (adaptive)
Weight generation scheme         WeightScheme... mBecke (2022)
Basis function cutoff            BFCut       ... 1.0000e-10
Integration weight cutoff        WCut        ... 1.0000e-14
Partially contracted basis set               ... on
Rotationally invariant grid construction     ... off
Angular grids for H and He will be reduced by one unit

Total number of grid points                  ...   168248
Total number of batches                      ...     1344
Average number of points per batch           ...      125
Average number of grid points per atom       ...     2901
UseSFitting                                  ... on
Initializing property integral containers    ... done (  0.0 sec)

SHARK setup successfully completed in  13.6 seconds

Maximum memory used throughout the entire STARTUP-calculation: 123.0 MB
-------------------------------------------------------------------------------
                                 ORCA GUESS
                   Start orbitals & Density for SCF / CASSCF
-------------------------------------------------------------------------------

------------
SCF SETTINGS
------------
Hamiltonian:
 Density Functional     Method          .... DFT(GTOs)
 Exchange Functional    Exchange        .... B88
   X-Alpha parameter    XAlpha          ....  0.666667
   Becke's b parameter  XBeta           ....  0.004200
 Correlation Functional Correlation     .... LYP
 LDA part of GGA corr.  LDAOpt          .... VWN-5
 Gradients option       PostSCFGGA      .... off
 Hybrid DFT is turned on
   Fraction HF Exchange ScalHFX         ....  0.200000
   Scaling of DF-GGA-X  ScalDFX         ....  0.720000
   Scaling of DF-GGA-C  ScalDFC         ....  0.810000
   Scaling of DF-LDA-C  ScalLDAC        ....  1.000000
   Perturbative correction              ....  0.000000
   NL short-range parameter             ....  4.800000
 RI-approximation to the Coulomb term is turned on
   Number of AuxJ basis functions       .... 1932
   RIJ-COSX (HFX calculated with COS-X)).... on


General Settings:
 Integral files         IntName         .... /home/nmrbox/aojoawo/Documents/ERDOS/inputs/CHEMBL3682567
 Hartree-Fock type      HFTyp           .... RHF
 Total Charge           Charge          ....    0
 Multiplicity           Mult            ....    1
 Number of Electrons    NEL             ....  248
 Basis Dimension        Dim             ....  528
 Nuclear Repulsion      ENuc            ....   3640.3825084232 Eh

Convergence Acceleration:
 AO-DIIS                CNVDIIS         .... on
   Start iteration      DIISMaxIt       ....    12
   Startup error        DIISStart       ....  0.200000
   # of expansion vecs  DIISMaxEq       ....     5
   Bias factor          DIISBfac        ....   1.050
   Max. coefficient     DIISMaxC        ....  10.000
 MO-DIIS                CNVKDIIS        .... off
 Trust-Rad. Augm. Hess. CNVTRAH         .... auto
   Auto Start mean grad. ratio tolernc. ....  1.125000
   Auto Start start iteration           ....    50
   Auto Start num. interpolation iter.  ....    10
   Max. Number of Micro iterations      ....    24
   Max. Number of Macro iterations      .... Maxiter - #DIIS iter
   Number of Davidson start vectors     ....     2
   Converg. threshold    (grad. norm)   ....   5.000e-05
   Grad. Scal. Fac. for Micro threshold ....   0.100
   Minimum threshold for Micro iter.    ....   1.000e-02
   NR start threshold (gradient norm)   ....   1.000e-04
   Initial trust radius                 ....   0.400
   Minimum AH scaling param. (alpha)    ....   1.000
   Maximum AH scaling param. (alpha)    .... 1000.000
   Quad. conv. algorithm                .... NR
   White noise on init. David. guess    .... on
   Maximum white noise                  ....   0.010
   Pseudo random numbers                .... off
   Inactive MOs                         .... canonical
   Orbital update algorithm             .... Taylor
   Preconditioner                       .... Diag
   Full preconditioner red. dimension   ....   250
 SOSCF                  CNVSOSCF        .... on
   Start iteration      SOSCFMaxIt      ....   150
   Startup grad/error   SOSCFStart      ....  0.003300
   Hessian update       SOSCFHessUp     .... L-BFGS
 Level Shifting         CNVShift        .... on
   Level shift para.    LevelShift      ....    0.2500
   Turn off err/grad.   ShiftErr        ....    0.0010
 Zerner damping         CNVZerner       .... off
 Static damping         CNVDamp         .... on
   Fraction old density DampFac         ....    0.7000
   Max. Damping (<1)    DampMax         ....    0.9800
   Min. Damping (>=0)   DampMin         ....    0.0000
   Turn off err/grad.   DampErr         ....    0.1000

SCF Procedure:
 Maximum # iterations   MaxIter         ....   125
 SCF integral mode      SCFMode         .... Direct
   Integral package                     .... SHARK and LIBINT hybrid scheme
 Reset frequency        DirectResetFreq ....    20
 Integral Threshold     Thresh          ....  1.000e-10 Eh
 Primitive CutOff       TCut            ....  1.000e-11 Eh

Convergence Tolerance:
 Convergence Check Mode ConvCheckMode   .... Total+1el-Energy
 Convergence forced     ConvForced      .... 0
 Energy Change          TolE            ....  1.000e-06 Eh
 1-El. energy change                    ....  1.000e-03 Eh
 Orbital Gradient       TolG            ....  5.000e-05
 Orbital Rotation angle TolX            ....  5.000e-05
 DIIS Error             TolErr          ....  1.000e-06

------------------------------
INITIAL GUESS: MODEL POTENTIAL
------------------------------
Loading Hartree-Fock densities                     ... done
Calculating cut-offs                               ... done
Initializing the effective Hamiltonian             ... done
Setting up the integral package (SHARK)            ... done
Starting the Coulomb interaction                   ... done (   3.7 sec)
Making the grid                                    ... done (   1.6 sec)
Mapping shells                                     ... done
Starting the XC term evaluation                    ... done (   1.2 sec)
  promolecular density results
     # of electrons  =    247.991572309
     EX              =   -216.973963438
     EC              =     -8.594764019
     EX+EC           =   -225.568727457
Transforming the Hamiltonian                       ... done (   0.0 sec)
Diagonalizing the Hamiltonian                      ... done (   0.1 sec)
Back transforming the eigenvectors                 ... done (   0.0 sec)
Now organizing SCF variables                       ... done
                      ------------------
                      INITIAL GUESS DONE (   6.6 sec)
                      ------------------
             **** ENERGY FILE WAS UPDATED (/home/nmrbox/aojoawo/Documents/ERDOS/inputs/CHEMBL3682567.en.tmp) ****
Finished Guess after   6.9 sec
Maximum memory used throughout the entire GUESS-calculation: 67.4 MB

-------------------------------------------------------------------------------------------
                                      ORCA LEAN-SCF
                              memory conserving SCF solver
-------------------------------------------------------------------------------------------

----------------------------------------D-I-I-S--------------------------------------------
Iteration    Energy (Eh)           Delta-E    RMSDP     MaxDP     DIISErr   Damp  Time(sec)
-------------------------------------------------------------------------------------------
               ***  Starting incremental Fock matrix formation  ***
    1    -1849.9121578955482619     0.00e+00  2.48e-03  1.87e-01  2.93e-01  0.700  71.2
    2    -1850.3772610903561144    -4.65e-01  1.53e-03  7.75e-02  9.74e-02  0.700  31.9
                               ***Turning on AO-DIIS***
    3    -1850.5404771988332868    -1.63e-01  6.26e-04  1.59e-02  3.41e-02  0.700  31.0
    4    -1850.6474336518303971    -1.07e-01  1.10e-03  3.33e-02  1.53e-02  0.000  28.6
    5    -1850.8860504170761487    -2.39e-01  2.41e-04  8.66e-03  6.50e-03  0.000  30.2
                              *** Initializing SOSCF ***
---------------------------------------S-O-S-C-F--------------------------------------
Iteration    Energy (Eh)           Delta-E    RMSDP     MaxDP     MaxGrad    Time(sec)
--------------------------------------------------------------------------------------
    6    -1850.8877674591030882    -1.72e-03  7.86e-05  2.97e-03  2.55e-03    25.9
               *** Restarting incremental Fock matrix formation ***
    7    -1850.8878451473265159    -7.77e-05  6.33e-05  3.01e-03  4.72e-04    72.1
    8    -1850.8877967017988340     4.84e-05  3.93e-05  2.06e-03  1.01e-03    40.4
    9    -1850.8878688309487188    -7.21e-05  1.49e-05  7.73e-04  1.51e-04    36.6
   10    -1850.8878653681567812     3.46e-06  9.65e-06  4.63e-04  2.95e-04    30.5
   11    -1850.8878701588137119    -4.79e-06  2.67e-06  8.71e-05  3.05e-05    28.5
   12    -1850.8878701877119966    -2.89e-08  1.62e-06  6.22e-05  4.57e-05    21.8
                 **** Energy Check signals convergence ****

               *****************************************************
               *                     SUCCESS                       *
               *           SCF CONVERGED AFTER  12 CYCLES          *
               *****************************************************

Recomputing exchange energy using gridx3       ... done (  125.568 sec)
Old exchange energy                            :    -43.955149568 Eh
New exchange energy                            :    -43.955194170 Eh
Exchange energy change after final integration :     -0.000044602 Eh
Total energy after final integration           :  -1850.887914790 Eh
             **** ENERGY FILE WAS UPDATED (/home/nmrbox/aojoawo/Documents/ERDOS/inputs/CHEMBL3682567.en.tmp) ****

----------------
TOTAL SCF ENERGY
----------------

Total Energy       :      -1850.88791478950611 Eh          -50365.22068 eV

Components:
Nuclear Repulsion  :       3640.38250842315665 Eh           99059.84416 eV
Electronic Energy  :      -5491.27037861086865 Eh         -149425.06363 eV
One Electron Energy:      -9768.96923506396161 Eh         -265827.16728 eV
Two Electron Energy:       4277.69885645309296 Eh          116402.10365 eV

Virial components:
Potential Energy   :      -3691.60725977396760 Eh         -100453.74051 eV
Kinetic Energy     :       1840.71934498446149 Eh           50088.51983 eV
Virial Ratio       :          2.00552423694180

DFT components:
N(Alpha)           :      123.999869050336 electrons
N(Beta)            :      123.999869050336 electrons
N(Total)           :      247.999738100672 electrons
E(X)               :     -174.619882779118 Eh       
E(C)               :      -10.107233176196 Eh       
E(XC)              :     -184.727115955315 Eh       

---------------
SCF CONVERGENCE
---------------

  Last Energy change         ...    2.8898e-08  Tolerance :   1.0000e-06
  Last MAX-Density change    ...    6.2178e-05  Tolerance :   1.0000e-05
  Last RMS-Density change    ...    1.6211e-06  Tolerance :   1.0000e-06
  Last DIIS Error            ...    2.5493e-03  Tolerance :   1.0000e-06
  Last Orbital Gradient      ...    4.5700e-05  Tolerance :   5.0000e-05
  Last Orbital Rotation      ...    6.3111e-05  Tolerance :   5.0000e-05


----------------
ORBITAL ENERGIES
----------------

  NO   OCC          E(Eh)            E(eV) 
   0   2.0000     -89.092421     -2424.3280 
   1   2.0000     -19.192378      -522.2511 
   2   2.0000     -19.133548      -520.6503 
   3   2.0000     -19.123537      -520.3779 
   4   2.0000     -19.122033      -520.3370 
   5   2.0000     -14.364675      -390.8827 
   6   2.0000     -14.330171      -389.9438 
   7   2.0000     -10.330914      -281.1185 
   8   2.0000     -10.253573      -279.0139 
   9   2.0000     -10.235374      -278.5187 
  10   2.0000     -10.226048      -278.2649 
  11   2.0000     -10.224839      -278.2320 
  12   2.0000     -10.222711      -278.1741 
  13   2.0000     -10.213995      -277.9369 
  14   2.0000     -10.213118      -277.9131 
  15   2.0000     -10.211663      -277.8735 
  16   2.0000     -10.211040      -277.8565 
  17   2.0000     -10.205856      -277.7155 
  18   2.0000     -10.203272      -277.6452 
  19   2.0000     -10.198687      -277.5204 
  20   2.0000     -10.196339      -277.4565 
  21   2.0000     -10.196075      -277.4493 
  22   2.0000     -10.194755      -277.4134 
  23   2.0000     -10.193916      -277.3905 
  24   2.0000     -10.184954      -277.1467 
  25   2.0000     -10.175605      -276.8923 
  26   2.0000     -10.175492      -276.8892 
  27   2.0000     -10.175320      -276.8845 
  28   2.0000     -10.175010      -276.8761 
  29   2.0000     -10.174998      -276.8758 
  30   2.0000     -10.174258      -276.8556 
  31   2.0000     -10.172624      -276.8112 
  32   2.0000     -10.172014      -276.7946 
  33   2.0000     -10.168301      -276.6935 
  34   2.0000      -8.128206      -221.1797 
  35   2.0000      -6.093147      -165.8030 
  36   2.0000      -6.091335      -165.7536 
  37   2.0000      -6.090838      -165.7401 
  38   2.0000      -1.079742       -29.3813 
  39   2.0000      -1.076729       -29.2993 
  40   2.0000      -0.990801       -26.9611 
  41   2.0000      -0.960308       -26.1313 
  42   2.0000      -0.957535       -26.0559 
  43   2.0000      -0.910522       -24.7766 
  44   2.0000      -0.884028       -24.0556 
  45   2.0000      -0.868720       -23.6391 
  46   2.0000      -0.862058       -23.4578 
  47   2.0000      -0.811176       -22.0732 
  48   2.0000      -0.804785       -21.8993 
  49   2.0000      -0.797973       -21.7140 
  50   2.0000      -0.774060       -21.0632 
  51   2.0000      -0.770114       -20.9559 
  52   2.0000      -0.756522       -20.5860 
  53   2.0000      -0.742368       -20.2009 
  54   2.0000      -0.731781       -19.9128 
  55   2.0000      -0.706463       -19.2238 
  56   2.0000      -0.694665       -18.9028 
  57   2.0000      -0.688107       -18.7243 
  58   2.0000      -0.666664       -18.1408 
  59   2.0000      -0.649268       -17.6675 
  60   2.0000      -0.641570       -17.4580 
  61   2.0000      -0.632588       -17.2136 
  62   2.0000      -0.613212       -16.6863 
  63   2.0000      -0.603365       -16.4184 
  64   2.0000      -0.591942       -16.1076 
  65   2.0000      -0.588565       -16.0157 
  66   2.0000      -0.573123       -15.5955 
  67   2.0000      -0.557969       -15.1831 
  68   2.0000      -0.554253       -15.0820 
  69   2.0000      -0.535763       -14.5789 
  70   2.0000      -0.529326       -14.4037 
  71   2.0000      -0.509389       -13.8612 
  72   2.0000      -0.499052       -13.5799 
  73   2.0000      -0.492558       -13.4032 
  74   2.0000      -0.483446       -13.1552 
  75   2.0000      -0.477510       -12.9937 
  76   2.0000      -0.474606       -12.9147 
  77   2.0000      -0.471530       -12.8310 
  78   2.0000      -0.466717       -12.7000 
  79   2.0000      -0.463703       -12.6180 
  80   2.0000      -0.455959       -12.4073 
  81   2.0000      -0.446663       -12.1543 
  82   2.0000      -0.445224       -12.1152 
  83   2.0000      -0.443060       -12.0563 
  84   2.0000      -0.441390       -12.0108 
  85   2.0000      -0.437605       -11.9078 
  86   2.0000      -0.428103       -11.6493 
  87   2.0000      -0.423622       -11.5273 
  88   2.0000      -0.417621       -11.3641 
  89   2.0000      -0.412470       -11.2239 
  90   2.0000      -0.408316       -11.1108 
  91   2.0000      -0.406354       -11.0575 
  92   2.0000      -0.405458       -11.0331 
  93   2.0000      -0.398542       -10.8449 
  94   2.0000      -0.391812       -10.6617 
  95   2.0000      -0.388710       -10.5773 
  96   2.0000      -0.382921       -10.4198 
  97   2.0000      -0.380394       -10.3510 
  98   2.0000      -0.374847       -10.2001 
  99   2.0000      -0.364129        -9.9084 
 100   2.0000      -0.363002        -9.8778 
 101   2.0000      -0.361909        -9.8480 
 102   2.0000      -0.351973        -9.5777 
 103   2.0000      -0.348212        -9.4753 
 104   2.0000      -0.343833        -9.3562 
 105   2.0000      -0.340801        -9.2737 
 106   2.0000      -0.335895        -9.1402 
 107   2.0000      -0.326319        -8.8796 
 108   2.0000      -0.323600        -8.8056 
 109   2.0000      -0.317257        -8.6330 
 110   2.0000      -0.316072        -8.6008 
 111   2.0000      -0.302833        -8.2405 
 112   2.0000      -0.294855        -8.0234 
 113   2.0000      -0.285956        -7.7813 
 114   2.0000      -0.278734        -7.5847 
 115   2.0000      -0.273229        -7.4349 
 116   2.0000      -0.272229        -7.4077 
 117   2.0000      -0.269957        -7.3459 
 118   2.0000      -0.263868        -7.1802 
 119   2.0000      -0.252875        -6.8811 
 120   2.0000      -0.248116        -6.7516 
 121   2.0000      -0.238291        -6.4842 
 122   2.0000      -0.225849        -6.1457 
 123   2.0000      -0.219764        -5.9801 
 124   0.0000      -0.077312        -2.1038 
 125   0.0000      -0.058679        -1.5967 
 126   0.0000      -0.030569        -0.8318 
 127   0.0000      -0.024201        -0.6585 
 128   0.0000      -0.004719        -0.1284 
 129   0.0000       0.005187         0.1411 
 130   0.0000       0.019163         0.5214 
 131   0.0000       0.025266         0.6875 
 132   0.0000       0.042739         1.1630 
 133   0.0000       0.050257         1.3676 
 134   0.0000       0.059134         1.6091 
*Only the first 10 virtual orbitals were printed.

                    ********************************
                    * MULLIKEN POPULATION ANALYSIS *
                    ********************************

-----------------------
MULLIKEN ATOMIC CHARGES
-----------------------
   0 C :   -0.540887
   1 C :    0.136486
   2 C :    0.303831
   3 N :   -0.604580
   4 C :   -0.240508
   5 C :    0.159084
   6 C :   -0.178043
   7 C :   -0.184236
   8 C :    0.131552
   9 C :    0.128973
  10 C :   -0.232811
  11 C :   -0.348001
  12 C :   -0.282230
  13 C :   -0.347526
  14 S :    1.223242
  15 O :   -0.557346
  16 O :   -0.550095
  17 C :   -0.121280
  18 C :   -0.132952
  19 C :   -0.142103
  20 C :    0.082675
  21 C :    0.527245
  22 O :   -0.446003
  23 O :   -0.624251
  24 C :   -0.146492
  25 C :   -0.153277
  26 N :   -0.400122
  27 C :   -0.061751
  28 C :    0.139831
  29 C :   -0.204295
  30 C :   -0.125960
  31 C :   -0.121453
  32 C :   -0.194970
  33 C :    0.114560
  34 H :    0.203607
  35 H :    0.167087
  36 H :    0.156563
  37 H :    0.168629
  38 H :    0.169262
  39 H :    0.148221
  40 H :    0.124847
  41 H :    0.127297
  42 H :    0.149822
  43 H :    0.148283
  44 H :    0.140800
  45 H :    0.138959
  46 H :    0.149038
  47 H :    0.148702
  48 H :    0.186544
  49 H :    0.178965
  50 H :    0.432904
  51 H :    0.170262
  52 H :    0.180780
  53 H :    0.149573
  54 H :    0.137578
  55 H :    0.135488
  56 H :    0.137343
  57 H :    0.143139
Sum of atomic charges:    0.0000000

--------------------------------
MULLIKEN REDUCED ORBITAL CHARGES
--------------------------------
  0 C s       :     3.318247  s :     3.318247
      pz      :     1.034716  p :     3.188760
      px      :     1.035167
      py      :     1.118877
      dz2     :     0.004520  d :     0.033880
      dxz     :     0.007564
      dyz     :     0.010041
      dx2y2   :     0.005977
      dxy     :     0.005778

  1 C s       :     3.180792  s :     3.180792
      pz      :     0.874821  p :     2.642621
      px      :     0.894528
      py      :     0.873271
      dz2     :     0.008714  d :     0.040101
      dxz     :     0.005765
      dyz     :     0.010892
      dx2y2   :     0.007039
      dxy     :     0.007691

  2 C s       :     3.047411  s :     3.047411
      pz      :     0.762300  p :     2.575385
      px      :     0.958982
      py      :     0.854104
      dz2     :     0.016052  d :     0.073373
      dxz     :     0.011925
      dyz     :     0.021729
      dx2y2   :     0.012252
      dxy     :     0.011415

  3 N s       :     3.600414  s :     3.600414
      pz      :     1.285300  p :     3.970205
      px      :     1.347975
      py      :     1.336930
      dz2     :     0.006497  d :     0.033961
      dxz     :     0.007912
      dyz     :     0.006980
      dx2y2   :     0.005810
      dxy     :     0.006761

  4 C s       :     3.253203  s :     3.253203
      pz      :     1.096991  p :     2.931772
      px      :     0.897904
      py      :     0.936877
      dz2     :     0.009357  d :     0.055533
      dxz     :     0.005670
      dyz     :     0.013516
      dx2y2   :     0.013059
      dxy     :     0.013930

  5 C s       :     3.125874  s :     3.125874
      pz      :     0.870216  p :     2.675308
      px      :     0.861802
      py      :     0.943289
      dz2     :     0.010254  d :     0.039734
      dxz     :     0.010922
      dyz     :     0.007777
      dx2y2   :     0.005155
      dxy     :     0.005626

  6 C s       :     3.214489  s :     3.214489
      pz      :     0.974084  p :     2.927819
      px      :     0.963273
      py      :     0.990463
      dz2     :     0.008642  d :     0.035735
      dxz     :     0.009898
      dyz     :     0.006599
      dx2y2   :     0.005098
      dxy     :     0.005498

  7 C s       :     3.210852  s :     3.210852
      pz      :     0.983799  p :     2.937288
      px      :     0.965253
      py      :     0.988236
      dz2     :     0.008958  d :     0.036096
      dxz     :     0.011768
      dyz     :     0.005034
      dx2y2   :     0.005567
      dxy     :     0.004769

  8 C s       :     3.120231  s :     3.120231
      pz      :     0.889148  p :     2.704533
      px      :     0.889136
      py      :     0.926249
      dz2     :     0.010969  d :     0.043684
      dxz     :     0.011949
      dyz     :     0.008352
      dx2y2   :     0.005935
      dxy     :     0.006481

  9 C s       :     3.123333  s :     3.123333
      pz      :     0.890506  p :     2.704078
      px      :     0.881034
      py      :     0.932538
      dz2     :     0.009800  d :     0.043615
      dxz     :     0.012147
      dyz     :     0.007961
      dx2y2   :     0.006653
      dxy     :     0.007055

 10 C s       :     3.221559  s :     3.221559
      pz      :     0.968472  p :     2.975238
      px      :     1.001111
      py      :     1.005655
      dz2     :     0.008747  d :     0.036014
      dxz     :     0.011643
      dyz     :     0.004668
      dx2y2   :     0.005866
      dxy     :     0.005090

 11 C s       :     3.253317  s :     3.253317
      pz      :     1.032095  p :     3.053718
      px      :     0.982947
      py      :     1.038676
      dz2     :     0.006258  d :     0.040967
      dxz     :     0.008210
      dyz     :     0.011694
      dx2y2   :     0.005425
      dxy     :     0.009380

 12 C s       :     3.255033  s :     3.255033
      pz      :     0.946045  p :     2.988607
      px      :     0.993923
      py      :     1.048639
      dz2     :     0.009130  d :     0.038590
      dxz     :     0.009046
      dyz     :     0.005030
      dx2y2   :     0.010102
      dxy     :     0.005282

 13 C s       :     3.253360  s :     3.253360
      pz      :     0.979229  p :     3.053238
      px      :     1.032144
      py      :     1.041865
      dz2     :     0.009075  d :     0.040928
      dxz     :     0.005079
      dyz     :     0.009823
      dx2y2   :     0.006833
      dxy     :     0.010119

 14 S s       :     5.213277  s :     5.213277
      pz      :     2.999683  p :     9.026314
      px      :     3.005453
      py      :     3.021178
      dz2     :     0.113365  d :     0.537167
      dxz     :     0.121725
      dyz     :     0.084995
      dx2y2   :     0.090773
      dxy     :     0.126308

 15 O s       :     3.927374  s :     3.927374
      pz      :     1.331268  p :     4.603425
      px      :     1.562073
      py      :     1.710084
      dz2     :     0.008052  d :     0.026547
      dxz     :     0.007709
      dyz     :     0.005505
      dx2y2   :     0.002833
      dxy     :     0.002448

 16 O s       :     3.929201  s :     3.929201
      pz      :     1.650264  p :     4.593922
      px      :     1.584577
      py      :     1.359081
      dz2     :     0.003161  d :     0.026973
      dxz     :     0.002497
      dyz     :     0.006190
      dx2y2   :     0.007601
      dxy     :     0.007525

 17 C s       :     3.221864  s :     3.221864
      pz      :     1.019660  p :     2.860743
      px      :     0.937659
      py      :     0.903425
      dz2     :     0.007085  d :     0.038672
      dxz     :     0.005290
      dyz     :     0.006498
      dx2y2   :     0.007574
      dxy     :     0.012225

 18 C s       :     3.203152  s :     3.203152
      pz      :     0.950228  p :     2.893887
      px      :     0.921734
      py      :     1.021925
      dz2     :     0.004794  d :     0.035913
      dxz     :     0.005915
      dyz     :     0.007271
      dx2y2   :     0.010538
      dxy     :     0.007394

 19 C s       :     3.214953  s :     3.214953
      pz      :     0.968383  p :     2.891490
      px      :     0.974207
      py      :     0.948900
      dz2     :     0.003546  d :     0.035660
      dxz     :     0.006892
      dyz     :     0.007224
      dx2y2   :     0.009742
      dxy     :     0.008256

 20 C s       :     3.165054  s :     3.165054
      pz      :     0.943340  p :     2.713890
      px      :     0.894328
      py      :     0.876222
      dz2     :     0.006583  d :     0.038381
      dxz     :     0.005491
      dyz     :     0.006811
      dx2y2   :     0.008396
      dxy     :     0.011099

 21 C s       :     2.997755  s :     2.997755
      pz      :     0.773142  p :     2.364836
      px      :     0.831929
      py      :     0.759765
      dz2     :     0.017501  d :     0.110164
      dxz     :     0.015023
      dyz     :     0.024358
      dx2y2   :     0.024710
      dxy     :     0.028572

 22 O s       :     3.877840  s :     3.877840
      pz      :     1.390391  p :     4.542583
      px      :     1.388682
      py      :     1.763511
      dz2     :     0.006489  d :     0.025580
      dxz     :     0.007499
      dyz     :     0.002268
      dx2y2   :     0.005150
      dxy     :     0.004173

 23 O s       :     3.872410  s :     3.872410
      pz      :     1.757330  p :     4.730926
      px      :     1.694130
      py      :     1.279466
      dz2     :     0.003862  d :     0.020915
      dxz     :     0.002336
      dyz     :     0.004430
      dx2y2   :     0.001753
      dxy     :     0.008534

 24 C s       :     3.210545  s :     3.210545
      pz      :     0.967504  p :     2.900267
      px      :     0.956202
      py      :     0.976561
      dz2     :     0.004643  d :     0.035680
      dxz     :     0.005729
      dyz     :     0.007302
      dx2y2   :     0.010195
      dxy     :     0.007811

 25 C s       :     3.208406  s :     3.208406
      pz      :     0.980798  p :     2.908942
      px      :     1.010657
      py      :     0.917487
      dz2     :     0.003547  d :     0.035929
      dxz     :     0.006870
      dyz     :     0.007354
      dx2y2   :     0.010056
      dxy     :     0.008102

 26 N s       :     3.680620  s :     3.680620
      pz      :     1.010714  p :     3.684397
      px      :     1.133032
      py      :     1.540651
      dz2     :     0.006666  d :     0.035105
      dxz     :     0.006345
      dyz     :     0.010091
      dx2y2   :     0.005895
      dxy     :     0.006107

 27 C s       :     3.163065  s :     3.163065
      pz      :     0.926401  p :     2.844981
      px      :     0.960866
      py      :     0.957713
      dz2     :     0.011644  d :     0.053705
      dxz     :     0.008845
      dyz     :     0.014301
      dx2y2   :     0.009882
      dxy     :     0.009033

 28 C s       :     3.138510  s :     3.138510
      pz      :     0.886794  p :     2.679805
      px      :     0.934494
      py      :     0.858517
      dz2     :     0.009334  d :     0.041854
      dxz     :     0.006245
      dyz     :     0.010880
      dx2y2   :     0.007665
      dxy     :     0.007730

 29 C s       :     3.211126  s :     3.211126
      pz      :     0.993918  p :     2.956929
      px      :     0.987598
      py      :     0.975412
      dz2     :     0.006622  d :     0.036240
      dxz     :     0.006245
      dyz     :     0.010163
      dx2y2   :     0.006110
      dxy     :     0.007100

 30 C s       :     3.193820  s :     3.193820
      pz      :     0.961273  p :     2.895713
      px      :     0.968074
      py      :     0.966365
      dz2     :     0.006589  d :     0.036427
      dxz     :     0.004660
      dyz     :     0.012328
      dx2y2   :     0.006635
      dxy     :     0.006215

 31 C s       :     3.196232  s :     3.196232
      pz      :     0.941547  p :     2.888695
      px      :     0.962203
      py      :     0.984944
      dz2     :     0.009681  d :     0.036527
      dxz     :     0.005858
      dyz     :     0.008050
      dx2y2   :     0.007464
      dxy     :     0.005474

 32 C s       :     3.210117  s :     3.210117
      pz      :     0.973195  p :     2.949285
      px      :     0.989970
      py      :     0.986121
      dz2     :     0.006746  d :     0.035567
      dxz     :     0.006239
      dyz     :     0.009439
      dx2y2   :     0.006224
      dxy     :     0.006920

 33 C s       :     3.137777  s :     3.137777
      pz      :     0.904876  p :     2.706361
      px      :     0.943314
      py      :     0.858171
      dz2     :     0.008594  d :     0.041302
      dxz     :     0.005958
      dyz     :     0.011259
      dx2y2   :     0.007660
      dxy     :     0.007832

 34 H s       :     0.796393  s :     0.796393

 35 H s       :     0.832913  s :     0.832913

 36 H s       :     0.843437  s :     0.843437

 37 H s       :     0.831371  s :     0.831371

 38 H s       :     0.830738  s :     0.830738

 39 H s       :     0.851779  s :     0.851779

 40 H s       :     0.875153  s :     0.875153

 41 H s       :     0.872703  s :     0.872703

 42 H s       :     0.850178  s :     0.850178

 43 H s       :     0.851717  s :     0.851717

 44 H s       :     0.859200  s :     0.859200

 45 H s       :     0.861041  s :     0.861041

 46 H s       :     0.850962  s :     0.850962

 47 H s       :     0.851298  s :     0.851298

 48 H s       :     0.813456  s :     0.813456

 49 H s       :     0.821035  s :     0.821035

 50 H s       :     0.567096  s :     0.567096

 51 H s       :     0.829738  s :     0.829738

 52 H s       :     0.819220  s :     0.819220

 53 H s       :     0.850427  s :     0.850427

 54 H s       :     0.862422  s :     0.862422

 55 H s       :     0.864512  s :     0.864512

 56 H s       :     0.862657  s :     0.862657

 57 H s       :     0.856861  s :     0.856861



                     *******************************
                     * LOEWDIN POPULATION ANALYSIS *
                     *******************************

----------------------
LOEWDIN ATOMIC CHARGES
----------------------
   0 C :   -0.359600
   1 C :    0.011211
   2 C :    0.024356
   3 N :   -0.277452
   4 C :   -0.146084
   5 C :   -0.034413
   6 C :   -0.127189
   7 C :   -0.130861
   8 C :   -0.027253
   9 C :   -0.029101
  10 C :   -0.135468
  11 C :   -0.226808
  12 C :   -0.225433
  13 C :   -0.226691
  14 S :    1.263709
  15 O :   -0.579140
  16 O :   -0.570226
  17 C :   -0.173879
  18 C :   -0.094888
  19 C :   -0.085650
  20 C :   -0.040774
  21 C :    0.179961
  22 O :   -0.262251
  23 O :   -0.335548
  24 C :   -0.100637
  25 C :   -0.110036
  26 N :   -0.138702
  27 C :   -0.066833
  28 C :   -0.027840
  29 C :   -0.113555
  30 C :   -0.125614
  31 C :   -0.118620
  32 C :   -0.118951
  33 C :   -0.007157
  34 H :    0.154584
  35 H :    0.141073
  36 H :    0.135362
  37 H :    0.141379
  38 H :    0.132404
  39 H :    0.140456
  40 H :    0.131033
  41 H :    0.131663
  42 H :    0.129712
  43 H :    0.129313
  44 H :    0.122983
  45 H :    0.122217
  46 H :    0.129741
  47 H :    0.129437
  48 H :    0.161460
  49 H :    0.159794
  50 H :    0.348912
  51 H :    0.153498
  52 H :    0.157827
  53 H :    0.135482
  54 H :    0.136361
  55 H :    0.135190
  56 H :    0.136358
  57 H :    0.141178

-------------------------------
LOEWDIN REDUCED ORBITAL CHARGES
-------------------------------
  0 C s       :     2.972947  s :     2.972947
      pz      :     1.082184  p :     3.320784
      px      :     1.095597
      py      :     1.143004
      dz2     :     0.009413  d :     0.065868
      dxz     :     0.015180
      dyz     :     0.019549
      dx2y2   :     0.011165
      dxy     :     0.010560

  1 C s       :     2.890557  s :     2.890557
      pz      :     1.009507  p :     3.000593
      px      :     0.950813
      py      :     1.040273
      dz2     :     0.020756  d :     0.097639
      dxz     :     0.013090
      dyz     :     0.027491
      dx2y2   :     0.018156
      dxy     :     0.018145

  2 C s       :     2.846599  s :     2.846599
      pz      :     0.954071  p :     2.952155
      px      :     1.002229
      py      :     0.995855
      dz2     :     0.038040  d :     0.176890
      dxz     :     0.028062
      dyz     :     0.054890
      dx2y2   :     0.028460
      dxy     :     0.027438

  3 N s       :     3.177967  s :     3.177967
      pz      :     1.313125  p :     4.013218
      px      :     1.357713
      py      :     1.342381
      dz2     :     0.017300  d :     0.086267
      dxz     :     0.021122
      dyz     :     0.018010
      dx2y2   :     0.013871
      dxy     :     0.015964

  4 C s       :     2.921109  s :     2.921109
      pz      :     1.115025  p :     3.106241
      px      :     0.978595
      py      :     1.012622
      dz2     :     0.019212  d :     0.118734
      dxz     :     0.011423
      dyz     :     0.027410
      dx2y2   :     0.028736
      dxy     :     0.031953

  5 C s       :     2.880087  s :     2.880087
      pz      :     1.061747  p :     3.054924
      px      :     1.003600
      py      :     0.989577
      dz2     :     0.028116  d :     0.099402
      dxz     :     0.028240
      dyz     :     0.018471
      dx2y2   :     0.011733
      dxy     :     0.012843

  6 C s       :     2.921634  s :     2.921634
      pz      :     1.064198  p :     3.122417
      px      :     1.046440
      py      :     1.011780
      dz2     :     0.020065  d :     0.083138
      dxz     :     0.024808
      dyz     :     0.013242
      dx2y2   :     0.011921
      dxy     :     0.013103

  7 C s       :     2.915850  s :     2.915850
      pz      :     1.064687  p :     3.130335
      px      :     1.052887
      py      :     1.012762
      dz2     :     0.020932  d :     0.084675
      dxz     :     0.026937
      dyz     :     0.011959
      dx2y2   :     0.012479
      dxy     :     0.012367

  8 C s       :     2.864596  s :     2.864596
      pz      :     1.058856  p :     3.052835
      px      :     1.014889
      py      :     0.979091
      dz2     :     0.030735  d :     0.109822
      dxz     :     0.031097
      dyz     :     0.019836
      dx2y2   :     0.012793
      dxy     :     0.015362

  9 C s       :     2.864065  s :     2.864065
      pz      :     1.037735  p :     3.054997
      px      :     1.034521
      py      :     0.982741
      dz2     :     0.025128  d :     0.110039
      dxz     :     0.033162
      dyz     :     0.019105
      dx2y2   :     0.015760
      dxy     :     0.016884

 10 C s       :     2.916431  s :     2.916431
      pz      :     1.062125  p :     3.134877
      px      :     1.053344
      py      :     1.019408
      dz2     :     0.020218  d :     0.084160
      dxz     :     0.027107
      dyz     :     0.011288
      dx2y2   :     0.012835
      dxy     :     0.012712

 11 C s       :     2.927517  s :     2.927517
      pz      :     1.074777  p :     3.213599
      px      :     1.053744
      py      :     1.085077
      dz2     :     0.012750  d :     0.085691
      dxz     :     0.018294
      dyz     :     0.024179
      dx2y2   :     0.011132
      dxy     :     0.019336

 12 C s       :     2.942582  s :     2.942582
      pz      :     1.040016  p :     3.202632
      px      :     1.063779
      py      :     1.098837
      dz2     :     0.020926  d :     0.080219
      dxz     :     0.018941
      dyz     :     0.010238
      dx2y2   :     0.020053
      dxy     :     0.010060

 13 C s       :     2.927563  s :     2.927563
      pz      :     1.053799  p :     3.213474
      px      :     1.073162
      py      :     1.086513
      dz2     :     0.021246  d :     0.085654
      dxz     :     0.010031
      dyz     :     0.020027
      dx2y2   :     0.013674
      dxy     :     0.020676

 14 S s       :     5.102867  s :     5.102867
      pz      :     2.968091  p :     8.953705
      px      :     2.987161
      py      :     2.998453
      dz2     :     0.144176  d :     0.679719
      dxz     :     0.161282
      dyz     :     0.099781
      dx2y2   :     0.109647
      dxy     :     0.164832

 15 O s       :     3.709735  s :     3.709735
      pz      :     1.452430  p :     4.814136
      px      :     1.629062
      py      :     1.732644
      dz2     :     0.015274  d :     0.055269
      dxz     :     0.021806
      dyz     :     0.008654
      dx2y2   :     0.005315
      dxy     :     0.004220

 16 O s       :     3.711049  s :     3.711049
      pz      :     1.679890  p :     4.803454
      px      :     1.644408
      py      :     1.479156
      dz2     :     0.007950  d :     0.055722
      dxz     :     0.004086
      dyz     :     0.009995
      dx2y2   :     0.012998
      dxy     :     0.020693

 17 C s       :     2.931880  s :     2.931880
      pz      :     1.055376  p :     3.143735
      px      :     1.041873
      py      :     1.046487
      dz2     :     0.015634  d :     0.098264
      dxz     :     0.013663
      dyz     :     0.016740
      dx2y2   :     0.020852
      dxy     :     0.031374

 18 C s       :     2.916914  s :     2.916914
      pz      :     0.991006  p :     3.092939
      px      :     1.019187
      py      :     1.082746
      dz2     :     0.010268  d :     0.085035
      dxz     :     0.015368
      dyz     :     0.015159
      dx2y2   :     0.024562
      dxy     :     0.019678

 19 C s       :     2.920063  s :     2.920063
      pz      :     0.998996  p :     3.082744
      px      :     1.043894
      py      :     1.039854
      dz2     :     0.007929  d :     0.082844
      dxz     :     0.012272
      dyz     :     0.017114
      dx2y2   :     0.024037
      dxy     :     0.021491

 20 C s       :     2.879801  s :     2.879801
      pz      :     1.014508  p :     3.061489
      px      :     1.018007
      py      :     1.028974
      dz2     :     0.014644  d :     0.099484
      dxz     :     0.014723
      dyz     :     0.017777
      dx2y2   :     0.022776
      dxy     :     0.029564

 21 C s       :     2.863727  s :     2.863727
      pz      :     0.858581  p :     2.703981
[...]
      dx2y2   :     0.025747
      dxy     :     0.021347

 26 N s       :     3.236386  s :     3.236386
      pz      :     1.122617  p :     3.822635
      px      :     1.153418
      py      :     1.546600
      dz2     :     0.018410  d :     0.079681
      dxz     :     0.017182
      dyz     :     0.023437
      dx2y2   :     0.010737
      dxy     :     0.009915

 27 C s       :     2.912235  s :     2.912235
      pz      :     1.017337  p :     3.031069
      px      :     0.984080
      py      :     1.029652
      dz2     :     0.026420  d :     0.123529
      dxz     :     0.017014
      dyz     :     0.034907
      dx2y2   :     0.025398
      dxy     :     0.019791

 28 C s       :     2.858823  s :     2.858823
      pz      :     1.027407  p :     3.060144
      px      :     0.983064
      py      :     1.049673
      dz2     :     0.024078  d :     0.108873
      dxz     :     0.015131
      dyz     :     0.030481
      dx2y2   :     0.019977
      dxy     :     0.019207

 29 C s       :     2.916028  s :     2.916028
      pz      :     1.046585  p :     3.113017
      px      :     1.004846
      py      :     1.061585
      dz2     :     0.015501  d :     0.084510
      dxz     :     0.011299
      dyz     :     0.025096
      dx2y2   :     0.016392
      dxy     :     0.016222

 30 C s       :     2.917254  s :     2.917254
      pz      :     1.049862  p :     3.122471
      px      :     1.002377
      py      :     1.070232
      dz2     :     0.015910  d :     0.085890
      dxz     :     0.010692
      dyz     :     0.028242
      dx2y2   :     0.015828
      dxy     :     0.015216

 31 C s       :     2.918176  s :     2.918176
      pz      :     1.046982  p :     3.114510
      px      :     0.995952
      py      :     1.071576
      dz2     :     0.023318  d :     0.085934
      dxz     :     0.014947
      dyz     :     0.021220
      dx2y2   :     0.014963
      dxy     :     0.011487

 32 C s       :     2.917549  s :     2.917549
      pz      :     1.055507  p :     3.118903
      px      :     1.010595
      py      :     1.052800
      dz2     :     0.015282  d :     0.082500
      dxz     :     0.011342
      dyz     :     0.024611
      dx2y2   :     0.015712
      dxy     :     0.015553

 33 C s       :     2.856177  s :     2.856177
      pz      :     1.020219  p :     3.045266
      px      :     0.984774
      py      :     1.040274
      dz2     :     0.022281  d :     0.105714
      dxz     :     0.014524
      dyz     :     0.030562
      dx2y2   :     0.019234
      dxy     :     0.019113

 34 H s       :     0.845416  s :     0.845416

 35 H s       :     0.858927  s :     0.858927

 36 H s       :     0.864638  s :     0.864638

 37 H s       :     0.858621  s :     0.858621

 38 H s       :     0.867596  s :     0.867596

 39 H s       :     0.859544  s :     0.859544

 40 H s       :     0.868967  s :     0.868967

 41 H s       :     0.868337  s :     0.868337

 42 H s       :     0.870288  s :     0.870288

 43 H s       :     0.870687  s :     0.870687

 44 H s       :     0.877017  s :     0.877017

 45 H s       :     0.877783  s :     0.877783

 46 H s       :     0.870259  s :     0.870259

 47 H s       :     0.870563  s :     0.870563

 48 H s       :     0.838540  s :     0.838540

 49 H s       :     0.840206  s :     0.840206

 50 H s       :     0.651088  s :     0.651088

 51 H s       :     0.846502  s :     0.846502

 52 H s       :     0.842173  s :     0.842173

 53 H s       :     0.864518  s :     0.864518

 54 H s       :     0.863639  s :     0.863639

 55 H s       :     0.864810  s :     0.864810

 56 H s       :     0.863642  s :     0.863642

 57 H s       :     0.858822  s :     0.858822



                      *****************************
                      * MAYER POPULATION ANALYSIS *
                      *****************************

  NA   - Mulliken gross atomic population
  ZA   - Total nuclear charge
  QA   - Mulliken gross atomic charge
  VA   - Mayer's total valence
  BVA  - Mayer's bonded valence
  FA   - Mayer's free valence

  ATOM       NA         ZA         QA         VA         BVA        FA
  0 C      6.5409     6.0000    -0.5409     3.8272     3.8272     0.0000
  1 C      5.8635     6.0000     0.1365     3.8783     3.8783    -0.0000
  2 C      5.6962     6.0000     0.3038     3.8729     3.8729    -0.0000
  3 N      7.6046     7.0000    -0.6046     2.7900     2.7900    -0.0000
  4 C      6.2405     6.0000    -0.2405     3.8254     3.8254    -0.0000
  5 C      5.8409     6.0000     0.1591     3.8900     3.8900    -0.0000
  6 C      6.1780     6.0000    -0.1780     3.9125     3.9125    -0.0000
  7 C      6.1842     6.0000    -0.1842     3.8906     3.8906     0.0000
  8 C      5.8684     6.0000     0.1316     4.0043     4.0043    -0.0000
  9 C      5.8710     6.0000     0.1290     3.9981     3.9981     0.0000
 10 C      6.2328     6.0000    -0.2328     3.8916     3.8916     0.0000
 11 C      6.3480     6.0000    -0.3480     3.8321     3.8321    -0.0000
 12 C      6.2822     6.0000    -0.2822     3.8620     3.8620     0.0000
 13 C      6.3475     6.0000    -0.3475     3.8321     3.8321    -0.0000
 14 S     14.7768    16.0000     1.2232     5.0676     5.0676    -0.0000
 15 O      8.5573     8.0000    -0.5573     1.8772     1.8772     0.0000
 16 O      8.5501     8.0000    -0.5501     1.8827     1.8827    -0.0000
 17 C      6.1213     6.0000    -0.1213     3.8330     3.8330     0.0000
 18 C      6.1330     6.0000    -0.1330     3.9137     3.9137     0.0000
 19 C      6.1421     6.0000    -0.1421     3.9002     3.9002     0.0000
 20 C      5.9173     6.0000     0.0827     3.9263     3.9263    -0.0000
 21 C      5.4728     6.0000     0.5272     3.9529     3.9529     0.0000
 22 O      8.4460     8.0000    -0.4460     2.0661     2.0661    -0.0000
 23 O      8.6243     8.0000    -0.6243     1.8674     1.8674     0.0000
 24 C      6.1465     6.0000    -0.1465     3.8665     3.8665    -0.0000
 25 C      6.1533     6.0000    -0.1533     3.9223     3.9223    -0.0000
 26 N      7.4001     7.0000    -0.4001     2.9567     2.9567     0.0000
 27 C      6.0618     6.0000    -0.0618     3.8662     3.8662    -0.0000
 28 C      5.8602     6.0000     0.1398     3.9631     3.9631     0.0000
 29 C      6.2043     6.0000    -0.2043     3.9000     3.9000    -0.0000
 30 C      6.1260     6.0000    -0.1260     3.9267     3.9267    -0.0000
 31 C      6.1215     6.0000    -0.1215     3.9241     3.9241     0.0000
 32 C      6.1950     6.0000    -0.1950     3.8727     3.8727    -0.0000
 33 C      5.8854     6.0000     0.1146     3.9954     3.9954    -0.0000
 34 H      0.7964     1.0000     0.2036     0.9342     0.9342     0.0000
 35 H      0.8329     1.0000     0.1671     0.9292     0.9292     0.0000
 36 H      0.8434     1.0000     0.1566     0.9327     0.9327     0.0000
 37 H      0.8314     1.0000     0.1686     0.9396     0.9396    -0.0000
 38 H      0.8307     1.0000     0.1693     0.9285     0.9285     0.0000
 39 H      0.8518     1.0000     0.1482     0.9432     0.9432    -0.0000
 40 H      0.8752     1.0000     0.1248     0.9384     0.9384    -0.0000
 41 H      0.8727     1.0000     0.1273     0.9429     0.9429    -0.0000
 42 H      0.8502     1.0000     0.1498     0.9309     0.9309     0.0000
 43 H      0.8517     1.0000     0.1483     0.9314     0.9314     0.0000
 44 H      0.8592     1.0000     0.1408     0.9357     0.9357     0.0000
 45 H      0.8610     1.0000     0.1390     0.9363     0.9363     0.0000
 46 H      0.8510     1.0000     0.1490     0.9311     0.9311    -0.0000
 47 H      0.8513     1.0000     0.1487     0.9310     0.9310    -0.0000
 48 H      0.8135     1.0000     0.1865     0.9373     0.9373     0.0000
 49 H      0.8210     1.0000     0.1790     0.9390     0.9390     0.0000
 50 H      0.5671     1.0000     0.4329     0.7965     0.7965     0.0000
 51 H      0.8297     1.0000     0.1703     0.9368     0.9368     0.0000
 52 H      0.8192     1.0000     0.1808     0.9386     0.9386    -0.0000
 53 H      0.8504     1.0000     0.1496     0.9353     0.9353    -0.0000
 54 H      0.8624     1.0000     0.1376     0.9373     0.9373     0.0000
 55 H      0.8645     1.0000     0.1355     0.9367     0.9367    -0.0000
 56 H      0.8627     1.0000     0.1373     0.9365     0.9365    -0.0000
 57 H      0.8569     1.0000     0.1431     0.9424     0.9424     0.0000

  Mayer bond orders larger than 0.100000
B(  0-C ,  1-C ) :   1.0100 B(  0-C , 34-H ) :   0.9166 B(  0-C , 35-H ) :   0.9238 
B(  0-C , 36-H ) :   0.9240 B(  1-C ,  2-C ) :   1.4325 B(  1-C , 27-C ) :   0.1007 
B(  1-C , 33-C ) :   1.2614 B(  2-C ,  3-N ) :   0.8939 B(  2-C , 26-N ) :   1.2780 
B(  3-N ,  4-C ) :   0.9147 B(  3-N , 14-S ) :   0.8144 B(  4-C ,  5-C ) :   0.9577 
B(  4-C , 37-H ) :   0.9199 B(  4-C , 38-H ) :   0.9203 B(  5-C ,  6-C ) :   1.4080 
B(  5-C , 10-C ) :   1.4208 B(  6-C ,  7-C ) :   1.4314 B(  6-C , 39-H ) :   0.9178 
B(  7-C ,  8-C ) :   1.3987 B(  7-C , 40-H ) :   0.9275 B(  8-C ,  9-C ) :   1.5062 
B(  8-C , 13-C ) :   0.9786 B(  9-C , 10-C ) :   1.3842 B(  9-C , 11-C ) :   0.9775 
B( 10-C , 41-H ) :   0.9202 B( 11-C , 12-C ) :   0.9929 B( 11-C , 42-H ) :   0.9345 
B( 11-C , 43-H ) :   0.9348 B( 12-C , 13-C ) :   0.9934 B( 12-C , 44-H ) :   0.9536 
B( 12-C , 45-H ) :   0.9537 B( 13-C , 46-H ) :   0.9346 B( 13-C , 47-H ) :   0.9345 
B( 14-S , 15-O ) :   1.6118 B( 14-S , 16-O ) :   1.6374 B( 14-S , 17-C ) :   0.8111 
B( 17-C , 18-C ) :   1.3805 B( 17-C , 25-C ) :   1.3995 B( 18-C , 19-C ) :   1.4301 
B( 18-C , 48-H ) :   0.9072 B( 19-C , 20-C ) :   1.3960 B( 19-C , 49-H ) :   0.9102 
B( 20-C , 21-C ) :   1.0092 B( 20-C , 24-C ) :   1.3879 B( 21-C , 22-O ) :   1.8619 
B( 21-C , 23-O ) :   1.0234 B( 23-O , 50-H ) :   0.7426 B( 24-C , 25-C ) :   1.4106 
B( 24-C , 51-H ) :   0.9155 B( 25-C , 52-H ) :   0.9101 B( 26-N , 27-C ) :   1.4928 
B( 27-C , 28-C ) :   1.2419 B( 27-C , 53-H ) :   0.9268 B( 28-C , 29-C ) :   1.2830 
B( 28-C , 33-C ) :   1.2910 B( 29-C , 30-C ) :   1.5128 B( 29-C , 32-C ) :   0.1063 
B( 29-C , 54-H ) :   0.9235 B( 30-C , 31-C ) :   1.3525 B( 30-C , 55-H ) :   0.9294 
B( 31-C , 32-C ) :   1.5076 B( 31-C , 56-H ) :   0.9292 B( 32-C , 33-C ) :   1.2959 
B( 32-C , 57-H ) :   0.9151 

-------
TIMINGS
-------

Total SCF time: 0 days 0 hours 9 min 35 sec 

Total time                  ....     575.127 sec
Sum of individual times     ....     574.804 sec  ( 99.9%)

SCF preparation             ....       0.692 sec  (  0.1%)
Fock matrix formation       ....     571.584 sec  ( 99.4%)
  Startup                   ....       0.095 sec  (  0.0% of F)
  Split-RI-J                ....      74.914 sec  ( 13.1% of F)
  Chain of spheres X        ....     446.978 sec  ( 78.2% of F)
  XC integration            ....      48.803 sec  (  8.5% of F)
    XC Preparation          ....       0.000 sec  (  0.0% of XC)
    Basis function eval.    ....      18.946 sec  ( 38.8% of XC)
    Density eval.           ....      12.295 sec  ( 25.2% of XC)
    XC-Functional eval.     ....       2.162 sec  (  4.4% of XC)
    XC-Potential eval.      ....      13.341 sec  ( 27.3% of XC)
Diagonalization             ....       0.000 sec  (  0.0%)
Density matrix formation    ....       0.495 sec  (  0.1%)
Total Energy calculation    ....       0.073 sec  (  0.0%)
Population analysis         ....       0.084 sec  (  0.0%)
Orbital Transformation      ....       0.217 sec  (  0.0%)
Orbital Orthonormalization  ....       0.000 sec  (  0.0%)
DIIS solution               ....       0.995 sec  (  0.2%)
SOSCF solution              ....       0.666 sec  (  0.1%)
Finished LeanSCF after 575.2 sec

Maximum memory used throughout the entire LEANSCF-calculation: 95.6 MB

-------------------------   --------------------
FINAL SINGLE POINT ENERGY     -1850.887914789506
-------------------------   --------------------


------------------------------------------------------------------------------
                              ORCA PROPERTY CALCULATIONS
------------------------------------------------------------------------------

GBWName                                 ... /home/nmrbox/aojoawo/Documents/ERDOS/inputs/CHEMBL3682567.gbw
Number of atoms                         ...     58
Number of basis functions               ...    528
Max core memory                         ...   1024 MB

Electric properties:
Dipole moment                           ... YES
Quadrupole moment                       ...  NO
Static polarizability (Dipole/Dipole)   ...  NO
Static polarizability (Dipole/Quad.)    ...  NO
Static polarizability (Quad./Quad.)     ...  NO
Static polarizability (Velocity)        ...  NO

Atomic electric properties:
Dipole moment                           ...  NO
Quadrupole moment                       ...  NO
Static polarizability                   ...  NO

Choice of electric origin               ... Center of mass
Position of electric origin             ...    -1.135754    -0.672122     0.283173

General magnetic properties:
Magnetizability                         ...  NO

EPR properties:
g-Tensor (aka g-matrix)                 ...  NO
Zero-Field splitting spin-orbit         ...  NO
Zero-field splitting spin-spin          ...  NO
Hyperfine couplings                     ...  NO (   0 nuclei)
Quadrupole couplings                    ...  NO (   0 nuclei)
Contact density                         ...  NO (   0 nuclei)

NMR properties:
Chemical shifts                         ...  NO (   0 nuclei)
Spin-rotation constants                 ...  NO (   0 nuclei)
Spin-spin couplings                     ...  NO (   0 nuclei,    0 pairs)

Choice of magnetic origin               ... GIAO
Position of magnetic origin             ...     0.000000     0.000000     0.000000

Properties with geometric perturbations:
SCF Hessian                             ...  NO
IR spectrum                             ...  NO
VCD spectrum                            ...  NO
X-ray spectroscopy properties:
SCF XES/XAS/RIXS spectra                ...  NO


-------------
DIPOLE MOMENT
-------------

Method             : SCF
Type of density    : Electron Density
Multiplicity       :   1
Irrep              :   0
Energy             : -1850.8879147895061124 Eh
Relativity type    : 
Basis              : AO
                                X                 Y                 Z
Electronic contribution:    -28.940332249     -16.618684810       8.679014403
Nuclear contribution   :     29.934689719      16.594428833     -10.149547045
                        -----------------------------------------
Total Dipole Moment    :      0.994357470      -0.024255977      -1.470532642
                        -----------------------------------------
Magnitude (a.u.)       :      1.775331344
Magnitude (Debye)      :      4.512533661



--------------------
Rotational spectrum 
--------------------
 
Rotational constants in cm-1:             0.005687             0.002307             0.001880 
Rotational constants in MHz :           170.490757            69.155672            56.347616 

Dipole components along the rotational axes: 
x,y,z [a.u.] :    -1.055152     0.042986     1.427097 
x,y,z [Debye]:    -2.681984     0.109262     3.627393 

 

Dipole moment calculation done in   0.0 sec 

Maximum memory used throughout the entire PROP-calculation: 46.5 MB

--------------------------------
SUGGESTED CITATIONS FOR THIS RUN
--------------------------------

Below you find a list of papers that are relevant to this ORCA run
We neither can nor want to force you to cite these papers, but we appreciate if you do
You receive ORCA, which is the product of decades of hard work by many enthusiastic individuals, for free
The only thing we kindly ask in return is that you cite our papers,
We deeply appreciate it, if you show your appreciation for ORCA by not just citing the generic ORCA reference.

Please note that relegating all ORCA citations to the supporting information does *not* help us.
SI sections are not indexed - citations you put there will not count into any citation statistics
But we need these citations in order to attract the funding resources that allow us to do what we are doing

Therefore, if you are a happy ORCA user, please consider citing a few of the papers listed below in the main body of your paper

In addition to the list printed below, the program has created the file /home/nmrbox/aojoawo/Documents/ERDOS/inputs/CHEMBL3682567.bibtex that contains the list in bibtex format
You can import this file easily into all common literature databanks and citation aid programs


List of essential papers. We consider these as the minimum necessary citations

  1. Neese,F.
     Software update: the ORCA program system, version 5.0
     WIRES Comput. Molec. Sci., 2022 12(1)e1606
     doi.org/10.1002/wcms.1606

List of papers to cite with high priority. The work reported in these papers was absolutely
necessary for this run to complete.
Our perspective: the developers of density functionals and basis sets usually get cited in chemistry papers
Good! But without the algorithms to do something with them, the functionals or basis sets would not do anything.
Hence, in our opinion, the algorithm design and method developments papers are equally worthy of getting cited

  1. Neese,F.
     An improvement of the resolution of the identity approximation for the formation of the Coulomb matrix
     J. Comp. Chem., 2003 24(14)1740-1747
     doi.org/10.1002/jcc.10318
  2. Neese,F.; Wennmohs,F.; Hansen,A.; Becker,U.
     Efficient, approximate and parallel Hartree-Fock and hybrid DFT calculations. A 'chain-of-spheres' algorithm for the Hartree-Fock exchange
     Chem. Phys., 2009 356(1-3)98-109
     doi.org/10.1016/j.chemphys.2008.10.036
  3. Helmich-Paris,B.; de Souza,B.; Neese,F.; Izsák,R.
     An improved chain of spheres for exchange algorithm
     J. Chem. Phys., 2021 155 104109
     doi.org/doi: 10.1063/5.0058766.
  4. Neese,F.
     The SHARK Integral Generation and Digestion System
     J. Comp. Chem., 2022  1-16
     doi.org/10.1002/jcc.26942

List of suggested additional citations. These are papers that are important in the 'surrounding' of 
of this run, or papers that preceded the highly important papers. If you like your results we are grateful for a citation.

  1. Izsak,R.; Neese,F.
     An overlap fitted chain of spheres exchange method
     J. Chem. Phys., 2011 135 144105
     doi.org/10.1063/1.3646921
  2. Izsak,R.; Hansen,A.; Neese,F.
     The resolution of identity and chain of spheres approximations for the LPNO-CCSD singles Fock term
     Molec. Phys., 2012 110 2413-2417
     doi.org/10.1080/00268976.2012.687466
  3. Neese,F.
     The ORCA program system
     WIRES Comput. Molec. Sci., 2012 2(1)73-78
     doi.org/10.1002/wcms.81
  4. Izsak,R.; Neese,F.; Klopper,W.
     Robust fitting techniques in the chain of spheres approximation to the Fock exchange: The role of the complementary space
     J. Chem. Phys., 2013 139 
     doi.org/10.1063/1.4819264
  5. Neese,F.
     Software update: the ORCA program system, version 4.0
     WIRES Comput. Molec. Sci., 2018 8(1)1-6
     doi.org/10.1002/wcms.1327
  6. Neese,F.; Wennmohs,F.; Becker,U.; Riplinger,C.
     The ORCA quantum chemistry program package
     J. Chem. Phys., 2020 152 Art. No. L224108
     doi.org/10.1063/5.0004608

List of optional additional citations

  1. Neese,F.
     Approximate second-order SCF convergence for spin unrestricted wavefunctions
     Chem. Phys. Lett., 2000 325(1-3)93-98
     doi.org/10.1016/s0009-2614(00)00662-x

Timings for individual modules:

Sum of individual times          ...      596.120 sec (=   9.935 min)
Startup calculation              ...       13.718 sec (=   0.229 min)   2.3 %
SCF iterations                   ...      582.172 sec (=   9.703 min)  97.7 %
Property calculations            ...        0.229 sec (=   0.004 min)   0.0 %
                             ****ORCA TERMINATED NORMALLY****
TOTAL RUN TIME: 0 days 0 hours 9 minutes 56 seconds 848 msec
