
                                 *****************
                                 * O   R   C   A *
                                 *****************

                                            #,                                       
                                            ###                                      
                                            ####                                     
                                            #####                                    
                                            ######                                   
                                           ########,                                 
                                     ,,################,,,,,                         
                               ,,#################################,,                 
                          ,,##########################################,,             
                       ,#########################################, ''#####,          
                    ,#############################################,,   '####,        
                  ,##################################################,,,,####,       
                ,###########''''           ''''###############################       
              ,#####''   ,,,,##########,,,,          '''####'''          '####       
            ,##' ,,,,###########################,,,                        '##       
           ' ,,###''''                  '''############,,,                           
         ,,##''                                '''############,,,,        ,,,,,,###''
      ,#''                                            '''#######################'''  
     '                                                          ''''####''''         
             ,#######,   #######,   ,#######,      ##                                
            ,#'     '#,  ##    ##  ,#'     '#,    #''#        ,####,   ,####,        
            ##       ##  ##   ,#'  ##            #'  '#       #'       #'  '#        
            ##       ##  #######   ##           ,######,      #####,   #    #        
            '#,     ,#'  ##    ##  '#,     ,#' ,#      #,     #,   #   #,  ,#        
             '#######'   ##     ##  '#######'  #'      '#     '####' # '####'        



                #########################################################
                #                        -***-                          #
                #          Department of theory and spectroscopy        #
                #                                                       #
                #                      Frank Neese                      #
                #                                                       #
                #     Directorship, Architecture, Infrastructure        #
                #                    SHARK, DRIVERS                     #
                #        Core code/Algorithms in most modules           #
                #                                                       #
                #        Max Planck Institute fuer Kohlenforschung      #
                #                Kaiser Wilhelm Platz 1                 #
                #                 D-45470 Muelheim/Ruhr                 #
                #                      Germany                          #
                #                                                       #
                #                  All rights reserved                  #
                #                        -***-                          #
                #########################################################


                         Program Version 6.0.0  -   RELEASE  -


 With contributions from (in alphabetic order):
   Daniel Aravena         : Magnetic Suceptibility
   Michael Atanasov       : Ab Initio Ligand Field Theory (pilot matlab implementation)
   Alexander A. Auer      : GIAO ZORA, VPT2 properties, NMR spectrum
   Ute Becker             : All parallelization in ORCA, NUMFREQ, NUMCALC
   Giovanni Bistoni       : ED, misc. LED, open-shell LED, HFLD
   Martin Brehm           : Molecular dynamics
   Dmytro Bykov           : pre 5.0 version of the SCF Hessian
   Marcos Casanova-Páez   : Triplet and SCS-CIS(D). UHF-(DLPNO)-IP/EA/STEOM-CCSD. UHF-CVS-IP/STEOM-CCSD
   Vijay G. Chilkuri      : MRCI spin determinant printing, contributions to CSF-ICE
   Pauline Colinet        : FMM embedding
   Dipayan Datta          : RHF DLPNO-CCSD density
   Achintya Kumar Dutta   : EOM-CC, STEOM-CC
   Nicolas Foglia         : Exact transition moments, OPA infrastructure, MCD improvements
   Dmitry Ganyushin       : Spin-Orbit,Spin-Spin,Magnetic field MRCI
   Miquel Garcia          : C-PCM and meta-GGA Hessian, CCSD/C-PCM, Gaussian charge scheme
   Tiago L. C. Gouveia    : GS-ROHF, GS-ROCIS
   Yang Guo               : DLPNO-NEVPT2, F12-NEVPT2, CIM, IAO-localization
   Andreas Hansen         : Spin unrestricted coupled pair/coupled cluster methods
   Ingolf Harden          : AUTO-CI MPn and infrastructure 
   Benjamin Helmich-Paris : MC-RPA, TRAH-(SCF,CASSCF), AVAS, COSX integrals, SCF dyn. polar.
   Lee Huntington         : MR-EOM, pCC
   Robert Izsak           : Overlap fitted RIJCOSX, COSX-SCS-MP3, EOM
   Riya Kayal             : Wick's Theorem for AUTO-CI, AUTO-CI UHF-CCSDT
   Emily Kempfer          : AUTO-CI, RHF CISDT and CCSDT
   Christian Kollmar      : KDIIS, OOCD, Brueckner-CCSD(T), CCSD density, CASPT2, CASPT2-K, improved NEVPT2
   Axel Koslowski         : Symmetry handling
   Simone Kossmann        : Meta GGA functionals, TD-DFT gradient, OOMP2, (MP2 Hessian; deprecated post 5.0)
   Lucas Lang             : DCDCAS
   Marvin Lechner         : AUTO-CI (C++ implementation), FIC-MRCC
   Spencer Leger          : CASSCF response
   Dagmar Lenk            : GEPOL surface, SMD, ORCA-2-JSON
   Dimitrios Liakos       : Extrapolation schemes; Compound Job, initial MDCI parallelization
   Dimitrios Manganas     : Further ROCIS development; embedding schemes. LFT, Crystal Embedding
   Dimitrios Pantazis     : SARC Basis sets
   Anastasios Papadopoulos: AUTO-CI, single reference methods and gradients
   Taras Petrenko         : pre 6.0 DFT Hessian and TD-DFT gradient, (ASA, deprecated), ECA, 1-Electron XAS/XES, NRVS
   Peter Pinski           : DLPNO-MP2, DLPNO-MP2 Gradient
   Christoph Reimann      : Effective Core Potentials
   Marius Retegan         : Local ZFS, SOC
   Christoph Riplinger    : Optimizer, TS searches, QM/MM, DLPNO-CCSD(T), (RO)-DLPNO pert. Triples
   Michael Roemelt        : Original ROCIS implementation
   Masaaki Saitow         : Open-shell DLPNO-CCSD energy and density
   Barbara Sandhoefer     : DKH picture change effects
   Kantharuban Sivalingam : CASSCF convergence/infrastructure, NEVPT2 and variants, FIC-MRCI
   Bernardo de Souza      : ESD, SOC TD-DFT
   Georgi Stoychev        : AutoAux, RI-MP2 NMR, DLPNO-MP2 response, X2C
   Van Anh Tran           : RI-MP2 g-tensors
   Willem Van den Heuvel  : Paramagnetic NMR
   Zikuan Wang            : NOTCH, Electric field optimization 
   Frank Wennmohs         : Technical directorship and infrastructure
   Hang Xu                : AUTO-CI-Response properties 


 We gratefully acknowledge several colleagues who have allowed us to
 interface, adapt or use parts of their codes:
   Stefan Grimme, W. Hujo, H. Kruse, P. Pracht,  : VdW corrections, initial TS optimization,
                  C. Bannwarth, S. Ehlert,         DFT functionals, gCP, sTDA/sTD-DF
                  L. Wittmann, M. Mueller
   Ed Valeev, F. Pavosevic, A. Kumar             : LibInt (2-el integral package), F12 methods
   Garnet Chan, S. Sharma, J. Yang, R. Olivares  : DMRG
   Ulf Ekstrom                                   : XCFun DFT Library
   Mihaly Kallay                                 : mrcc  (arbitrary order and MRCC methods)
   Frank Weinhold                                : gennbo (NPA and NBO analysis)
   Simon Mueller                                 : openCOSMO-RS
   Christopher J. Cramer and Donald G. Truhlar   : smd solvation model
   Lars Goerigk                                  : TD-DFT with DH, B97 family of functionals
   V. Asgeirsson, H. Jonsson                     : NEB implementation
   FAccTs GmbH                                   : IRC, NEB, NEB-TS, DLPNO-Multilevel, CI-OPT
                                                   MM, QMMM, 2- and 3-layer-ONIOM, Crystal-QMMM,
                                                   LR-CPCM, SF, NACMEs, symmetry and pop. for TD-DFT,
                                                   nearIR, NL-DFT gradient (VV10), updates on ESD,
                                                   ML-optimized integration grids, MBIS, APM,
                                                   GOAT, DOCKER, SOLVATOR, interface openCOSMO-RS
   S Lehtola, MJT Oliveira, MAL Marques          : LibXC Library
   Liviu Ungur et al                             : ANISO software


 Your calculation uses the libint2 library for the computation of 2-el integrals
 For citations please refer to: http://libint.valeyev.net

 Your ORCA version has been built with support for libXC version: 6.2.2
 For citations please refer to: https://libxc.gitlab.io

 This ORCA versions uses:
   CBLAS   interface :  Fast vector & matrix operations
   LAPACKE interface :  Fast linear algebra routines
   SCALAPACK package :  Parallel linear algebra routines
   Shared memory     :  Shared parallel matrices
   BLAS/LAPACK       :  OpenBLAS 0.3.27  USE64BITINT DYNAMIC_ARCH NO_AFFINITY SkylakeX SINGLE_THREADED
        Core in use  :  SkylakeX
   Copyright (c) 2011-2014, The OpenBLAS Project


Warning: RI is on but no J-basis has been assigned. Assigning Def2/J (nothing to worry about!)
================================================================================

----- Orbital basis set information -----
Your calculation utilizes the basis: 6-31G*
   H-He, Li-Ne : W. J. Hehre, R. Ditchfield and J.A. Pople, J. Chem. Phys. 56, 2257 (1972).
                 Note: He and Ne are unpublished basis sets taken from the Gaussian program.
                 Note: Li and B from J. D. Dill and J. A. Pople, J. Chem. Phys. 62, 2921 (1975).
   Na - Ar     : M. M. Francl, W. J. Pietro, W. J. Hehre, J. S. Binkley, M. S. Gordon, 
                 D. J. DeFrees and J. A. Pople, J. Chem. Phys. 77, 3654 (1982).
   K - Zn      : V. A. Rassolov, J. A. Pople, M. A. Ratner, and T. L. Windus, J. Chem. Phys. 109, 1223 (1998).

----- AuxJ basis set information -----
Your calculation utilizes the auxiliary basis: def2/J
   F. Weigend, Phys. Chem. Chem. Phys. 8, 1057 (2006).

================================================================================
                                        WARNINGS
                       Please study these warnings very carefully!
================================================================================


================================================================================
                                       INPUT FILE
================================================================================
NAME = /home/nmrbox/aojoawo/Documents/ERDOS/inputs/CHEMBL2442036.inp
|  1> ! B3LYP 6-31G* SP
|  2> 
|  3> * xyz 0 1
|  4> C -1.6822 -0.5280 2.0628
|  5> N -1.3096 -0.8926 0.6903
|  6> C -0.3912 -1.9836 0.4969
|  7> O -0.6847 -2.9053 -0.3126
|  8> C 0.8909 -2.0501 1.2345
|  9> C 1.3627 -3.2959 1.6817
| 10> C 2.5773 -3.3903 2.3626
| 11> C 3.3382 -2.2455 2.5956
| 12> C 2.8926 -1.0028 2.1414
| 13> C 1.6709 -0.8917 1.4470
| 14> O 1.2126 0.3389 0.9438
| 15> C 1.9575 1.5558 0.9137
| 16> C 3.0655 1.4698 -0.1000
| 17> C 2.7728 1.1266 -1.4304
| 18> C 3.7969 1.0475 -2.3789
| 19> C 5.1173 1.3164 -2.0079
| 20> C 5.4150 1.6676 -0.6883
| 21> C 4.3936 1.7481 0.2636
| 22> C -2.0034 -0.3163 -0.4772
| 23> C -1.9097 1.2359 -0.4923
| 24> C -3.2691 1.9261 -0.3144
| 25> C -4.2992 1.4485 -1.3530
| 26> C -4.2384 -0.0784 -1.6401
| 27> N -5.5803 -0.6491 -1.7744
| 28> C -3.4515 -0.8430 -0.5633
| 29> H -2.0325 -1.4299 2.6077
| 30> H -0.8108 -0.0982 2.5970
| 31> H -2.4973 0.2218 2.0777
| 32> H 0.7834 -4.1957 1.5135
| 33> H 2.9286 -4.3529 2.7112
| 34> H 4.2790 -2.3215 3.1256
| 35> H 3.5092 -0.1374 2.3340
| 36> H 2.3324 1.8027 1.9301
| 37> H 1.2741 2.3774 0.6136
| 38> H 1.7528 0.9175 -1.7300
| 39> H 3.5669 0.7785 -3.4018
| 40> H 5.9091 1.2549 -2.7432
| 41> H 6.4375 1.8786 -0.4029
| 42> H 4.6396 2.0234 1.2815
| 43> H -1.4856 -0.6622 -1.4021
| 44> H -1.4796 1.5666 -1.4638
| 45> H -1.2160 1.5992 0.2957
| 46> H -3.6577 1.7257 0.7066
| 47> H -3.1385 3.0261 -0.4055
| 48> H -4.1295 1.9966 -2.3057
| 49> H -5.3086 1.7427 -0.9912
| 50> H -3.7065 -0.2287 -2.6072
| 51> H -6.0788 -0.1517 -2.5481
| 52> H -6.1188 -0.4795 -0.8933
| 53> H -3.4307 -1.9258 -0.8163
| 54> H -3.9666 -0.7371 0.4160
| 55> *
| 56> 
| 57>                          ****END OF INPUT****
================================================================================

                       ****************************
                       * Single Point Calculation *
                       ****************************

---------------------------------
CARTESIAN COORDINATES (ANGSTROEM)
---------------------------------
  C     -1.682200   -0.528000    2.062800
  N     -1.309600   -0.892600    0.690300
  C     -0.391200   -1.983600    0.496900
  O     -0.684700   -2.905300   -0.312600
  C      0.890900   -2.050100    1.234500
  C      1.362700   -3.295900    1.681700
  C      2.577300   -3.390300    2.362600
  C      3.338200   -2.245500    2.595600
  C      2.892600   -1.002800    2.141400
  C      1.670900   -0.891700    1.447000
  O      1.212600    0.338900    0.943800
  C      1.957500    1.555800    0.913700
  C      3.065500    1.469800   -0.100000
  C      2.772800    1.126600   -1.430400
  C      3.796900    1.047500   -2.378900
  C      5.117300    1.316400   -2.007900
  C      5.415000    1.667600   -0.688300
  C      4.393600    1.748100    0.263600
  C     -2.003400   -0.316300   -0.477200
  C     -1.909700    1.235900   -0.492300
  C     -3.269100    1.926100   -0.314400
  C     -4.299200    1.448500   -1.353000
  C     -4.238400   -0.078400   -1.640100
  N     -5.580300   -0.649100   -1.774400
  C     -3.451500   -0.843000   -0.563300
  H     -2.032500   -1.429900    2.607700
  H     -0.810800   -0.098200    2.597000
  H     -2.497300    0.221800    2.077700
  H      0.783400   -4.195700    1.513500
  H      2.928600   -4.352900    2.711200
  H      4.279000   -2.321500    3.125600
  H      3.509200   -0.137400    2.334000
  H      2.332400    1.802700    1.930100
  H      1.274100    2.377400    0.613600
  H      1.752800    0.917500   -1.730000
  H      3.566900    0.778500   -3.401800
  H      5.909100    1.254900   -2.743200
  H      6.437500    1.878600   -0.402900
  H      4.639600    2.023400    1.281500
  H     -1.485600   -0.662200   -1.402100
  H     -1.479600    1.566600   -1.463800
  H     -1.216000    1.599200    0.295700
  H     -3.657700    1.725700    0.706600
  H     -3.138500    3.026100   -0.405500
  H     -4.129500    1.996600   -2.305700
  H     -5.308600    1.742700   -0.991200
  H     -3.706500   -0.228700   -2.607200
  H     -6.078800   -0.151700   -2.548100
  H     -6.118800   -0.479500   -0.893300
  H     -3.430700   -1.925800   -0.816300
  H     -3.966600   -0.737100    0.416000

----------------------------
CARTESIAN COORDINATES (A.U.)
----------------------------
  NO LB      ZA    FRAG     MASS         X           Y           Z
   0 C     6.0000    0    12.011   -3.178897   -0.997775    3.898127
   1 N     7.0000    0    14.007   -2.474785   -1.686770    1.304478
   2 C     6.0000    0    12.011   -0.739261   -3.748461    0.939005
   3 O     8.0000    0    15.999   -1.293895   -5.490221   -0.590728
   4 C     6.0000    0    12.011    1.683557   -3.874128    2.332867
   5 C     6.0000    0    12.011    2.575130   -6.228348    3.177952
   6 C     6.0000    0    12.011    4.870391   -6.406739    4.464667
   7 C     6.0000    0    12.011    6.308284   -4.243380    4.904973
   8 C     6.0000    0    12.011    5.466222   -1.895017    4.046660
   9 C     6.0000    0    12.011    3.157543   -1.685069    2.734434
  10 O     8.0000    0    15.999    2.291482    0.640428    1.783524
  11 C     6.0000    0    12.011    3.699139    2.940036    1.726643
  12 C     6.0000    0    12.011    5.792955    2.777519   -0.188973
  13 C     6.0000    0    12.011    5.239833    2.128965   -2.703064
  14 C     6.0000    0    12.011    7.175101    1.979488   -4.495469
  15 C     6.0000    0    12.011    9.670296    2.487635   -3.794381
  16 C     6.0000    0    12.011   10.232867    3.151307   -1.300698
  17 C     6.0000    0    12.011    8.302701    3.303430    0.498132
  18 C     6.0000    0    12.011   -3.785877   -0.597720   -0.901777
  19 C     6.0000    0    12.011   -3.608810    2.335513   -0.930312
  20 C     6.0000    0    12.011   -6.177704    3.639802   -0.594130
  21 C     6.0000    0    12.011   -8.124311    2.737268   -2.556799
  22 C     6.0000    0    12.011   -8.009415   -0.148155   -3.099340
  23 N     7.0000    0    14.007  -10.545239   -1.226621   -3.353130
  24 C     6.0000    0    12.011   -6.522390   -1.593039   -1.064483
  25 H     1.0000    0     1.008   -3.840868   -2.702119    4.927839
  26 H     1.0000    0     1.008   -1.532190   -0.185571    4.907619
  27 H     1.0000    0     1.008   -4.719213    0.419141    3.926284
  28 H     1.0000    0     1.008    1.480411   -7.928724    2.860101
  29 H     1.0000    0     1.008    5.534252   -8.225789    5.123425
  30 H     1.0000    0     1.008    8.086138   -4.386999    5.906528
  31 H     1.0000    0     1.008    6.631427   -0.259648    4.410621
  32 H     1.0000    0     1.008    4.407597    3.406609    3.647360
  33 H     1.0000    0     1.008    2.407700    4.492635    1.159536
  34 H     1.0000    0     1.008    3.312312    1.733824   -3.269226
  35 H     1.0000    0     1.008    6.740464    1.471152   -6.428470
  36 H     1.0000    0     1.008   11.166581    2.371417   -5.183897
  37 H     1.0000    0     1.008   12.165112    3.550040   -0.761371
  38 H     1.0000    0     1.008    8.767573    3.823672    2.421684
  39 H     1.0000    0     1.008   -2.807377   -1.251377   -2.649585
  40 H     1.0000    0     1.008   -2.796039    2.960445   -2.766181
  41 H     1.0000    0     1.008   -2.297907    3.022050    0.558792
  42 H     1.0000    0     1.008   -6.912051    3.261100    1.335280
  43 H     1.0000    0     1.008   -5.930905    5.718500   -0.766284
  44 H     1.0000    0     1.008   -7.803624    3.773027   -4.357142
  45 H     1.0000    0     1.008  -10.031800    3.293226   -1.873097
  46 H     1.0000    0     1.008   -7.004270   -0.432180   -4.926894
  47 H     1.0000    0     1.008  -11.487267   -0.286671   -4.815211
  48 H     1.0000    0     1.008  -11.562856   -0.906124   -1.688092
  49 H     1.0000    0     1.008   -6.483083   -3.639235   -1.542583
  50 H     1.0000    0     1.008   -7.495788   -1.392917    0.786126

--------------------------------
INTERNAL COORDINATES (ANGSTROEM)
--------------------------------
 C      0   0   0     0.000000000000     0.00000000     0.00000000
 N      1   0   0     1.468168985505     0.00000000     0.00000000
 C      2   1   0     1.439146663825   118.41432187     0.00000000
 O      3   2   1     1.261333972428   119.45331570   129.62148372
 C      3   2   1     1.480627036090   121.31159624   309.90826606
 C      5   3   2     1.405204867626   119.28085741   142.27401106
 C      6   5   3     1.395632233076   120.49294152   179.07969515
 C      7   6   5     1.394211192754   120.06348941   359.52001466
 C      8   7   6     1.396123307591   120.15347595   359.58058148
 C      9   8   7     1.409640188133   120.46616569     0.14051250
 O     10   9   8     1.406280729442   121.84885208   181.82743183
 C     11  10   9     1.427104631763   125.70566896     8.18405213
 C     12  11  10     1.504209988665   110.48376511    70.55935463
 C     13  12  11     1.404785994378   119.91498522    54.48990206
 C     14  13  12     1.398102238751   120.24486720   179.86082252
 C     15  14  13     1.397642432813   120.06891220   359.68834831
 C     16  15  14     1.397608990383   120.01400761   359.86367029
 C     17  16  15     1.398517722448   120.10287095     0.12586552
 C      2   1   3     1.475308910025   121.56304788   170.42118550
 C     19   2   1     1.555098884316   111.66939123    58.24132921
 C     20  19   2     1.534924366215   113.22463222   245.45112751
 C     21  20  19     1.538797494799   112.02914911   305.23569986
 C     22  21  20     1.554846185319   113.78114645    40.10084394
 N     23  22  21     1.464387445316   111.33474078   139.64723086
 C     23  22  21     1.537310316755   112.27811208    16.01587981
 H      1   2   3     1.110427714892   109.69997747   307.91856341
 H      1   2   3     1.108799188311   110.31624263    68.06314351
 H      1   2   3     1.107614580980   111.55840465   188.13491930
 H      6   5   3     1.083291175077   120.49300219   358.34452495
 H      7   6   5     1.082373507621   119.98346725   179.45131295
 H      8   7   6     1.082488170836   119.90059940   179.88716870
 H      9   8   7     1.079910866692   118.23179488   180.34165220
 H     12  11  10     1.111115916545   110.26122890   305.73796345
 H     12  11  10     1.110009968424   108.39060929   189.04967210
 H     14  13  12     1.083458799401   120.34360648   359.64380910
 H     15  14  13     1.082397990575   119.96957754   179.73657856
 H     16  15  14     1.082310297466   119.99202590   180.00658146
 H     17  16  15     1.082349486072   119.94598344   180.18942151
 H     18  17  16     1.082786451707   119.24648949   180.12326099
 H     19   2   1     1.114990430452   108.47344529   174.54664615
 H     20  19   2     1.112726718471   109.17236291   125.03972959
 H     20  19   2     1.110923300683   110.92542634     8.22143612
 H     21  20  19     1.110680476105   109.58934385    66.71017109
 H     21  20  19     1.111465505538   109.35740758   183.90001057
 H     22  21  20     1.112137127336   108.84892128   278.78558625
 H     22  21  20     1.111908827198   107.81625306   163.43872199
 H     23  22  21     1.113907585933   108.14905993   257.87773716
 H     24  23  22     1.046193433357   108.61273971    58.20626128
 H     24  23  22     1.046462431242   109.33968758   301.19503277
 H     25  23  22     1.112158927492   109.54000890   180.38238691
 H     25  23  22     1.111562553346   109.42148866    62.68885161

---------------------------
INTERNAL COORDINATES (A.U.)
---------------------------
 C      0   0   0     0.000000000000     0.00000000     0.00000000
 N      1   0   0     2.774437300922     0.00000000     0.00000000
 C      2   1   0     2.719593061177   118.41432187     0.00000000
 O      3   2   1     2.383575771299   119.45331570   129.62148372
 C      3   2   1     2.797979604689   121.31159624   309.90826606
 C      5   3   2     2.655452361866   119.28085741   142.27401106
 C      6   5   3     2.637362704186   120.49294152   179.07969515
 C      7   6   5     2.634677327152   120.06348941   359.52001466
 C      8   7   6     2.638290700532   120.15347595   359.58058148
 C      9   8   7     2.663833902941   120.46616569     0.14051250
 O     10   9   8     2.657485446056   121.84885208   181.82743183
 C     11  10   9     2.696836918483   125.70566896     8.18405213
 C     12  11  10     2.842544926486   110.48376511    70.55935463
 C     13  12  11     2.654660806142   119.91498522    54.48990206
 C     14  13  12     2.642030338461   120.24486720   179.86082252
 C     15  14  13     2.641161431164   120.06891220   359.68834831
 C     16  15  14     2.641098234130   120.01400761   359.86367029
 C     17  16  15     2.642815488861   120.10287095     0.12586552
 C      2   1   3     2.787929802882   121.56304788   170.42118550
 C     19   2   1     2.938711002523   111.66939123    58.24132921
 C     20  19   2     2.900586688429   113.22463222   245.45112751
 C     21  20  19     2.907905840734   112.02914911   305.23569986
 C     22  21  20     2.938233470624   113.78114645    40.10084394
 N     23  22  21     2.767291225600   111.33474078   139.64723086
 C     23  22  21     2.905095481518   112.27811208    16.01587981
 H      1   2   3     2.098404272662   109.69997747   307.91856341
 H      1   2   3     2.095326803423   110.31624263    68.06314351
 H      1   2   3     2.093088219991   111.55840465   188.13491930
 H      6   5   3     2.047123644190   120.49300219   358.34452495
 H      7   6   5     2.045389504016   119.98346725   179.45131295
 H      8   7   6     2.045606186090   119.90059940   179.88716870
 H      9   8   7     2.040735787094   118.23179488   180.34165220
 H     12  11  10     2.099704785311   110.26122890   305.73796345
 H     12  11  10     2.097614846243   108.39060929   189.04967210
 H     14  13  12     2.047440408255   120.34360648   359.64380910
 H     15  14  13     2.045435770093   119.96957754   179.73657856
 H     16  15  14     2.045270054133   119.99202590   180.00658146
 H     17  16  15     2.045344109866   119.94598344   180.18942151
 H     18  17  16     2.046169855246   119.24648949   180.12326099
 H     19   2   1     2.107026555498   108.47344529   174.54664615
 H     20  19   2     2.102748759808   109.17236291   125.03972959
 H     20  19   2     2.099340794082   110.92542634     8.22143612
 H     21  20  19     2.098881922131   109.58934385    66.71017109
 H     21  20  19     2.100365412766   109.35740758   183.90001057
 H     22  21  20     2.101634594032   108.84892128   278.78558625
 H     22  21  20     2.101203169293   107.81625306   163.43872199
 H     23  22  21     2.104980275912   108.14905993   257.87773716
 H     24  23  22     1.977019072152   108.61273971    58.20626128
 H     24  23  22     1.977527404484   109.33968758   301.19503277
 H     25  23  22     2.101675790355   109.54000890   180.38238691
 H     25  23  22     2.100548806545   109.42148866    62.68885161

---------------------
BASIS SET INFORMATION
---------------------
There are 4 groups of distinct atoms

 Group   1 Type C   : 10s4p1d contracted to 3s2p1d pattern {631/31/1}
 Group   2 Type N   : 10s4p1d contracted to 3s2p1d pattern {631/31/1}
 Group   3 Type O   : 10s4p1d contracted to 3s2p1d pattern {631/31/1}
 Group   4 Type H   : 4s contracted to 2s pattern {31}

Atom   0C    basis set group =>   1
Atom   1N    basis set group =>   2
Atom   2C    basis set group =>   1
Atom   3O    basis set group =>   3
Atom   4C    basis set group =>   1
Atom   5C    basis set group =>   1
Atom   6C    basis set group =>   1
Atom   7C    basis set group =>   1
Atom   8C    basis set group =>   1
Atom   9C    basis set group =>   1
Atom  10O    basis set group =>   3
Atom  11C    basis set group =>   1
Atom  12C    basis set group =>   1
Atom  13C    basis set group =>   1
Atom  14C    basis set group =>   1
Atom  15C    basis set group =>   1
Atom  16C    basis set group =>   1
Atom  17C    basis set group =>   1
Atom  18C    basis set group =>   1
Atom  19C    basis set group =>   1
Atom  20C    basis set group =>   1
Atom  21C    basis set group =>   1
Atom  22C    basis set group =>   1
Atom  23N    basis set group =>   2
Atom  24C    basis set group =>   1
Atom  25H    basis set group =>   4
Atom  26H    basis set group =>   4
Atom  27H    basis set group =>   4
Atom  28H    basis set group =>   4
Atom  29H    basis set group =>   4
Atom  30H    basis set group =>   4
Atom  31H    basis set group =>   4
Atom  32H    basis set group =>   4
Atom  33H    basis set group =>   4
Atom  34H    basis set group =>   4
Atom  35H    basis set group =>   4
Atom  36H    basis set group =>   4
Atom  37H    basis set group =>   4
Atom  38H    basis set group =>   4
Atom  39H    basis set group =>   4
Atom  40H    basis set group =>   4
Atom  41H    basis set group =>   4
Atom  42H    basis set group =>   4
Atom  43H    basis set group =>   4
Atom  44H    basis set group =>   4
Atom  45H    basis set group =>   4
Atom  46H    basis set group =>   4
Atom  47H    basis set group =>   4
Atom  48H    basis set group =>   4
Atom  49H    basis set group =>   4
Atom  50H    basis set group =>   4
---------------------------------
AUXILIARY/J BASIS SET INFORMATION
---------------------------------
There are 4 groups of distinct atoms

 Group   1 Type C   : 12s5p4d2f1g contracted to 6s4p3d1f1g pattern {711111/2111/211/2/1}
 Group   2 Type N   : 12s5p4d2f1g contracted to 6s4p3d1f1g pattern {711111/2111/211/2/1}
 Group   3 Type O   : 12s5p4d2f1g contracted to 6s4p3d1f1g pattern {711111/2111/211/2/1}
 Group   4 Type H   : 5s2p1d contracted to 3s1p1d pattern {311/2/1}

Atom   0C    basis set group =>   1
Atom   1N    basis set group =>   2
Atom   2C    basis set group =>   1
Atom   3O    basis set group =>   3
Atom   4C    basis set group =>   1
Atom   5C    basis set group =>   1
Atom   6C    basis set group =>   1
Atom   7C    basis set group =>   1
Atom   8C    basis set group =>   1
Atom   9C    basis set group =>   1
Atom  10O    basis set group =>   3
Atom  11C    basis set group =>   1
Atom  12C    basis set group =>   1
Atom  13C    basis set group =>   1
Atom  14C    basis set group =>   1
Atom  15C    basis set group =>   1
Atom  16C    basis set group =>   1
Atom  17C    basis set group =>   1
Atom  18C    basis set group =>   1
Atom  19C    basis set group =>   1
Atom  20C    basis set group =>   1
Atom  21C    basis set group =>   1
Atom  22C    basis set group =>   1
Atom  23N    basis set group =>   2
Atom  24C    basis set group =>   1
Atom  25H    basis set group =>   4
Atom  26H    basis set group =>   4
Atom  27H    basis set group =>   4
Atom  28H    basis set group =>   4
Atom  29H    basis set group =>   4
Atom  30H    basis set group =>   4
Atom  31H    basis set group =>   4
Atom  32H    basis set group =>   4
Atom  33H    basis set group =>   4
Atom  34H    basis set group =>   4
Atom  35H    basis set group =>   4
Atom  36H    basis set group =>   4
Atom  37H    basis set group =>   4
Atom  38H    basis set group =>   4
Atom  39H    basis set group =>   4
Atom  40H    basis set group =>   4
Atom  41H    basis set group =>   4
Atom  42H    basis set group =>   4
Atom  43H    basis set group =>   4
Atom  44H    basis set group =>   4
Atom  45H    basis set group =>   4
Atom  46H    basis set group =>   4
Atom  47H    basis set group =>   4
Atom  48H    basis set group =>   4
Atom  49H    basis set group =>   4
Atom  50H    basis set group =>   4
------------------------------------------------------------------------------
                             ORCA STARTUP CALCULATIONS
                           -- RI-GTO INTEGRALS CHOSEN --
------------------------------------------------------------------------------
------------------------------------------------------------------------------
                   ___                                                        
                  /   \      - P O W E R E D   B Y -                         
                 /     \                                                     
                 |  |  |   _    _      __       _____    __    __             
                 |  |  |  | |  | |    /  \     |  _  \  |  |  /  |          
                  \  \/   | |  | |   /    \    | | | |  |  | /  /          
                 / \  \   | |__| |  /  /\  \   | |_| |  |  |/  /          
                |  |  |   |  __  | /  /__\  \  |    /   |      \           
                |  |  |   | |  | | |   __   |  |    \   |  |\   \          
                \     /   | |  | | |  |  |  |  | |\  \  |  | \   \       
                 \___/    |_|  |_| |__|  |__|  |_| \__\ |__|  \__/        
                                                                              
                      - O R C A' S   B I G   F R I E N D -                    
                                      &                                       
                       - I N T E G R A L  F E E D E R -                       
                                                                              
 v1 FN, 2020, v2 2021, v3 2022-2024                                           
------------------------------------------------------------------------------


----------------------
SHARK INTEGRAL PACKAGE
----------------------

Number of atoms                             ...     51
Number of basis functions                   ...    402
Number of shells                            ...    202
Maximum angular momentum                    ...      2
Integral batch strategy                     ... SHARK/LIBINT Hybrid
RI-J (if used) integral strategy            ... SPLIT-RIJ (Revised 2003 algorithm where possible)
Printlevel                                  ...      1
Contraction scheme used                     ... SEGMENTED contraction
Prescreening option                         ... SCHWARTZ
   Thresh                                   ... 1.000e-10
   Tcut                                     ... 1.000e-11
   Tpresel                                  ... 1.000e-11 
Coulomb Range Separation                    ... NOT USED
Exchange Range Separation                   ... NOT USED
Multipole approximations                    ... NOT USED
Finite Nucleus Model                        ... NOT USED
CABS basis                                  ... NOT available
Auxiliary Coulomb fitting basis             ... AVAILABLE
   # of basis functions in Aux-J            ...   1511
   # of shells in Aux-J                     ...    505
   Maximum angular momentum in Aux-J        ...      4
Auxiliary J/K fitting basis                 ... NOT available
Auxiliary Correlation fitting basis         ... NOT available
Auxiliary 'external' fitting basis          ... NOT available

Checking pre-screening integrals            ... done (  0.0 sec) Dimension = 202
Check shell pair data                       ... done (  0.0 sec)
Shell pair information
Shell pair cut-off parameter TPreSel        ...   1.0e-11
Total number of shell pairs                 ...     20503
Shell pairs after pre-screening             ...     13589
Total number of primitive shell pairs       ...    115563
Primitive shell pairs kept                  ...     40901
          la=0 lb=0:   5083 shell pairs
          la=1 lb=0:   4596 shell pairs
          la=1 lb=1:   1048 shell pairs
          la=2 lb=0:   1818 shell pairs
          la=2 lb=1:    880 shell pairs
          la=2 lb=2:    164 shell pairs

Calculating one electron integrals          ... done (  0.2 sec)
Calculating RI/J V-Matrix + Cholesky decomp.... done (  0.3 sec)
Calculating Nuclear repulsion               ... done (  0.0 sec) ENN=   2191.950070397319 Eh

Diagonalization of the overlap matrix:
Smallest eigenvalue                        ... 4.414e-04
Time for diagonalization                   ...    0.021 sec
Threshold for overlap eigenvalues          ... 1.000e-07
Number of eigenvalues below threshold      ... 0
Time for construction of square roots      ...    0.023 sec
Total time needed                          ...    0.058 sec

-------------------
DFT GRID GENERATION
-------------------

General Integration Accuracy     IntAcc      ... 4.388
Radial Grid Type                 RadialGrid  ... OptM3 with GC (2021)
Angular Grid (max. ang.)         AngularGrid ... 4 (Lebedev-302)
Angular grid pruning method      GridPruning ... 4 (adaptive)
Weight generation scheme         WeightScheme... mBecke (2022)
Basis function cutoff            BFCut       ... 1.0000e-10
Integration weight cutoff        WCut        ... 1.0000e-14
Partially contracted basis set               ... off
Rotationally invariant grid construction     ... off
Angular grids for H and He will be reduced by one unit

Total number of grid points                  ...   231213
Total number of batches                      ...     3642
Average number of points per batch           ...       63
Average number of grid points per atom       ...     4534

--------------------
COSX GRID GENERATION
--------------------

GRIDX 1
-------
General Integration Accuracy     IntAcc      ... 3.816
Radial Grid Type                 RadialGrid  ... OptM3 with GC (2021)
Angular Grid (max. ang.)         AngularGrid ... 1 (Lebedev-50)
Angular grid pruning method      GridPruning ... 4 (adaptive)
Weight generation scheme         WeightScheme... mBecke (2022)
Basis function cutoff            BFCut       ... 1.0000e-10
Integration weight cutoff        WCut        ... 1.0000e-14
Partially contracted basis set               ... on
Rotationally invariant grid construction     ... off
Angular grids for H and He will be reduced by one unit

Total number of grid points                  ...    29357
Total number of batches                      ...      258
Average number of points per batch           ...      113
Average number of grid points per atom       ...      576
UseSFitting                                  ... on

GRIDX 2
-------
General Integration Accuracy     IntAcc      ... 4.020
Radial Grid Type                 RadialGrid  ... OptM3 with GC (2021)
Angular Grid (max. ang.)         AngularGrid ... 2 (Lebedev-110)
Angular grid pruning method      GridPruning ... 4 (adaptive)
Weight generation scheme         WeightScheme... mBecke (2022)
Basis function cutoff            BFCut       ... 1.0000e-10
Integration weight cutoff        WCut        ... 1.0000e-14
Partially contracted basis set               ... on
Rotationally invariant grid construction     ... off
Angular grids for H and He will be reduced by one unit

Total number of grid points                  ...    62390
Total number of batches                      ...      512
Average number of points per batch           ...      121
Average number of grid points per atom       ...     1223
UseSFitting                                  ... on

GRIDX 3
-------
General Integration Accuracy     IntAcc      ... 4.338
Radial Grid Type                 RadialGrid  ... OptM3 with GC (2021)
Angular Grid (max. ang.)         AngularGrid ... 3 (Lebedev-194)
Angular grid pruning method      GridPruning ... 4 (adaptive)
Weight generation scheme         WeightScheme... mBecke (2022)
Basis function cutoff            BFCut       ... 1.0000e-10
Integration weight cutoff        WCut        ... 1.0000e-14
Partially contracted basis set               ... on
Rotationally invariant grid construction     ... off
Angular grids for H and He will be reduced by one unit

Total number of grid points                  ...   135915
Total number of batches                      ...     1088
Average number of points per batch           ...      124
Average number of grid points per atom       ...     2665
UseSFitting                                  ... on
Initializing property integral containers    ... done (  0.0 sec)

SHARK setup successfully completed in   9.3 seconds

Maximum memory used throughout the entire STARTUP-calculation: 98.2 MB
-------------------------------------------------------------------------------
                                 ORCA GUESS
                   Start orbitals & Density for SCF / CASSCF
-------------------------------------------------------------------------------

------------
SCF SETTINGS
------------
Hamiltonian:
 Density Functional     Method          .... DFT(GTOs)
 Exchange Functional    Exchange        .... B88
   X-Alpha parameter    XAlpha          ....  0.666667
   Becke's b parameter  XBeta           ....  0.004200
 Correlation Functional Correlation     .... LYP
 LDA part of GGA corr.  LDAOpt          .... VWN-5
 Gradients option       PostSCFGGA      .... off
 Hybrid DFT is turned on
   Fraction HF Exchange ScalHFX         ....  0.200000
   Scaling of DF-GGA-X  ScalDFX         ....  0.720000
   Scaling of DF-GGA-C  ScalDFC         ....  0.810000
   Scaling of DF-LDA-C  ScalLDAC        ....  1.000000
   Perturbative correction              ....  0.000000
   NL short-range parameter             ....  4.800000
 RI-approximation to the Coulomb term is turned on
   Number of AuxJ basis functions       .... 1511
   RIJ-COSX (HFX calculated with COS-X)).... on


General Settings:
 Integral files         IntName         .... /home/nmrbox/aojoawo/Documents/ERDOS/inputs/CHEMBL2442036
 Hartree-Fock type      HFTyp           .... RHF
 Total Charge           Charge          ....    0
 Multiplicity           Mult            ....    1
 Number of Electrons    NEL             ....  182
 Basis Dimension        Dim             ....  402
 Nuclear Repulsion      ENuc            ....   2191.9500703973 Eh

Convergence Acceleration:
 AO-DIIS                CNVDIIS         .... on
   Start iteration      DIISMaxIt       ....    12
   Startup error        DIISStart       ....  0.200000
   # of expansion vecs  DIISMaxEq       ....     5
   Bias factor          DIISBfac        ....   1.050
   Max. coefficient     DIISMaxC        ....  10.000
 MO-DIIS                CNVKDIIS        .... off
 Trust-Rad. Augm. Hess. CNVTRAH         .... auto
   Auto Start mean grad. ratio tolernc. ....  1.125000
   Auto Start start iteration           ....    50
   Auto Start num. interpolation iter.  ....    10
   Max. Number of Micro iterations      ....    24
   Max. Number of Macro iterations      .... Maxiter - #DIIS iter
   Number of Davidson start vectors     ....     2
   Converg. threshold    (grad. norm)   ....   5.000e-05
   Grad. Scal. Fac. for Micro threshold ....   0.100
   Minimum threshold for Micro iter.    ....   1.000e-02
   NR start threshold (gradient norm)   ....   1.000e-04
   Initial trust radius                 ....   0.400
   Minimum AH scaling param. (alpha)    ....   1.000
   Maximum AH scaling param. (alpha)    .... 1000.000
   Quad. conv. algorithm                .... NR
   White noise on init. David. guess    .... on
   Maximum white noise                  ....   0.010
   Pseudo random numbers                .... off
   Inactive MOs                         .... canonical
   Orbital update algorithm             .... Taylor
   Preconditioner                       .... Diag
   Full preconditioner red. dimension   ....   250
 SOSCF                  CNVSOSCF        .... on
   Start iteration      SOSCFMaxIt      ....   150
   Startup grad/error   SOSCFStart      ....  0.003300
   Hessian update       SOSCFHessUp     .... L-BFGS
 Level Shifting         CNVShift        .... on
   Level shift para.    LevelShift      ....    0.2500
   Turn off err/grad.   ShiftErr        ....    0.0010
 Zerner damping         CNVZerner       .... off
 Static damping         CNVDamp         .... on
   Fraction old density DampFac         ....    0.7000
   Max. Damping (<1)    DampMax         ....    0.9800
   Min. Damping (>=0)   DampMin         ....    0.0000
   Turn off err/grad.   DampErr         ....    0.1000

SCF Procedure:
 Maximum # iterations   MaxIter         ....   125
 SCF integral mode      SCFMode         .... Direct
   Integral package                     .... SHARK and LIBINT hybrid scheme
 Reset frequency        DirectResetFreq ....    20
 Integral Threshold     Thresh          ....  1.000e-10 Eh
 Primitive CutOff       TCut            ....  1.000e-11 Eh

Convergence Tolerance:
 Convergence Check Mode ConvCheckMode   .... Total+1el-Energy
 Convergence forced     ConvForced      .... 0
 Energy Change          TolE            ....  1.000e-06 Eh
 1-El. energy change                    ....  1.000e-03 Eh
 Orbital Gradient       TolG            ....  5.000e-05
 Orbital Rotation angle TolX            ....  5.000e-05
 DIIS Error             TolErr          ....  1.000e-06

------------------------------
INITIAL GUESS: MODEL POTENTIAL
------------------------------
Loading Hartree-Fock densities                     ... done
Calculating cut-offs                               ... done
Initializing the effective Hamiltonian             ... done
Setting up the integral package (SHARK)            ... done
Starting the Coulomb interaction                   ... done (   2.2 sec)
Making the grid                                    ... done (   1.1 sec)
Mapping shells                                     ... done
Starting the XC term evaluation                    ... done (   0.8 sec)
  promolecular density results
     # of electrons  =    181.982956343
     EX              =   -145.178581596
     EC              =     -6.115915741
     EX+EC           =   -151.294497338
Transforming the Hamiltonian                       ... done (   0.0 sec)
Diagonalizing the Hamiltonian                      ... done (   0.0 sec)
Back transforming the eigenvectors                 ... done (   0.1 sec)
Now organizing SCF variables                       ... done
                      ------------------
                      INITIAL GUESS DONE (   4.3 sec)
                      ------------------
             **** ENERGY FILE WAS UPDATED (/home/nmrbox/aojoawo/Documents/ERDOS/inputs/CHEMBL2442036.en.tmp) ****
Finished Guess after   4.6 sec
Maximum memory used throughout the entire GUESS-calculation: 51.3 MB

-------------------------------------------------------------------------------------------
                                      ORCA LEAN-SCF
                              memory conserving SCF solver
-------------------------------------------------------------------------------------------

----------------------------------------D-I-I-S--------------------------------------------
Iteration    Energy (Eh)           Delta-E    RMSDP     MaxDP     DIISErr   Damp  Time(sec)
-------------------------------------------------------------------------------------------
               ***  Starting incremental Fock matrix formation  ***
    1    -1074.4525617738031542     0.00e+00  2.23e-03  9.28e-02  2.59e-01  0.700  41.4
    2    -1074.7577533316016343    -3.05e-01  1.57e-03  5.23e-02  1.18e-01  0.700  19.2
                               ***Turning on AO-DIIS***
    3    -1074.8790168477239604    -1.21e-01  6.63e-04  1.64e-02  3.56e-02  0.700  19.0
    4    -1074.9516368518152376    -7.26e-02  1.03e-03  2.49e-02  1.54e-02  0.000  17.6
    5    -1075.1102111498366867    -1.59e-01  2.45e-04  7.97e-03  7.24e-03  0.000  18.2
                              *** Initializing SOSCF ***
---------------------------------------S-O-S-C-F--------------------------------------
Iteration    Energy (Eh)           Delta-E    RMSDP     MaxDP     MaxGrad    Time(sec)
--------------------------------------------------------------------------------------
    6    -1075.1112973737363063    -1.09e-03  8.11e-05  2.38e-03  2.31e-03    15.9
               *** Restarting incremental Fock matrix formation ***
    7    -1075.1113405259711726    -4.32e-05  5.84e-05  3.34e-03  4.58e-04    41.7
    8    -1075.1113137818051655     2.67e-05  3.41e-05  2.50e-03  1.03e-03    23.7
    9    -1075.1113517269209297    -3.79e-05  9.84e-06  3.35e-04  8.77e-05    20.1
   10    -1075.1113509314632211     7.95e-07  5.99e-06  2.25e-04  2.06e-04    17.6
                 **** Energy Check signals convergence ****

               *****************************************************
               *                     SUCCESS                       *
               *           SCF CONVERGED AFTER  10 CYCLES          *
               *****************************************************

Recomputing exchange energy using gridx3       ... done (   71.083 sec)
Old exchange energy                            :    -29.560410017 Eh
New exchange energy                            :    -29.560483896 Eh
Exchange energy change after final integration :     -0.000073879 Eh
Total energy after final integration           :  -1075.111424811 Eh
             **** ENERGY FILE WAS UPDATED (/home/nmrbox/aojoawo/Documents/ERDOS/inputs/CHEMBL2442036.en.tmp) ****

----------------
TOTAL SCF ENERGY
----------------

Total Energy       :      -1075.11142481077877 Eh          -29255.26918 eV

Components:
Nuclear Repulsion  :       2191.95007039731945 Eh           59645.99376 eV
Electronic Energy  :      -3267.06142132878267 Eh          -88901.26093 eV
One Electron Energy:      -5817.20582517379171 Eh         -158294.21803 eV
Two Electron Energy:       2550.14440384500904 Eh           69392.95710 eV

Virial components:
Potential Energy   :      -2143.27552519078472 Eh          -58321.49205 eV
Kinetic Energy     :       1068.16410038000618 Eh           29066.22287 eV
Virial Ratio       :          2.00650398607134

DFT components:
N(Alpha)           :       91.000119798921 electrons
N(Beta)            :       91.000119798921 electrons
N(Total)           :      182.000239597842 electrons
E(X)               :     -117.339371557422 Eh       
E(C)               :       -7.205099004809 Eh       
E(XC)              :     -124.544470562231 Eh       

---------------
SCF CONVERGENCE
---------------

  Last Energy change         ...   -7.9546e-07  Tolerance :   1.0000e-06
  Last MAX-Density change    ...    2.2510e-04  Tolerance :   1.0000e-05
  Last RMS-Density change    ...    5.9881e-06  Tolerance :   1.0000e-06
  Last DIIS Error            ...    2.3111e-03  Tolerance :   1.0000e-06
  Last Orbital Gradient      ...    2.0646e-04  Tolerance :   5.0000e-05
  Last Orbital Rotation      ...    3.0896e-04  Tolerance :   5.0000e-05


----------------
ORBITAL ENERGIES
----------------

  NO   OCC          E(Eh)            E(eV) 
   0   2.0000     -19.169772      -521.6360 
   1   2.0000     -19.099481      -519.7233 
   2   2.0000     -14.322264      -389.7286 
   3   2.0000     -14.294522      -388.9737 
   4   2.0000     -10.271820      -279.5104 
   5   2.0000     -10.255098      -279.0554 
   6   2.0000     -10.246752      -278.8283 
   7   2.0000     -10.205661      -277.7101 
   8   2.0000     -10.202304      -277.6188 
   9   2.0000     -10.195255      -277.4270 
  10   2.0000     -10.193544      -277.3804 
  11   2.0000     -10.191560      -277.3264 
  12   2.0000     -10.187370      -277.2124 
  13   2.0000     -10.187344      -277.2117 
  14   2.0000     -10.185363      -277.1578 
  15   2.0000     -10.185154      -277.1521 
  16   2.0000     -10.184477      -277.1337 
  17   2.0000     -10.184048      -277.1220 
  18   2.0000     -10.183990      -277.1204 
  19   2.0000     -10.183757      -277.1141 
  20   2.0000     -10.176368      -276.9130 
  21   2.0000     -10.171827      -276.7895 
  22   2.0000     -10.169777      -276.7337 
  23   2.0000     -10.166040      -276.6320 
  24   2.0000     -10.157630      -276.4032 
  25   2.0000      -1.049465       -28.5574 
  26   2.0000      -0.996143       -27.1064 
  27   2.0000      -0.896589       -24.3974 
  28   2.0000      -0.868856       -23.6428 
  29   2.0000      -0.856706       -23.3122 
  30   2.0000      -0.848712       -23.0946 
  31   2.0000      -0.794765       -21.6267 
  32   2.0000      -0.777842       -21.1662 
  33   2.0000      -0.754989       -20.5443 
  34   2.0000      -0.745339       -20.2817 
  35   2.0000      -0.739151       -20.1133 
  36   2.0000      -0.727867       -19.8063 
  37   2.0000      -0.702670       -19.1206 
  38   2.0000      -0.685239       -18.6463 
  39   2.0000      -0.675996       -18.3948 
  40   2.0000      -0.632937       -17.2231 
  41   2.0000      -0.609288       -16.5796 
  42   2.0000      -0.605094       -16.4654 
  43   2.0000      -0.603200       -16.4139 
  44   2.0000      -0.588729       -16.0201 
  45   2.0000      -0.578951       -15.7541 
  46   2.0000      -0.545138       -14.8340 
  47   2.0000      -0.526493       -14.3266 
  48   2.0000      -0.517978       -14.0949 
  49   2.0000      -0.511834       -13.9277 
  50   2.0000      -0.497448       -13.5363 
  51   2.0000      -0.483471       -13.1559 
  52   2.0000      -0.476718       -12.9722 
  53   2.0000      -0.470912       -12.8142 
  54   2.0000      -0.467742       -12.7279 
  55   2.0000      -0.459776       -12.5111 
  56   2.0000      -0.452095       -12.3021 
  57   2.0000      -0.446800       -12.1581 
  58   2.0000      -0.437986       -11.9182 
  59   2.0000      -0.431766       -11.7489 
  60   2.0000      -0.429908       -11.6984 
  61   2.0000      -0.424128       -11.5411 
  62   2.0000      -0.420471       -11.4416 
  63   2.0000      -0.416885       -11.3440 
  64   2.0000      -0.402281       -10.9466 
  65   2.0000      -0.395899       -10.7729 
  66   2.0000      -0.390485       -10.6256 
  67   2.0000      -0.384551       -10.4642 
  68   2.0000      -0.380364       -10.3502 
  69   2.0000      -0.374300       -10.1852 
  70   2.0000      -0.370196       -10.0736 
  71   2.0000      -0.364109        -9.9079 
  72   2.0000      -0.361486        -9.8365 
  73   2.0000      -0.358362        -9.7515 
  74   2.0000      -0.352767        -9.5993 
  75   2.0000      -0.348860        -9.4930 
  76   2.0000      -0.345824        -9.4104 
  77   2.0000      -0.338604        -9.2139 
  78   2.0000      -0.332505        -9.0479 
  79   2.0000      -0.315470        -8.5844 
  80   2.0000      -0.313434        -8.5290 
  81   2.0000      -0.312537        -8.5046 
  82   2.0000      -0.300356        -8.1731 
  83   2.0000      -0.294482        -8.0133 
  84   2.0000      -0.254458        -6.9241 
  85   2.0000      -0.250603        -6.8192 
  86   2.0000      -0.245858        -6.6901 
  87   2.0000      -0.232026        -6.3138 
  88   2.0000      -0.221674        -6.0321 
  89   2.0000      -0.215146        -5.8544 
  90   2.0000      -0.197104        -5.3635 
  91   0.0000      -0.032839        -0.8936 
  92   0.0000      -0.009318        -0.2535 
  93   0.0000      -0.002930        -0.0797 
  94   0.0000       0.007935         0.2159 
  95   0.0000       0.045985         1.2513 
  96   0.0000       0.070620         1.9217 
  97   0.0000       0.080136         2.1806 
  98   0.0000       0.088686         2.4133 
  99   0.0000       0.089924         2.4470 
 100   0.0000       0.099657         2.7118 
 101   0.0000       0.103086         2.8051 
*Only the first 10 virtual orbitals were printed.

                    ********************************
                    * MULLIKEN POPULATION ANALYSIS *
                    ********************************

-----------------------
MULLIKEN ATOMIC CHARGES
-----------------------
   0 C :   -0.318833
   1 N :   -0.400162
   2 C :    0.434577
   3 O :   -0.461841
   4 C :    0.035761
   5 C :   -0.148650
   6 C :   -0.137272
   7 C :   -0.115634
   8 C :   -0.193620
   9 C :    0.334651
  10 O :   -0.513845
  11 C :   -0.113133
  12 C :    0.129457
  13 C :   -0.158083
  14 C :   -0.125273
  15 C :   -0.123105
  16 C :   -0.125704
  17 C :   -0.175518
  18 C :    0.046169
  19 C :   -0.289592
  20 C :   -0.262693
  21 C :   -0.272627
  22 C :    0.033189
  23 N :   -0.702599
  24 C :   -0.262264
  25 H :    0.154819
  26 H :    0.156783
  27 H :    0.157106
  28 H :    0.156857
  29 H :    0.129035
  30 H :    0.133221
  31 H :    0.133486
  32 H :    0.138218
  33 H :    0.165928
  34 H :    0.142556
  35 H :    0.133962
  36 H :    0.130436
  37 H :    0.129227
  38 H :    0.122852
  39 H :    0.149397
  40 H :    0.128084
  41 H :    0.152898
  42 H :    0.126316
  43 H :    0.126233
  44 H :    0.123219
  45 H :    0.118079
  46 H :    0.126061
  47 H :    0.284662
  48 H :    0.281306
  49 H :    0.174972
  50 H :    0.110929
Sum of atomic charges:    0.0000000

--------------------------------
MULLIKEN REDUCED ORBITAL CHARGES
--------------------------------
  0 C s       :     3.265094  s :     3.265094
      pz      :     0.860140  p :     3.004846
      px      :     1.072638
      py      :     1.072069
      dz2     :     0.011464  d :     0.048893
      dxz     :     0.011786
      dyz     :     0.012550
      dx2y2   :     0.003321
      dxy     :     0.009773

  1 N s       :     3.530386  s :     3.530386
      pz      :     1.055881  p :     3.836668
      px      :     1.397930
      py      :     1.382857
      dz2     :     0.009669  d :     0.033108
      dxz     :     0.007209
      dyz     :     0.006770
      dx2y2   :     0.004096
      dxy     :     0.005365

  2 C s       :     3.054866  s :     3.054866
      pz      :     0.817345  p :     2.410240
      px      :     0.832226
      py      :     0.760669
      dz2     :     0.015919  d :     0.100317
      dxz     :     0.017232
      dyz     :     0.015150
      dx2y2   :     0.028002
      dxy     :     0.024014

  3 O s       :     3.887319  s :     3.887319
      pz      :     1.406508  p :     4.549473
      px      :     1.722411
      py      :     1.420554
      dz2     :     0.006799  d :     0.025050
      dxz     :     0.002824
      dyz     :     0.006920
      dx2y2   :     0.004287
      dxy     :     0.004219

  4 C s       :     3.150726  s :     3.150726
      pz      :     1.005443  p :     2.776230
      px      :     0.901550
      py      :     0.869238
      dz2     :     0.003988  d :     0.037283
      dxz     :     0.005302
      dyz     :     0.007214
      dx2y2   :     0.010231
      dxy     :     0.010548

  5 C s       :     3.211541  s :     3.211541
      pz      :     0.957216  p :     2.900635
      px      :     0.953017
      py      :     0.990402
      dz2     :     0.005676  d :     0.036474
      dxz     :     0.004734
      dyz     :     0.005376
      dx2y2   :     0.008807
      dxy     :     0.011881

  6 C s       :     3.183918  s :     3.183918
      pz      :     1.002592  p :     2.917501
      px      :     0.954264
      py      :     0.960645
      dz2     :     0.004133  d :     0.035852
      dxz     :     0.005196
      dyz     :     0.005843
      dx2y2   :     0.010684
      dxy     :     0.009996

  7 C s       :     3.189550  s :     3.189550
      pz      :     0.975018  p :     2.888983
      px      :     0.974359
      py      :     0.939605
      dz2     :     0.002951  d :     0.037100
      dxz     :     0.005864
      dyz     :     0.007536
      dx2y2   :     0.011540
      dxy     :     0.009210

  8 C s       :     3.179529  s :     3.179529
      pz      :     1.022688  p :     2.979963
      px      :     0.971314
      py      :     0.985961
      dz2     :     0.005085  d :     0.034128
      dxz     :     0.004964
      dyz     :     0.004898
      dx2y2   :     0.008605
      dxy     :     0.010576

  9 C s       :     3.104458  s :     3.104458
      pz      :     0.919030  p :     2.494972
      px      :     0.895335
      py      :     0.680607
      dz2     :     0.008705  d :     0.065920
      dxz     :     0.007280
      dyz     :     0.015120
      dx2y2   :     0.016970
      dxy     :     0.017845

 10 O s       :     3.879972  s :     3.879972
      pz      :     1.758427  p :     4.607563
      px      :     1.648626
      py      :     1.200510
      dz2     :     0.003884  d :     0.026309
      dxz     :     0.003213
      dyz     :     0.005383
      dx2y2   :     0.004521
      dxy     :     0.009308

 11 C s       :     3.225556  s :     3.225556
      pz      :     1.040037  p :     2.822004
      px      :     0.973439
      py      :     0.808527
      dz2     :     0.012629  d :     0.065573
      dxz     :     0.011953
      dyz     :     0.010010
      dx2y2   :     0.010960
      dxy     :     0.020021

 12 C s       :     3.130045  s :     3.130045
      pz      :     0.869562  p :     2.701061
      px      :     0.866985
      py      :     0.964514
      dz2     :     0.010172  d :     0.039437
      dxz     :     0.012898
      dyz     :     0.004971
      dx2y2   :     0.005701
      dxy     :     0.005696

 13 C s       :     3.199523  s :     3.199523
      pz      :     0.951960  p :     2.922830
      px      :     0.986526
      py      :     0.984344
      dz2     :     0.009978  d :     0.035730
      dxz     :     0.010472
      dyz     :     0.005691
      dx2y2   :     0.006322
      dxy     :     0.003266

 14 C s       :     3.190210  s :     3.190210
      pz      :     0.984276  p :     2.898904
      px      :     0.931552
      py      :     0.983077
      dz2     :     0.010754  d :     0.036159
      dxz     :     0.010433
      dyz     :     0.003393
      dx2y2   :     0.005466
      dxy     :     0.006113

 15 C s       :     3.185883  s :     3.185883
      pz      :     0.957303  p :     2.901139
      px      :     0.960138
      py      :     0.983698
      dz2     :     0.007939  d :     0.036084
      dxz     :     0.014159
      dyz     :     0.004211
      dx2y2   :     0.005571
      dxy     :     0.004203

 16 C s       :     3.188523  s :     3.188523
      pz      :     0.935858  p :     2.901123
      px      :     0.977916
      py      :     0.987348
      dz2     :     0.009864  d :     0.036058
      dxz     :     0.010756
      dyz     :     0.005779
      dx2y2   :     0.006322
      dxy     :     0.003337

 17 C s       :     3.193750  s :     3.193750
      pz      :     0.977310  p :     2.945737
      px      :     0.964455
      py      :     1.003972
      dz2     :     0.010650  d :     0.036030
      dxz     :     0.010254
      dyz     :     0.003396
      dx2y2   :     0.005524
      dxy     :     0.006206

 18 C s       :     3.173801  s :     3.173801
      pz      :     0.892605  p :     2.722055
      px      :     0.925965
      py      :     0.903486
      dz2     :     0.010234  d :     0.057975
      dxz     :     0.014019
      dyz     :     0.010829
      dx2y2   :     0.014169
      dxy     :     0.008725

 19 C s       :     3.264754  s :     3.264754
      pz      :     1.052272  p :     2.986414
      px      :     0.978649
      py      :     0.955493
      dz2     :     0.006936  d :     0.038424
      dxz     :     0.009671
      dyz     :     0.005422
      dx2y2   :     0.008698
      dxy     :     0.007698

 20 C s       :     3.249401  s :     3.249401
      pz      :     1.009507  p :     2.973028
      px      :     0.949045
      py      :     1.014477
      dz2     :     0.011299  d :     0.040264
      dxz     :     0.009292
      dyz     :     0.002695
      dx2y2   :     0.011141
      dxy     :     0.005837

 21 C s       :     3.255812  s :     3.255812
      pz      :     0.997308  p :     2.978376
      px      :     1.007277
      py      :     0.973791
      dz2     :     0.007697  d :     0.038439
      dxz     :     0.006180
      dyz     :     0.009349
      dx2y2   :     0.009798
      dxy     :     0.005415

 22 C s       :     3.172208  s :     3.172208
      pz      :     1.014105  p :     2.735843
      px      :     0.833642
      py      :     0.888096
      dz2     :     0.010867  d :     0.058760
      dxz     :     0.012212
      dyz     :     0.006972
      dx2y2   :     0.015777
      dxy     :     0.012932

 23 N s       :     3.669580  s :     3.669580
      pz      :     1.170240  p :     4.000056
      px      :     1.094401
      py      :     1.735415
      dz2     :     0.003674  d :     0.032963
      dxz     :     0.010400
      dyz     :     0.007038
      dx2y2   :     0.002968
      dxy     :     0.008884

 24 C s       :     3.261445  s :     3.261445
      pz      :     0.979949  p :     2.962542
      px      :     0.930439
      py      :     1.052154
      dz2     :     0.009150  d :     0.038277
      dxz     :     0.009112
      dyz     :     0.004150
      dx2y2   :     0.010388
      dxy     :     0.005478

 25 H s       :     0.845181  s :     0.845181

 26 H s       :     0.843217  s :     0.843217

 27 H s       :     0.842894  s :     0.842894

 28 H s       :     0.843143  s :     0.843143

 29 H s       :     0.870965  s :     0.870965

 30 H s       :     0.866779  s :     0.866779

 31 H s       :     0.866514  s :     0.866514

 32 H s       :     0.861782  s :     0.861782

 33 H s       :     0.834072  s :     0.834072

 34 H s       :     0.857444  s :     0.857444

 35 H s       :     0.866038  s :     0.866038

 36 H s       :     0.869564  s :     0.869564

 37 H s       :     0.870773  s :     0.870773

 38 H s       :     0.877148  s :     0.877148

 39 H s       :     0.850603  s :     0.850603

 40 H s       :     0.871916  s :     0.871916

 41 H s       :     0.847102  s :     0.847102

 42 H s       :     0.873684  s :     0.873684

 43 H s       :     0.873767  s :     0.873767

 44 H s       :     0.876781  s :     0.876781

 45 H s       :     0.881921  s :     0.881921

 46 H s       :     0.873939  s :     0.873939

 47 H s       :     0.715338  s :     0.715338

 48 H s       :     0.718694  s :     0.718694

 49 H s       :     0.825028  s :     0.825028

 50 H s       :     0.889071  s :     0.889071



                     *******************************
                     * LOEWDIN POPULATION ANALYSIS *
                     *******************************

----------------------
LOEWDIN ATOMIC CHARGES
----------------------
   0 C :   -0.272794
   1 N :   -0.120431
   2 C :    0.145733
   3 O :   -0.269528
   4 C :   -0.071699
   5 C :   -0.090213
   6 C :   -0.147796
   7 C :   -0.111543
   8 C :   -0.169478
   9 C :    0.102988
  10 O :   -0.176628
  11 C :   -0.084425
  12 C :   -0.042056
  13 C :   -0.119755
  14 C :   -0.123613
  15 C :   -0.126913
  16 C :   -0.127675
  17 C :   -0.135787
  18 C :   -0.047706
  19 C :   -0.238446
  20 C :   -0.233731
  21 C :   -0.248188
  22 C :   -0.082671
  23 N :   -0.460402
  24 C :   -0.232861
  25 H :    0.121918
  26 H :    0.123711
  27 H :    0.130612
  28 H :    0.149080
  29 H :    0.132509
  30 H :    0.134191
  31 H :    0.135975
  32 H :    0.114824
  33 H :    0.137159
  34 H :    0.137864
  35 H :    0.133990
  36 H :    0.132448
  37 H :    0.131793
  38 H :    0.127644
  39 H :    0.133460
  40 H :    0.117634
  41 H :    0.129405
  42 H :    0.109795
  43 H :    0.118860
  44 H :    0.114922
  45 H :    0.113768
  46 H :    0.115571
  47 H :    0.218435
  48 H :    0.215878
  49 H :    0.144178
  50 H :    0.109991

-------------------------------
LOEWDIN REDUCED ORBITAL CHARGES
-------------------------------
  0 C s       :     2.969505  s :     2.969505
      pz      :     0.960883  p :     3.206967
      px      :     1.123324
      py      :     1.122760
      dz2     :     0.023512  d :     0.096321
      dxz     :     0.023847
      dyz     :     0.025689
      dx2y2   :     0.005485
      dxy     :     0.017787

  1 N s       :     3.110199  s :     3.110199
      pz      :     1.135847  p :     3.927295
      px      :     1.401157
      py      :     1.390291
      dz2     :     0.025332  d :     0.082937
      dxz     :     0.018593
      dyz     :     0.017531
      dx2y2   :     0.008572
      dxy     :     0.012909

  2 C s       :     2.863238  s :     2.863238
      pz      :     0.895495  p :     2.757410
      px      :     0.945713
      py      :     0.916202
      dz2     :     0.033978  d :     0.233618
      dxz     :     0.040132
      dyz     :     0.037650
      dx2y2   :     0.064715
      dxy     :     0.057144

  3 O s       :     3.590914  s :     3.590914
      pz      :     1.439199  p :     4.628601
      px      :     1.720577
      py      :     1.468825
      dz2     :     0.009724  d :     0.050012
      dxz     :     0.005804
      dyz     :     0.017760
      dx2y2   :     0.008539
      dxy     :     0.008185

  4 C s       :     2.877930  s :     2.877930
      pz      :     1.026412  p :     3.097723
      px      :     1.024028
      py      :     1.047283
      dz2     :     0.008838  d :     0.096046
      dxz     :     0.012849
      dyz     :     0.016708
      dx2y2   :     0.028705
      dxy     :     0.028947

  5 C s       :     2.918295  s :     2.918295
      pz      :     0.977355  p :     3.086782
      px      :     1.044759
      py      :     1.064668
      dz2     :     0.010996  d :     0.085135
      dxz     :     0.011651
      dyz     :     0.012364
      dx2y2   :     0.022275
      dxy     :     0.027850

  6 C s       :     2.913815  s :     2.913815
      pz      :     1.024653  p :     3.148927
      px      :     1.054718
      py      :     1.069556
      dz2     :     0.008423  d :     0.085053
      dxz     :     0.012715
      dyz     :     0.012340
      dx2y2   :     0.025965
      dxy     :     0.025610

  7 C s       :     2.917098  s :     2.917098
      pz      :     0.988469  p :     3.107212
      px      :     1.048863
      py      :     1.069880
      dz2     :     0.006431  d :     0.087233
      dxz     :     0.010185
      dyz     :     0.017927
      dx2y2   :     0.028618
      dxy     :     0.024072

  8 C s       :     2.916712  s :     2.916712
      pz      :     1.041897  p :     3.171584
      px      :     1.052835
      py      :     1.076852
      dz2     :     0.010036  d :     0.081183
      dxz     :     0.012072
      dyz     :     0.011647
      dx2y2   :     0.022310
      dxy     :     0.025118

  9 C s       :     2.862359  s :     2.862359
      pz      :     0.961632  p :     2.879288
      px      :     1.034142
      py      :     0.883514
      dz2     :     0.018287  d :     0.155364
      dxz     :     0.017463
      dyz     :     0.033627
      dx2y2   :     0.042134
      dxy     :     0.043853

 10 O s       :     3.463956  s :     3.463956
      pz      :     1.742294  p :     4.651767
      px      :     1.659300
      py      :     1.250173
      dz2     :     0.007566  d :     0.060905
      dxz     :     0.004741
      dyz     :     0.013448
      dx2y2   :     0.013347
      dxy     :     0.021802

 11 C s       :     2.926980  s :     2.926980
      pz      :     1.091544  p :     3.018933
      px      :     1.027137
      py      :     0.900253
      dz2     :     0.024909  d :     0.138513
      dxz     :     0.026924
      dyz     :     0.019526
      dx2y2   :     0.023450
      dxy     :     0.043704

 12 C s       :     2.882056  s :     2.882056
      pz      :     1.045091  p :     3.060434
      px      :     1.042066
      py      :     0.973277
      dz2     :     0.026393  d :     0.099566
      dxz     :     0.035931
      dyz     :     0.011083
      dx2y2   :     0.013879
      dxy     :     0.012280

 13 C s       :     2.917588  s :     2.917588
      pz      :     1.054464  p :     3.118551
      px      :     1.077277
      py      :     0.986810
      dz2     :     0.026135  d :     0.083615
      dxz     :     0.027216
      dyz     :     0.012584
      dx2y2   :     0.011634
      dxy     :     0.006045

 14 C s       :     2.918125  s :     2.918125
      pz      :     1.069305  p :     3.120503
      px      :     1.069451
      py      :     0.981747
      dz2     :     0.023362  d :     0.084984
      dxz     :     0.027289
      dyz     :     0.005912
      dx2y2   :     0.014779
      dxy     :     0.013642

 15 C s       :     2.918228  s :     2.918228
      pz      :     1.067094  p :     3.123902
      px      :     1.071088
      py      :     0.985720
      dz2     :     0.020555  d :     0.084782
      dxz     :     0.033596
      dyz     :     0.009258
      dx2y2   :     0.012228
      dxy     :     0.009145

 16 C s       :     2.918018  s :     2.918018
      pz      :     1.067180  p :     3.124733
      px      :     1.070334
      py      :     0.987219
      dz2     :     0.026073  d :     0.084925
      dxz     :     0.027893
      dyz     :     0.013060
      dx2y2   :     0.011651
      dxy     :     0.006248

 17 C s       :     2.918390  s :     2.918390
      pz      :     1.067995  p :     3.133016
      px      :     1.061440
      py      :     1.003581
      dz2     :     0.023249  d :     0.084381
      dxz     :     0.026839
      dyz     :     0.006002
      dx2y2   :     0.014662
      dxy     :     0.013629

 18 C s       :     2.894761  s :     2.894761
      pz      :     0.984422  p :     3.025997
      px      :     1.024407
      py      :     1.017168
      dz2     :     0.022746  d :     0.126948
      dxz     :     0.029249
      dyz     :     0.022240
      dx2y2   :     0.034443
      dxy     :     0.018271

 19 C s       :     2.948034  s :     2.948034
      pz      :     1.106595  p :     3.209883
      px      :     1.064165
      py      :     1.039123
      dz2     :     0.014224  d :     0.080528
      dxz     :     0.018362
      dyz     :     0.010404
      dx2y2   :     0.020334
      dxy     :     0.017204

 20 C s       :     2.939803  s :     2.939803
      pz      :     1.079176  p :     3.209100
      px      :     1.049843
      py      :     1.080081
      dz2     :     0.022574  d :     0.084828
      dxz     :     0.020545
      dyz     :     0.005392
      dx2y2   :     0.022869
      dxy     :     0.013447

 21 C s       :     2.957778  s :     2.957778
      pz      :     1.079549  p :     3.209555
      px      :     1.075178
      py      :     1.054829
      dz2     :     0.015160  d :     0.080855
      dxz     :     0.013707
      dyz     :     0.019111
      dx2y2   :     0.021793
      dxy     :     0.011084

 22 C s       :     2.896035  s :     2.896035
      pz      :     1.075666  p :     3.057431
      px      :     0.964152
      py      :     1.017614
      dz2     :     0.023157  d :     0.129204
      dxz     :     0.025390
      dyz     :     0.015202
      dx2y2   :     0.037708
      dxy     :     0.027748

 23 N s       :     3.297391  s :     3.297391
      pz      :     1.211739  p :     4.101123
      px      :     1.159982
      py      :     1.729402
      dz2     :     0.008425  d :     0.061887
      dxz     :     0.021808
      dyz     :     0.009355
      dx2y2   :     0.006771
      dxy     :     0.015527

 24 C s       :     2.950466  s :     2.950466
      pz      :     1.069308  p :     3.201351
      px      :     1.033652
      py      :     1.098391
      dz2     :     0.018557  d :     0.081045
      dxz     :     0.019666
      dyz     :     0.009082
      dx2y2   :     0.021668
      dxy     :     0.012072

 25 H s       :     0.878082  s :     0.878082

 26 H s       :     0.876289  s :     0.876289

 27 H s       :     0.869388  s :     0.869388

 28 H s       :     0.850920  s :     0.850920

 29 H s       :     0.867491  s :     0.867491

 30 H s       :     0.865809  s :     0.865809

 31 H s       :     0.864025  s :     0.864025

 32 H s       :     0.885176  s :     0.885176

 33 H s       :     0.862841  s :     0.862841

 34 H s       :     0.862136  s :     0.862136

 35 H s       :     0.866010  s :     0.866010

 36 H s       :     0.867552  s :     0.867552

 37 H s       :     0.868207  s :     0.868207

 38 H s       :     0.872356  s :     0.872356

 39 H s       :     0.866540  s :     0.866540

 40 H s       :     0.882366  s :     0.882366

 41 H s       :     0.870595  s :     0.870595

 42 H s       :     0.890205  s :     0.890205

 43 H s       :     0.881140  s :     0.881140

 44 H s       :     0.885078  s :     0.885078

 45 H s       :     0.886232  s :     0.886232

 46 H s       :     0.884429  s :     0.884429

 47 H s       :     0.781565  s :     0.781565

 48 H s       :     0.784122  s :     0.784122

 49 H s       :     0.855822  s :     0.855822

 50 H s       :     0.890009  s :     0.890009



                      *****************************
                      * MAYER POPULATION ANALYSIS *
                      *****************************

  NA   - Mulliken gross atomic population
  ZA   - Total nuclear charge
  QA   - Mulliken gross atomic charge
  VA   - Mayer's total valence
  BVA  - Mayer's bonded valence
  FA   - Mayer's free valence

  ATOM       NA         ZA         QA         VA         BVA        FA
  0 C      6.3188     6.0000    -0.3188     3.8270     3.8270     0.0000
  1 N      7.4002     7.0000    -0.4002     3.0175     3.0175    -0.0000
  2 C      5.5654     6.0000     0.4346     3.9497     3.9497    -0.0000
  3 O      8.4618     8.0000    -0.4618     2.0387     2.0387     0.0000
  4 C      5.9642     6.0000     0.0358     3.8364     3.8364    -0.0000
  5 C      6.1487     6.0000    -0.1487     3.9494     3.9494     0.0000
  6 C      6.1373     6.0000    -0.1373     3.9259     3.9259    -0.0000
  7 C      6.1156     6.0000    -0.1156     3.9523     3.9523     0.0000
  8 C      6.1936     6.0000    -0.1936     3.8879     3.8879    -0.0000
  9 C      5.6653     6.0000     0.3347     3.8097     3.8097     0.0000
 10 O      8.5138     8.0000    -0.5138     1.9654     1.9654     0.0000
 11 C      6.1131     6.0000    -0.1131     3.7961     3.7961     0.0000
 12 C      5.8705     6.0000     0.1295     3.9298     3.9298     0.0000
 13 C      6.1581     6.0000    -0.1581     3.9270     3.9270     0.0000
 14 C      6.1253     6.0000    -0.1253     3.9438     3.9438     0.0000
 15 C      6.1231     6.0000    -0.1231     3.9486     3.9486    -0.0000
 16 C      6.1257     6.0000    -0.1257     3.9493     3.9493    -0.0000
 17 C      6.1755     6.0000    -0.1755     3.9441     3.9441    -0.0000
 18 C      5.9538     6.0000     0.0462     3.8688     3.8688     0.0000
 19 C      6.2896     6.0000    -0.2896     3.8374     3.8374     0.0000
 20 C      6.2627     6.0000    -0.2627     3.8786     3.8786     0.0000
 21 C      6.2726     6.0000    -0.2726     3.8308     3.8308     0.0000
 22 C      5.9668     6.0000     0.0332     3.8780     3.8780    -0.0000
 23 N      7.7026     7.0000    -0.7026     2.7527     2.7527     0.0000
 24 C      6.2623     6.0000    -0.2623     3.8345     3.8345     0.0000
 25 H      0.8452     1.0000     0.1548     0.9269     0.9269     0.0000
 26 H      0.8432     1.0000     0.1568     0.9329     0.9329     0.0000
 27 H      0.8429     1.0000     0.1571     0.9421     0.9421     0.0000
 28 H      0.8431     1.0000     0.1569     0.9405     0.9405    -0.0000
 29 H      0.8710     1.0000     0.1290     0.9377     0.9377    -0.0000
 30 H      0.8668     1.0000     0.1332     0.9365     0.9365     0.0000
 31 H      0.8665     1.0000     0.1335     0.9444     0.9444    -0.0000
 32 H      0.8618     1.0000     0.1382     0.9345     0.9345     0.0000
 33 H      0.8341     1.0000     0.1659     0.9272     0.9272     0.0000
 34 H      0.8574     1.0000     0.1426     0.9398     0.9398     0.0000
 35 H      0.8660     1.0000     0.1340     0.9361     0.9361     0.0000
 36 H      0.8696     1.0000     0.1304     0.9362     0.9362    -0.0000
 37 H      0.8708     1.0000     0.1292     0.9367     0.9367    -0.0000
 38 H      0.8771     1.0000     0.1229     0.9398     0.9398    -0.0000
 39 H      0.8506     1.0000     0.1494     0.9419     0.9419    -0.0000
 40 H      0.8719     1.0000     0.1281     0.9360     0.9360    -0.0000
 41 H      0.8471     1.0000     0.1529     0.9386     0.9386     0.0000
 42 H      0.8737     1.0000     0.1263     0.9350     0.9350    -0.0000
 43 H      0.8738     1.0000     0.1262     0.9357     0.9357     0.0000
 44 H      0.8768     1.0000     0.1232     0.9373     0.9373    -0.0000
 45 H      0.8819     1.0000     0.1181     0.9464     0.9464     0.0000
 46 H      0.8739     1.0000     0.1261     0.9327     0.9327    -0.0000
 47 H      0.7153     1.0000     0.2847     0.8741     0.8741    -0.0000
 48 H      0.7187     1.0000     0.2813     0.8802     0.8802    -0.0000
 49 H      0.8250     1.0000     0.1750     0.9396     0.9396    -0.0000
 50 H      0.8891     1.0000     0.1109     0.9438     0.9438     0.0000

  Mayer bond orders larger than 0.100000
B(  0-C ,  1-N ) :   0.9572 B(  0-C , 25-H ) :   0.9411 B(  0-C , 26-H ) :   0.9277 
B(  0-C , 27-H ) :   0.9391 B(  1-N ,  2-C ) :   1.0604 B(  1-N , 18-C ) :   0.9424 
B(  2-C ,  3-O ) :   1.8242 B(  2-C ,  4-C ) :   0.9537 B(  4-C ,  5-C ) :   1.4125 
B(  4-C ,  9-C ) :   1.3498 B(  5-C ,  6-C ) :   1.4387 B(  5-C , 28-H ) :   0.9167 
B(  6-C ,  7-C ) :   1.4387 B(  6-C , 29-H ) :   0.9299 B(  7-C ,  8-C ) :   1.4486 
B(  7-C , 30-H ) :   0.9295 B(  8-C ,  9-C ) :   1.3585 B(  8-C , 31-H ) :   0.9138 
B(  9-C , 10-O ) :   0.9067 B( 10-O , 11-C ) :   0.9056 B( 11-C , 12-C ) :   0.9646 
B( 11-C , 32-H ) :   0.9203 B( 11-C , 33-H ) :   0.9227 B( 12-C , 13-C ) :   1.4234 
B( 12-C , 17-C ) :   1.4364 B( 13-C , 14-C ) :   1.4482 B( 13-C , 34-H ) :   0.9219 
B( 14-C , 15-C ) :   1.4453 B( 14-C , 35-H ) :   0.9293 B( 15-C , 16-C ) :   1.4611 
B( 15-C , 36-H ) :   0.9301 B( 16-C , 17-C ) :   1.4368 B( 16-C , 37-H ) :   0.9294 
B( 17-C , 38-H ) :   0.9235 B( 18-C , 19-C ) :   0.9628 B( 18-C , 24-C ) :   0.9893 
B( 18-C , 39-H ) :   0.9268 B( 19-C , 20-C ) :   1.0087 B( 19-C , 40-H ) :   0.9440 
B( 19-C , 41-H ) :   0.9318 B( 20-C , 21-C ) :   1.0014 B( 20-C , 42-H ) :   0.9382 
B( 20-C , 43-H ) :   0.9410 B( 21-C , 22-C ) :   0.9639 B( 21-C , 44-H ) :   0.9445 
B( 21-C , 45-H ) :   0.9432 B( 22-C , 23-N ) :   0.9996 B( 22-C , 24-C ) :   0.9987 
B( 22-C , 46-H ) :   0.9316 B( 23-N , 47-H ) :   0.8660 B( 23-N , 48-H ) :   0.8617 
B( 24-C , 49-H ) :   0.9235 B( 24-C , 50-H ) :   0.9313 

-------
TIMINGS
-------

Total SCF time: 0 days 0 hours 5 min 6 sec 

Total time                  ....     306.102 sec
Sum of individual times     ....     305.796 sec  ( 99.9%)

SCF preparation             ....       0.337 sec  (  0.1%)
Fock matrix formation       ....     303.902 sec  ( 99.3%)
  Startup                   ....       0.082 sec  (  0.0% of F)
  Split-RI-J                ....      35.592 sec  ( 11.7% of F)
  Chain of spheres X        ....     237.145 sec  ( 78.0% of F)
  XC integration            ....      30.124 sec  (  9.9% of F)
    XC Preparation          ....       0.000 sec  (  0.0% of XC)
    Basis function eval.    ....      11.390 sec  ( 37.8% of XC)
    Density eval.           ....       7.346 sec  ( 24.4% of XC)
    XC-Functional eval.     ....       1.377 sec  (  4.6% of XC)
    XC-Potential eval.      ....       8.512 sec  ( 28.3% of XC)
Diagonalization             ....       0.000 sec  (  0.0%)
Density matrix formation    ....       0.260 sec  (  0.1%)
Total Energy calculation    ....       0.076 sec  (  0.0%)
Population analysis         ....       0.052 sec  (  0.0%)
Orbital Transformation      ....       0.139 sec  (  0.0%)
Orbital Orthonormalization  ....       0.000 sec  (  0.0%)
DIIS solution               ....       0.666 sec  (  0.2%)
SOSCF solution              ....       0.364 sec  (  0.1%)
Finished LeanSCF after 306.2 sec

Maximum memory used throughout the entire LEANSCF-calculation: 69.9 MB

-------------------------   --------------------
FINAL SINGLE POINT ENERGY     -1075.111424810779
-------------------------   --------------------


------------------------------------------------------------------------------
                              ORCA PROPERTY CALCULATIONS
------------------------------------------------------------------------------

GBWName                                 ... /home/nmrbox/aojoawo/Documents/ERDOS/inputs/CHEMBL2442036.gbw
Number of atoms                         ...     51
Number of basis functions               ...    402
Max core memory                         ...   1024 MB

Electric properties:
Dipole moment                           ... YES
Quadrupole moment                       ...  NO
Static polarizability (Dipole/Dipole)   ...  NO
Static polarizability (Dipole/Quad.)    ...  NO
Static polarizability (Quad./Quad.)     ...  NO
Static polarizability (Velocity)        ...  NO

Atomic electric properties:
Dipole moment                           ...  NO
Quadrupole moment                       ...  NO
Static polarizability                   ...  NO

Choice of electric origin               ... Center of mass
Position of electric origin             ...     0.650344    -0.454696     0.226163

General magnetic properties:
Magnetizability                         ...  NO

EPR properties:
g-Tensor (aka g-matrix)                 ...  NO
Zero-Field splitting spin-orbit         ...  NO
Zero-field splitting spin-spin          ...  NO
Hyperfine couplings                     ...  NO (   0 nuclei)
Quadrupole couplings                    ...  NO (   0 nuclei)
Contact density                         ...  NO (   0 nuclei)

NMR properties:
Chemical shifts                         ...  NO (   0 nuclei)
Spin-rotation constants                 ...  NO (   0 nuclei)
Spin-spin couplings                     ...  NO (   0 nuclei,    0 pairs)

Choice of magnetic origin               ... GIAO
Position of magnetic origin             ...     0.000000     0.000000     0.000000

Properties with geometric perturbations:
SCF Hessian                             ...  NO
IR spectrum                             ...  NO
VCD spectrum                            ...  NO
X-ray spectroscopy properties:
SCF XES/XAS/RIXS spectra                ...  NO


-------------
DIPOLE MOMENT
-------------

Method             : SCF
Type of density    : Electron Density
Multiplicity       :   1
Irrep              :   0
Energy             : -1075.1114248107787716 Eh
Relativity type    : 
Basis              : AO
                                X                 Y                 Z
Electronic contribution:     20.068066157      -9.888777290       3.266950042
Nuclear contribution   :    -19.363720196      11.640883080      -2.452564656
                        -----------------------------------------
Total Dipole Moment    :      0.704345961       1.752105790       0.814385386
                        -----------------------------------------
Magnitude (a.u.)       :      2.056502246
Magnitude (Debye)      :      5.227213297



--------------------
Rotational spectrum 
--------------------
 
Rotational constants in cm-1:             0.010453             0.004497             0.003597 
Rotational constants in MHz :           313.358377           134.831190           107.849135 

Dipole components along the rotational axes: 
x,y,z [a.u.] :     0.870176     0.967739     1.592318 
x,y,z [Debye]:     2.211812     2.459796     4.047351 

 

Dipole moment calculation done in   0.0 sec 

Maximum memory used throughout the entire PROP-calculation: 32.7 MB

--------------------------------
SUGGESTED CITATIONS FOR THIS RUN
--------------------------------

Below you find a list of papers that are relevant to this ORCA run
We neither can nor want to force you to cite these papers, but we appreciate if you do
You receive ORCA, which is the product of decades of hard work by many enthusiastic individuals, for free
The only thing we kindly ask in return is that you cite our papers,
We deeply appreciate it, if you show your appreciation for ORCA by not just citing the generic ORCA reference.

Please note that relegating all ORCA citations to the supporting information does *not* help us.
SI sections are not indexed - citations you put there will not count into any citation statistics
But we need these citations in order to attract the funding resources that allow us to do what we are doing

Therefore, if you are a happy ORCA user, please consider citing a few of the papers listed below in the main body of your paper

In addition to the list printed below, the program has created the file /home/nmrbox/aojoawo/Documents/ERDOS/inputs/CHEMBL2442036.bibtex that contains the list in bibtex format
You can import this file easily into all common literature databanks and citation aid programs


List of essential papers. We consider these as the minimum necessary citations

  1. Neese,F.
     Software update: the ORCA program system, version 5.0
     WIRES Comput. Molec. Sci., 2022 12(1)e1606
     doi.org/10.1002/wcms.1606

List of papers to cite with high priority. The work reported in these papers was absolutely
necessary for this run to complete.
Our perspective: the developers of density functionals and basis sets usually get cited in chemistry papers
Good! But without the algorithms to do something with them, the functionals or basis sets would not do anything.
Hence, in our opinion, the algorithm design and method developments papers are equally worthy of getting cited

  1. Neese,F.
     An improvement of the resolution of the identity approximation for the formation of the Coulomb matrix
     J. Comp. Chem., 2003 24(14)1740-1747
     doi.org/10.1002/jcc.10318
  2. Neese,F.; Wennmohs,F.; Hansen,A.; Becker,U.
     Efficient, approximate and parallel Hartree-Fock and hybrid DFT calculations. A 'chain-of-spheres' algorithm for the Hartree-Fock exchange
     Chem. Phys., 2009 356(1-3)98-109
     doi.org/10.1016/j.chemphys.2008.10.036
  3. Helmich-Paris,B.; de Souza,B.; Neese,F.; Izsák,R.
     An improved chain of spheres for exchange algorithm
     J. Chem. Phys., 2021 155 104109
     doi.org/doi: 10.1063/5.0058766.
  4. Neese,F.
     The SHARK Integral Generation and Digestion System
     J. Comp. Chem., 2022  1-16
     doi.org/10.1002/jcc.26942

List of suggested additional citations. These are papers that are important in the 'surrounding' of 
of this run, or papers that preceded the highly important papers. If you like your results we are grateful for a citation.

  1. Izsak,R.; Neese,F.
     An overlap fitted chain of spheres exchange method
     J. Chem. Phys., 2011 135 144105
     doi.org/10.1063/1.3646921
  2. Izsak,R.; Hansen,A.; Neese,F.
     The resolution of identity and chain of spheres approximations for the LPNO-CCSD singles Fock term
     Molec. Phys., 2012 110 2413-2417
     doi.org/10.1080/00268976.2012.687466
  3. Neese,F.
     The ORCA program system
     WIRES Comput. Molec. Sci., 2012 2(1)73-78
     doi.org/10.1002/wcms.81
  4. Izsak,R.; Neese,F.; Klopper,W.
     Robust fitting techniques in the chain of spheres approximation to the Fock exchange: The role of the complementary space
     J. Chem. Phys., 2013 139 
     doi.org/10.1063/1.4819264
  5. Neese,F.
     Software update: the ORCA program system, version 4.0
     WIRES Comput. Molec. Sci., 2018 8(1)1-6
     doi.org/10.1002/wcms.1327
  6. Neese,F.; Wennmohs,F.; Becker,U.; Riplinger,C.
     The ORCA quantum chemistry program package
     J. Chem. Phys., 2020 152 Art. No. L224108
     doi.org/10.1063/5.0004608

List of optional additional citations

  1. Neese,F.
     Approximate second-order SCF convergence for spin unrestricted wavefunctions
     Chem. Phys. Lett., 2000 325(1-3)93-98
     doi.org/10.1016/s0009-2614(00)00662-x

Timings for individual modules:

Sum of individual times          ...      320.485 sec (=   5.341 min)
Startup calculation              ...        9.444 sec (=   0.157 min)   2.9 %
SCF iterations                   ...      310.874 sec (=   5.181 min)  97.0 %
Property calculations            ...        0.167 sec (=   0.003 min)   0.1 %
                             ****ORCA TERMINATED NORMALLY****
TOTAL RUN TIME: 0 days 0 hours 5 minutes 21 seconds 201 msec
