
                                 *****************
                                 * O   R   C   A *
                                 *****************

                                            #,                                       
                                            ###                                      
                                            ####                                     
                                            #####                                    
                                            ######                                   
                                           ########,                                 
                                     ,,################,,,,,                         
                               ,,#################################,,                 
                          ,,##########################################,,             
                       ,#########################################, ''#####,          
                    ,#############################################,,   '####,        
                  ,##################################################,,,,####,       
                ,###########''''           ''''###############################       
              ,#####''   ,,,,##########,,,,          '''####'''          '####       
            ,##' ,,,,###########################,,,                        '##       
           ' ,,###''''                  '''############,,,                           
         ,,##''                                '''############,,,,        ,,,,,,###''
      ,#''                                            '''#######################'''  
     '                                                          ''''####''''         
             ,#######,   #######,   ,#######,      ##                                
            ,#'     '#,  ##    ##  ,#'     '#,    #''#        ,####,   ,####,        
            ##       ##  ##   ,#'  ##            #'  '#       #'       #'  '#        
            ##       ##  #######   ##           ,######,      #####,   #    #        
            '#,     ,#'  ##    ##  '#,     ,#' ,#      #,     #,   #   #,  ,#        
             '#######'   ##     ##  '#######'  #'      '#     '####' # '####'        



                #########################################################
                #                        -***-                          #
                #          Department of theory and spectroscopy        #
                #                                                       #
                #                      Frank Neese                      #
                #                                                       #
                #     Directorship, Architecture, Infrastructure        #
                #                    SHARK, DRIVERS                     #
                #        Core code/Algorithms in most modules           #
                #                                                       #
                #        Max Planck Institute fuer Kohlenforschung      #
                #                Kaiser Wilhelm Platz 1                 #
                #                 D-45470 Muelheim/Ruhr                 #
                #                      Germany                          #
                #                                                       #
                #                  All rights reserved                  #
                #                        -***-                          #
                #########################################################


                         Program Version 6.0.0  -   RELEASE  -


 With contributions from (in alphabetic order):
   Daniel Aravena         : Magnetic Suceptibility
   Michael Atanasov       : Ab Initio Ligand Field Theory (pilot matlab implementation)
   Alexander A. Auer      : GIAO ZORA, VPT2 properties, NMR spectrum
   Ute Becker             : All parallelization in ORCA, NUMFREQ, NUMCALC
   Giovanni Bistoni       : ED, misc. LED, open-shell LED, HFLD
   Martin Brehm           : Molecular dynamics
   Dmytro Bykov           : pre 5.0 version of the SCF Hessian
   Marcos Casanova-Páez   : Triplet and SCS-CIS(D). UHF-(DLPNO)-IP/EA/STEOM-CCSD. UHF-CVS-IP/STEOM-CCSD
   Vijay G. Chilkuri      : MRCI spin determinant printing, contributions to CSF-ICE
   Pauline Colinet        : FMM embedding
   Dipayan Datta          : RHF DLPNO-CCSD density
   Achintya Kumar Dutta   : EOM-CC, STEOM-CC
   Nicolas Foglia         : Exact transition moments, OPA infrastructure, MCD improvements
   Dmitry Ganyushin       : Spin-Orbit,Spin-Spin,Magnetic field MRCI
   Miquel Garcia          : C-PCM and meta-GGA Hessian, CCSD/C-PCM, Gaussian charge scheme
   Tiago L. C. Gouveia    : GS-ROHF, GS-ROCIS
   Yang Guo               : DLPNO-NEVPT2, F12-NEVPT2, CIM, IAO-localization
   Andreas Hansen         : Spin unrestricted coupled pair/coupled cluster methods
   Ingolf Harden          : AUTO-CI MPn and infrastructure 
   Benjamin Helmich-Paris : MC-RPA, TRAH-(SCF,CASSCF), AVAS, COSX integrals, SCF dyn. polar.
   Lee Huntington         : MR-EOM, pCC
   Robert Izsak           : Overlap fitted RIJCOSX, COSX-SCS-MP3, EOM
   Riya Kayal             : Wick's Theorem for AUTO-CI, AUTO-CI UHF-CCSDT
   Emily Kempfer          : AUTO-CI, RHF CISDT and CCSDT
   Christian Kollmar      : KDIIS, OOCD, Brueckner-CCSD(T), CCSD density, CASPT2, CASPT2-K, improved NEVPT2
   Axel Koslowski         : Symmetry handling
   Simone Kossmann        : Meta GGA functionals, TD-DFT gradient, OOMP2, (MP2 Hessian; deprecated post 5.0)
   Lucas Lang             : DCDCAS
   Marvin Lechner         : AUTO-CI (C++ implementation), FIC-MRCC
   Spencer Leger          : CASSCF response
   Dagmar Lenk            : GEPOL surface, SMD, ORCA-2-JSON
   Dimitrios Liakos       : Extrapolation schemes; Compound Job, initial MDCI parallelization
   Dimitrios Manganas     : Further ROCIS development; embedding schemes. LFT, Crystal Embedding
   Dimitrios Pantazis     : SARC Basis sets
   Anastasios Papadopoulos: AUTO-CI, single reference methods and gradients
   Taras Petrenko         : pre 6.0 DFT Hessian and TD-DFT gradient, (ASA, deprecated), ECA, 1-Electron XAS/XES, NRVS
   Peter Pinski           : DLPNO-MP2, DLPNO-MP2 Gradient
   Christoph Reimann      : Effective Core Potentials
   Marius Retegan         : Local ZFS, SOC
   Christoph Riplinger    : Optimizer, TS searches, QM/MM, DLPNO-CCSD(T), (RO)-DLPNO pert. Triples
   Michael Roemelt        : Original ROCIS implementation
   Masaaki Saitow         : Open-shell DLPNO-CCSD energy and density
   Barbara Sandhoefer     : DKH picture change effects
   Kantharuban Sivalingam : CASSCF convergence/infrastructure, NEVPT2 and variants, FIC-MRCI
   Bernardo de Souza      : ESD, SOC TD-DFT
   Georgi Stoychev        : AutoAux, RI-MP2 NMR, DLPNO-MP2 response, X2C
   Van Anh Tran           : RI-MP2 g-tensors
   Willem Van den Heuvel  : Paramagnetic NMR
   Zikuan Wang            : NOTCH, Electric field optimization 
   Frank Wennmohs         : Technical directorship and infrastructure
   Hang Xu                : AUTO-CI-Response properties 


 We gratefully acknowledge several colleagues who have allowed us to
 interface, adapt or use parts of their codes:
   Stefan Grimme, W. Hujo, H. Kruse, P. Pracht,  : VdW corrections, initial TS optimization,
                  C. Bannwarth, S. Ehlert,         DFT functionals, gCP, sTDA/sTD-DF
                  L. Wittmann, M. Mueller
   Ed Valeev, F. Pavosevic, A. Kumar             : LibInt (2-el integral package), F12 methods
   Garnet Chan, S. Sharma, J. Yang, R. Olivares  : DMRG
   Ulf Ekstrom                                   : XCFun DFT Library
   Mihaly Kallay                                 : mrcc  (arbitrary order and MRCC methods)
   Frank Weinhold                                : gennbo (NPA and NBO analysis)
   Simon Mueller                                 : openCOSMO-RS
   Christopher J. Cramer and Donald G. Truhlar   : smd solvation model
   Lars Goerigk                                  : TD-DFT with DH, B97 family of functionals
   V. Asgeirsson, H. Jonsson                     : NEB implementation
   FAccTs GmbH                                   : IRC, NEB, NEB-TS, DLPNO-Multilevel, CI-OPT
                                                   MM, QMMM, 2- and 3-layer-ONIOM, Crystal-QMMM,
                                                   LR-CPCM, SF, NACMEs, symmetry and pop. for TD-DFT,
                                                   nearIR, NL-DFT gradient (VV10), updates on ESD,
                                                   ML-optimized integration grids, MBIS, APM,
                                                   GOAT, DOCKER, SOLVATOR, interface openCOSMO-RS
   S Lehtola, MJT Oliveira, MAL Marques          : LibXC Library
   Liviu Ungur et al                             : ANISO software


 Your calculation uses the libint2 library for the computation of 2-el integrals
 For citations please refer to: http://libint.valeyev.net

 Your ORCA version has been built with support for libXC version: 6.2.2
 For citations please refer to: https://libxc.gitlab.io

 This ORCA versions uses:
   CBLAS   interface :  Fast vector & matrix operations
   LAPACKE interface :  Fast linear algebra routines
   SCALAPACK package :  Parallel linear algebra routines
   Shared memory     :  Shared parallel matrices
   BLAS/LAPACK       :  OpenBLAS 0.3.27  USE64BITINT DYNAMIC_ARCH NO_AFFINITY SkylakeX SINGLE_THREADED
        Core in use  :  SkylakeX
   Copyright (c) 2011-2014, The OpenBLAS Project


Warning: RI is on but no J-basis has been assigned. Assigning Def2/J (nothing to worry about!)
================================================================================

----- Orbital basis set information -----
Your calculation utilizes the basis: 6-31G*
   H-He, Li-Ne : W. J. Hehre, R. Ditchfield and J.A. Pople, J. Chem. Phys. 56, 2257 (1972).
                 Note: He and Ne are unpublished basis sets taken from the Gaussian program.
                 Note: Li and B from J. D. Dill and J. A. Pople, J. Chem. Phys. 62, 2921 (1975).
   Na - Ar     : M. M. Francl, W. J. Pietro, W. J. Hehre, J. S. Binkley, M. S. Gordon, 
                 D. J. DeFrees and J. A. Pople, J. Chem. Phys. 77, 3654 (1982).
   K - Zn      : V. A. Rassolov, J. A. Pople, M. A. Ratner, and T. L. Windus, J. Chem. Phys. 109, 1223 (1998).

----- AuxJ basis set information -----
Your calculation utilizes the auxiliary basis: def2/J
   F. Weigend, Phys. Chem. Chem. Phys. 8, 1057 (2006).

================================================================================
                                        WARNINGS
                       Please study these warnings very carefully!
================================================================================


================================================================================
                                       INPUT FILE
================================================================================
NAME = /home/nmrbox/aojoawo/Documents/ERDOS/inputs/CHEMBL3682592.inp
|  1> ! B3LYP 6-31G* SP
|  2> 
|  3> * xyz 0 1
|  4> C -3.5583 -1.4401 -0.3768
|  5> C -2.6473 -2.4271 0.3728
|  6> C -2.2940 -3.6117 -0.5336
|  7> C -1.3755 -1.7573 0.8771
|  8> N -0.9128 -0.6853 0.1901
|  9> C 0.2089 0.0007 0.5127
| 10> N 0.5277 1.1488 -0.2811
| 11> C 0.9274 0.9529 -1.6775
| 12> C 2.4053 0.7003 -1.7607
| 13> C 3.2891 1.7551 -2.0372
| 14> C 4.6678 1.5280 -2.0822
| 15> C 5.1845 0.2411 -1.8301
| 16> O 6.5597 -0.0432 -1.8603
| 17> C 7.5830 0.8822 -2.2201
| 18> F 7.3761 1.3403 -3.5093
| 19> F 8.8061 0.2426 -2.1656
| 20> F 7.5987 1.9473 -1.3374
| 21> C 4.2991 -0.8036 -1.5356
| 22> C 2.9199 -0.5790 -1.5007
| 23> S -0.1576 2.6668 0.2100
| 24> O 0.1433 2.9106 1.6629
| 25> O 0.4378 3.7914 -0.5908
| 26> C -1.8965 2.6024 -0.0480
| 27> C -2.7667 2.3771 1.0264
| 28> C -4.1423 2.2625 0.8053
| 29> C -4.6654 2.3565 -0.4983
| 30> C -6.1175 2.2144 -0.7411
| 31> O -6.9093 2.0114 0.2194
| 32> O -6.6235 2.3007 -2.0356
| 33> C -3.7849 2.5786 -1.5716
| 34> C -2.4110 2.7007 -1.3459
| 35> C 0.9920 -0.3974 1.6248
| 36> C 2.2795 0.3352 2.0052
| 37> F 2.1489 0.8653 3.2764
| 38> F 3.3420 -0.5526 1.9836
| 39> F 2.6003 1.3743 1.1542
| 40> C 0.5504 -1.5286 2.3770
| 41> C 1.2634 -1.9910 3.5111
| 42> C 0.8365 -3.1112 4.2225
| 43> C -0.3012 -3.8020 3.8244
| 44> C -1.0320 -3.3703 2.7203
| 45> C -0.6343 -2.2265 1.9894
| 46> H -3.0731 -1.0715 -1.3091
| 47> H -4.5165 -1.9357 -0.6496
| 48> H -3.7933 -0.5721 0.2762
| 49> H -3.2509 -2.7926 1.2301
| 50> H -1.6783 -4.3531 0.0178
| 51> H -3.2200 -4.1213 -0.8773
| 52> H -1.7219 -3.2665 -1.4222
| 53> H 0.3717 0.0972 -2.1204
| 54> H 0.6606 1.8412 -2.2893
| 55> H 2.9112 2.7549 -2.2183
| 56> H 5.3186 2.3618 -2.3074
| 57> H 4.6825 -1.7964 -1.3333
| 58> H 2.2533 -1.3998 -1.2640
| 59> H -2.3825 2.2747 2.0334
| 60> H -4.7936 2.0848 1.6521
| 61> H -7.6156 2.2057 -2.2120
| 62> H -4.1549 2.6527 -2.5872
| 63> H -1.7485 2.8592 -2.1862
| 64> H 2.1573 -1.5014 3.8693
| 65> H 1.3962 -3.4490 5.0857
| 66> H -0.6203 -4.6780 4.3754
| 67> H -1.8993 -3.9548 2.4509
| 68> *
| 69> 
| 70>                          ****END OF INPUT****
================================================================================

                       ****************************
                       * Single Point Calculation *
                       ****************************

---------------------------------
CARTESIAN COORDINATES (ANGSTROEM)
---------------------------------
  C     -3.558300   -1.440100   -0.376800
  C     -2.647300   -2.427100    0.372800
  C     -2.294000   -3.611700   -0.533600
  C     -1.375500   -1.757300    0.877100
  N     -0.912800   -0.685300    0.190100
  C      0.208900    0.000700    0.512700
  N      0.527700    1.148800   -0.281100
  C      0.927400    0.952900   -1.677500
  C      2.405300    0.700300   -1.760700
  C      3.289100    1.755100   -2.037200
  C      4.667800    1.528000   -2.082200
  C      5.184500    0.241100   -1.830100
  O      6.559700   -0.043200   -1.860300
  C      7.583000    0.882200   -2.220100
  F      7.376100    1.340300   -3.509300
  F      8.806100    0.242600   -2.165600
  F      7.598700    1.947300   -1.337400
  C      4.299100   -0.803600   -1.535600
  C      2.919900   -0.579000   -1.500700
  S     -0.157600    2.666800    0.210000
  O      0.143300    2.910600    1.662900
  O      0.437800    3.791400   -0.590800
  C     -1.896500    2.602400   -0.048000
  C     -2.766700    2.377100    1.026400
  C     -4.142300    2.262500    0.805300
  C     -4.665400    2.356500   -0.498300
  C     -6.117500    2.214400   -0.741100
  O     -6.909300    2.011400    0.219400
  O     -6.623500    2.300700   -2.035600
  C     -3.784900    2.578600   -1.571600
  C     -2.411000    2.700700   -1.345900
  C      0.992000   -0.397400    1.624800
  C      2.279500    0.335200    2.005200
  F      2.148900    0.865300    3.276400
  F      3.342000   -0.552600    1.983600
  F      2.600300    1.374300    1.154200
  C      0.550400   -1.528600    2.377000
  C      1.263400   -1.991000    3.511100
  C      0.836500   -3.111200    4.222500
  C     -0.301200   -3.802000    3.824400
  C     -1.032000   -3.370300    2.720300
  C     -0.634300   -2.226500    1.989400
  H     -3.073100   -1.071500   -1.309100
  H     -4.516500   -1.935700   -0.649600
  H     -3.793300   -0.572100    0.276200
  H     -3.250900   -2.792600    1.230100
  H     -1.678300   -4.353100    0.017800
  H     -3.220000   -4.121300   -0.877300
  H     -1.721900   -3.266500   -1.422200
  H      0.371700    0.097200   -2.120400
  H      0.660600    1.841200   -2.289300
  H      2.911200    2.754900   -2.218300
  H      5.318600    2.361800   -2.307400
  H      4.682500   -1.796400   -1.333300
  H      2.253300   -1.399800   -1.264000
  H     -2.382500    2.274700    2.033400
  H     -4.793600    2.084800    1.652100
  H     -7.615600    2.205700   -2.212000
  H     -4.154900    2.652700   -2.587200
  H     -1.748500    2.859200   -2.186200
  H      2.157300   -1.501400    3.869300
  H      1.396200   -3.449000    5.085700
  H     -0.620300   -4.678000    4.375400
  H     -1.899300   -3.954800    2.450900

----------------------------
CARTESIAN COORDINATES (A.U.)
----------------------------
  NO LB      ZA    FRAG     MASS         X           Y           Z
   0 C     6.0000    0    12.011   -6.724213   -2.721395   -0.712049
   1 C     6.0000    0    12.011   -5.002672   -4.586554    0.704490
   2 C     6.0000    0    12.011   -4.335032   -6.825124   -1.008358
   3 C     6.0000    0    12.011   -2.599318   -3.320816    1.657479
   4 N     7.0000    0    14.007   -1.724942   -1.295029    0.359237
   5 C     6.0000    0    12.011    0.394764    0.001323    0.968863
   6 N     7.0000    0    14.007    0.997208    2.170917   -0.531202
   7 C     6.0000    0    12.011    1.752532    1.800720   -3.170016
   8 C     6.0000    0    12.011    4.545358    1.323375   -3.327241
   9 C     6.0000    0    12.011    6.215498    3.316658   -3.849750
  10 C     6.0000    0    12.011    8.820864    2.887502   -3.934788
  11 C     6.0000    0    12.011    9.797285    0.455613   -3.458388
  12 O     8.0000    0    15.999   12.396037   -0.081636   -3.515458
  13 C     6.0000    0    12.011   14.329793    1.667116   -4.195381
  14 F     9.0000    0    18.998   13.938809    2.532800   -6.631616
  15 F     9.0000    0    18.998   16.641117    0.458448   -4.092391
  16 F     9.0000    0    18.998   14.359462    3.679864   -2.527320
  17 C     6.0000    0    12.011    8.124122   -1.518584   -2.901863
  18 C     6.0000    0    12.011    5.517811   -1.094151   -2.835912
  19 S    16.0000    0    32.060   -0.297821    5.039522    0.396842
  20 O     8.0000    0    15.999    0.270798    5.500237    3.142426
  21 O     8.0000    0    15.999    0.827322    7.164708   -1.116450
  22 C     6.0000    0    12.011   -3.583866    4.917823   -0.090707
  23 C     6.0000    0    12.011   -5.228305    4.492068    1.939615
  24 C     6.0000    0    12.011   -7.827813    4.275505    1.521796
  25 C     6.0000    0    12.011   -8.816328    4.453140   -0.941651
  26 C     6.0000    0    12.011  -11.560400    4.184610   -1.400476
  27 O     8.0000    0    15.999  -13.056685    3.800995    0.414606
  28 O     8.0000    0    15.999  -12.516601    4.347693   -3.846727
  29 C     6.0000    0    12.011   -7.152424    4.872848   -2.969894
  30 C     6.0000    0    12.011   -4.556130    5.103583   -2.543382
  31 C     6.0000    0    12.011    1.874608   -0.750977    3.070427
  32 C     6.0000    0    12.011    4.307631    0.633436    3.789279
  33 F     9.0000    0    18.998    4.060832    1.635180    6.191499
  34 F     9.0000    0    18.998    6.315465   -1.044263    3.748461
  35 F     9.0000    0    18.998    4.913855    2.597051    2.181122
  36 C     6.0000    0    12.011    1.040105   -2.888635    4.491879
  37 C     6.0000    0    12.011    2.387480   -3.762445    6.635017
  38 C     6.0000    0    12.011    1.580756   -5.879316    7.979369
  39 C     6.0000    0    12.011   -0.569186   -7.184739    7.227069
  40 C     6.0000    0    12.011   -1.950197   -6.368944    5.140622
  41 C     6.0000    0    12.011   -1.198653   -4.207475    3.759421
  42 H     1.0000    0     1.008   -5.807317   -2.024842   -2.473840
  43 H     1.0000    0     1.008   -8.534948   -3.657943   -1.227566
  44 H     1.0000    0     1.008   -7.168298   -1.081112    0.521942
  45 H     1.0000    0     1.008   -6.143311   -5.277249    2.324552
  46 H     1.0000    0     1.008   -3.171527   -8.226167    0.033637
  47 H     1.0000    0     1.008   -6.084918   -7.788128   -1.657857
  48 H     1.0000    0     1.008   -3.253919   -6.172790   -2.687569
  49 H     1.0000    0     1.008    0.702411    0.183681   -4.006975
  50 H     1.0000    0     1.008    1.248353    3.479364   -4.326150
  51 H     1.0000    0     1.008    5.501371    5.206007   -4.191979
  52 H     1.0000    0     1.008   10.050697    4.463155   -4.360354
  53 H     1.0000    0     1.008    8.848643   -3.394704   -2.519572
  54 H     1.0000    0     1.008    4.258120   -2.645239   -2.388614
  55 H     1.0000    0     1.008   -4.502273    4.298560    3.842569
  56 H     1.0000    0     1.008   -9.058591    3.939701    3.122017
  57 H     1.0000    0     1.008  -14.391398    4.168169   -4.180074
  58 H     1.0000    0     1.008   -7.851623    5.012877   -4.889099
  59 H     1.0000    0     1.008   -3.304186    5.403105   -4.131319
  60 H     1.0000    0     1.008    4.076706   -2.837235    7.311917
  61 H     1.0000    0     1.008    2.638436   -6.517665    9.610580
  62 H     1.0000    0     1.008   -1.172197   -8.840139    8.268308
  63 H     1.0000    0     1.008   -3.589157   -7.473489    4.631530

--------------------------------
INTERNAL COORDINATES (ANGSTROEM)
--------------------------------
 C      0   0   0     0.000000000000     0.00000000     0.00000000
 C      1   0   0     1.538177545019     0.00000000     0.00000000
 C      2   1   0     1.532859748966   110.13453961     0.00000000
 C      2   1   3     1.523294380611   111.94201184   122.79990958
 N      4   2   1     1.354711884498   117.72426456   332.22066364
 C      5   4   2     1.353838118092   124.27109352   180.65221340
 N      6   5   4     1.431742117143   117.30308255   182.76628838
 C      7   6   5     1.465629509801   118.80187874   291.84953479
 C      8   7   6     1.501638242054   110.10109833   273.52556675
 C      9   8   7     1.403623072623   120.27860141   263.93589355
 C     10   9   8     1.398003254646   120.34645222   178.40854324
 C     11  10   9     1.409483916191   120.27076232   359.03301529
 O     12  11  10     1.404604417621   122.67482740   180.08281227
 C     13  12  11     1.425820497117   125.22058781   355.99650128
 F     14  13  12     1.383726801070   110.03931061   300.62740307
 F     14  13  12     1.381315322437   108.96598373   181.39949063
 F     14  13  12     1.383417431580   110.29323633    62.10662672
 C     12  11  10     1.400736056507   119.13330112     0.03861595
 C     18  12  11     1.397803924018   120.60347639     0.45711593
 S      7   6   5     1.736415647246   117.15119504    88.11921589
 O     20   7   6     1.503628165472   109.63640023    52.12662399
 O     20   7   6     1.503498240771   110.30229633   171.31071266
 C     20   7   6     1.759114712007   108.46006688   291.74179769
 C     23  20   7     1.400836710684   120.49493744   101.34589806
 C     24  23  20     1.397960560960   120.20830831   183.10440411
 C     25  24  23     1.407779304437   120.43866894     0.74020092
 C     26  25  24     1.479100625380   120.68955548   179.01179322
 O     27  26  25     1.261236096058   120.45008560     0.25780701
 O     27  26  25     1.392556620034   120.22311214   180.40519538
 C     26  25  24     1.405909509890   118.99674083   359.46112127
 C     30  26  25     1.397658795987   120.40833081     0.15288994
 C      6   5   4     1.417214038175   120.16326570     0.67307827
 C     32   6   5     1.529399610958   121.72123118   178.81681018
 F     33  32   6     1.383478156676   109.42731888   118.79120109
 F     33  32   6     1.384760502759   109.56878671   238.75595027
 F     33  32   6     1.380884662092   113.74951606   358.62124381
 C     32   6   5     1.428435801848   117.70030309   359.77450888
 C     37  32   6     1.417168151632   121.61840365   180.55884118
 C     38  37  32     1.393980491255   121.09950792   181.21347640
 C     39  38  37     1.389262228667   120.27394406     0.29028564
 C     40  39  38     1.392648677880   120.18407008   359.25184600
 C     41  40  39     1.414446372260   120.85047533   359.87707904
 H      1   2   3     1.113763121135   111.24019548   302.04550287
 H      1   2   3     1.112738262126   110.10177249    62.36249015
 H      1   2   3     1.111331633672   109.88070823   181.25588781
 H      2   1   3     1.110354222760   105.39832500   242.43639522
 H      3   2   1     1.110316355819   110.49861981   182.83271168
 H      3   2   1     1.111439539516   110.19168952   302.13755800
 H      3   2   1     1.111787484189   110.56453604    62.57499393
 H      8   7   6     1.112288357397   110.24037109    34.93068695
 H      8   7   6     1.111106822047   110.62615115   151.86109857
 H     10   9   8     1.084069029167   120.42977380   358.40819561
 H     11  10   9     1.081424116617   118.35567320   179.42229757
 H     18  12  11     1.083315600368   119.93782659   180.40207559
 H     19  18  12     1.083556685181   119.38962940   180.42128326
 H     24  23  20     1.082656178110   120.54015114     2.16698702
 H     25  24  23     1.082977017300   118.78746933   179.77923612
 H     29  27  26     1.012128633129   120.82162636   180.05888096
 H     30  26  25     1.083436278698   120.83353052   179.80083294
 H     31  30  26     1.081726670652   119.30069538   179.25168640
 H     38  37  32     1.080311348640   122.26060377     1.23583799
 H     39  38  37     1.082814467026   119.94903714   179.92810536
 H     40  39  38     1.082959745328   119.84929396   179.30618994
 H     41  40  39     1.080011990674   116.83346732   179.22059277

---------------------------
INTERNAL COORDINATES (A.U.)
---------------------------
 C      0   0   0     0.000000000000     0.00000000     0.00000000
 C      1   0   0     2.906734305433     0.00000000     0.00000000
 C      2   1   0     2.896685127257   110.13453961     0.00000000
 C      2   1   3     2.878609200695   111.94201184   122.79990958
 N      4   2   1     2.560034452069   117.72426456   332.22066364
 C      5   4   2     2.558383272858   124.27109352   180.65221340
 N      6   5   4     2.705600495800   117.30308255   182.76628838
 C      7   6   5     2.769638387317   118.80187874   291.84953479
 C      8   7   6     2.837685029706   110.10109833   273.52556675
 C      9   8   7     2.652463202511   120.27860141   263.93589355
 C     10   9   8     2.641843285611   120.34645222   178.40854324
 C     11  10   9     2.663538591767   120.27076232   359.03301529
 O     12  11  10     2.654317675799   122.67482740   180.08281227
 C     13  12  11     2.694410255683   125.22058781   355.99650128
 F     14  13  12     2.614864698190   110.03931061   300.62740307
 F     14  13  12     2.610307663996   108.96598373   181.39949063
 F     14  13  12     2.614280074579   110.29323633    62.10662672
 C     12  11  10     2.647007532708   119.13330112     0.03861595
 C     18  12  11     2.641466605314   120.60347639     0.45711593
 S      7   6   5     3.281350027950   117.15119504    88.11921589
 O     20   7   6     2.841445439992   109.63640023    52.12662399
 O     20   7   6     2.841199917889   110.30229633   171.31071266
 C     20   7   6     3.324245043845   108.46006688   291.74179769
 C     23  20   7     2.647197741536   120.49493744   101.34589806
 C     24  23  20     2.641762606238   120.20830831   183.10440411
 C     25  24  23     2.660317342387   120.43866894     0.74020092
 C     26  25  24     2.795095106480   120.68955548   179.01179322
 O     27  26  25     2.383390811766   120.45008560     0.25780701
 O     27  26  25     2.631550637843   120.22311214   180.40519538
 C     26  25  24     2.656783942768   118.99674083   359.46112127
 C     30  26  25     2.641192353082   120.40833081     0.15288994
 C      6   5   4     2.678146405299   120.16326570     0.67307827
 C     32   6   5     2.890146414037   121.72123118   178.81681018
 F     33  32   6     2.614394828380   109.42731888   118.79120109
 F     33  32   6     2.616818111285   109.56878671   238.75595027
 F     33  32   6     2.609493833886   113.74951606   358.62124381
 C     32   6   5     2.699352465380   117.70030309   359.77450888
 C     37  32   6     2.678059692300   121.61840365   180.55884118
 C     38  37  32     2.634241364501   121.09950792   181.21347640
 C     39  38  37     2.625325140381   120.27394406     0.29028564
 C     40  39  38     2.631724601960   120.18407008   359.25184600
 C     41  40  39     2.672916274690   120.85047533   359.87707904
 H      1   2   3     2.104707277006   111.24019548   302.04550287
 H      1   2   3     2.102770574154   110.10177249    62.36249015
 H      1   2   3     2.100112431603   109.88070823   181.25588781
 H      2   1   3     2.098265392659   105.39832500   242.43639522
 H      3   2   1     2.098193834512   110.49861981   182.83271168
 H      3   2   1     2.100316344097   110.19168952   302.13755800
 H      3   2   1     2.100973864239   110.56453604    62.57499393
 H      8   7   6     2.101920377429   110.24037109    34.93068695
 H      8   7   6     2.099687599201   110.62615115   151.86109857
 H     10   9   8     2.048593575392   120.42977380   358.40819561
 H     11  10   9     2.043595415023   118.35567320   179.42229757
 H     18  12  11     2.047169801299   119.93782659   180.40207559
 H     19  18  12     2.047625385571   119.38962940   180.42128326
 H     24  23  20     2.045923673826   120.54015114     2.16698702
 H     25  24  23     2.046529972028   118.78746933   179.77923612
 H     29  27  26     1.912645928914   120.82162636   180.05888096
 H     30  26  25     2.047397850295   120.83353052   179.80083294
 H     31  30  26     2.044167159291   119.30069538   179.25168640
 H     38  37  32     2.041492588296   122.26060377     1.23583799
 H     39  38  37     2.046222796526   119.94903714   179.92810536
 H     40  39  38     2.046497332730   119.84929396   179.30618994
 H     41  40  39     2.040926883725   116.83346732   179.22059277

---------------------
BASIS SET INFORMATION
---------------------
There are 6 groups of distinct atoms

 Group   1 Type C   : 10s4p1d contracted to 3s2p1d pattern {631/31/1}
 Group   2 Type N   : 10s4p1d contracted to 3s2p1d pattern {631/31/1}
 Group   3 Type O   : 10s4p1d contracted to 3s2p1d pattern {631/31/1}
 Group   4 Type F   : 10s4p1d contracted to 3s2p1d pattern {631/31/1}
 Group   5 Type S   : 16s10p1d contracted to 4s3p1d pattern {6631/631/1}
 Group   6 Type H   : 4s contracted to 2s pattern {31}

Atom   0C    basis set group =>   1
Atom   1C    basis set group =>   1
Atom   2C    basis set group =>   1
Atom   3C    basis set group =>   1
Atom   4N    basis set group =>   2
Atom   5C    basis set group =>   1
Atom   6N    basis set group =>   2
Atom   7C    basis set group =>   1
Atom   8C    basis set group =>   1
Atom   9C    basis set group =>   1
Atom  10C    basis set group =>   1
Atom  11C    basis set group =>   1
Atom  12O    basis set group =>   3
Atom  13C    basis set group =>   1
Atom  14F    basis set group =>   4
Atom  15F    basis set group =>   4
Atom  16F    basis set group =>   4
Atom  17C    basis set group =>   1
Atom  18C    basis set group =>   1
Atom  19S    basis set group =>   5
Atom  20O    basis set group =>   3
Atom  21O    basis set group =>   3
Atom  22C    basis set group =>   1
Atom  23C    basis set group =>   1
Atom  24C    basis set group =>   1
Atom  25C    basis set group =>   1
Atom  26C    basis set group =>   1
Atom  27O    basis set group =>   3
Atom  28O    basis set group =>   3
Atom  29C    basis set group =>   1
Atom  30C    basis set group =>   1
Atom  31C    basis set group =>   1
Atom  32C    basis set group =>   1
Atom  33F    basis set group =>   4
Atom  34F    basis set group =>   4
Atom  35F    basis set group =>   4
Atom  36C    basis set group =>   1
Atom  37C    basis set group =>   1
Atom  38C    basis set group =>   1
Atom  39C    basis set group =>   1
Atom  40C    basis set group =>   1
Atom  41C    basis set group =>   1
Atom  42H    basis set group =>   6
Atom  43H    basis set group =>   6
Atom  44H    basis set group =>   6
Atom  45H    basis set group =>   6
Atom  46H    basis set group =>   6
Atom  47H    basis set group =>   6
Atom  48H    basis set group =>   6
Atom  49H    basis set group =>   6
Atom  50H    basis set group =>   6
Atom  51H    basis set group =>   6
Atom  52H    basis set group =>   6
Atom  53H    basis set group =>   6
Atom  54H    basis set group =>   6
Atom  55H    basis set group =>   6
Atom  56H    basis set group =>   6
Atom  57H    basis set group =>   6
Atom  58H    basis set group =>   6
Atom  59H    basis set group =>   6
Atom  60H    basis set group =>   6
Atom  61H    basis set group =>   6
Atom  62H    basis set group =>   6
Atom  63H    basis set group =>   6
---------------------------------
AUXILIARY/J BASIS SET INFORMATION
---------------------------------
There are 6 groups of distinct atoms

 Group   1 Type C   : 12s5p4d2f1g contracted to 6s4p3d1f1g pattern {711111/2111/211/2/1}
 Group   2 Type N   : 12s5p4d2f1g contracted to 6s4p3d1f1g pattern {711111/2111/211/2/1}
 Group   3 Type O   : 12s5p4d2f1g contracted to 6s4p3d1f1g pattern {711111/2111/211/2/1}
 Group   4 Type F   : 12s5p4d2f1g contracted to 6s4p3d1f1g pattern {711111/2111/211/2/1}
 Group   5 Type S   : 14s5p5d2f1g contracted to 8s4p3d1f1g pattern {71111111/2111/311/2/1}
 Group   6 Type H   : 5s2p1d contracted to 3s1p1d pattern {311/2/1}

Atom   0C    basis set group =>   1
Atom   1C    basis set group =>   1
Atom   2C    basis set group =>   1
Atom   3C    basis set group =>   1
Atom   4N    basis set group =>   2
Atom   5C    basis set group =>   1
Atom   6N    basis set group =>   2
Atom   7C    basis set group =>   1
Atom   8C    basis set group =>   1
Atom   9C    basis set group =>   1
Atom  10C    basis set group =>   1
Atom  11C    basis set group =>   1
Atom  12O    basis set group =>   3
Atom  13C    basis set group =>   1
Atom  14F    basis set group =>   4
Atom  15F    basis set group =>   4
Atom  16F    basis set group =>   4
Atom  17C    basis set group =>   1
Atom  18C    basis set group =>   1
Atom  19S    basis set group =>   5
Atom  20O    basis set group =>   3
Atom  21O    basis set group =>   3
Atom  22C    basis set group =>   1
Atom  23C    basis set group =>   1
Atom  24C    basis set group =>   1
Atom  25C    basis set group =>   1
Atom  26C    basis set group =>   1
Atom  27O    basis set group =>   3
Atom  28O    basis set group =>   3
Atom  29C    basis set group =>   1
Atom  30C    basis set group =>   1
Atom  31C    basis set group =>   1
Atom  32C    basis set group =>   1
Atom  33F    basis set group =>   4
Atom  34F    basis set group =>   4
Atom  35F    basis set group =>   4
Atom  36C    basis set group =>   1
Atom  37C    basis set group =>   1
Atom  38C    basis set group =>   1
Atom  39C    basis set group =>   1
Atom  40C    basis set group =>   1
Atom  41C    basis set group =>   1
Atom  42H    basis set group =>   6
Atom  43H    basis set group =>   6
Atom  44H    basis set group =>   6
Atom  45H    basis set group =>   6
Atom  46H    basis set group =>   6
Atom  47H    basis set group =>   6
Atom  48H    basis set group =>   6
Atom  49H    basis set group =>   6
Atom  50H    basis set group =>   6
Atom  51H    basis set group =>   6
Atom  52H    basis set group =>   6
Atom  53H    basis set group =>   6
Atom  54H    basis set group =>   6
Atom  55H    basis set group =>   6
Atom  56H    basis set group =>   6
Atom  57H    basis set group =>   6
Atom  58H    basis set group =>   6
Atom  59H    basis set group =>   6
Atom  60H    basis set group =>   6
Atom  61H    basis set group =>   6
Atom  62H    basis set group =>   6
Atom  63H    basis set group =>   6
------------------------------------------------------------------------------
                             ORCA STARTUP CALCULATIONS
                           -- RI-GTO INTEGRALS CHOSEN --
------------------------------------------------------------------------------
------------------------------------------------------------------------------
                   ___                                                        
                  /   \      - P O W E R E D   B Y -                         
                 /     \                                                     
                 |  |  |   _    _      __       _____    __    __             
                 |  |  |  | |  | |    /  \     |  _  \  |  |  /  |          
                  \  \/   | |  | |   /    \    | | | |  |  | /  /          
                 / \  \   | |__| |  /  /\  \   | |_| |  |  |/  /          
                |  |  |   |  __  | /  /__\  \  |    /   |      \           
                |  |  |   | |  | | |   __   |  |    \   |  |\   \          
                \     /   | |  | | |  |  |  |  | |\  \  |  | \   \       
                 \___/    |_|  |_| |__|  |__|  |_| \__\ |__|  \__/        
                                                                              
                      - O R C A' S   B I G   F R I E N D -                    
                                      &                                       
                       - I N T E G R A L  F E E D E R -                       
                                                                              
 v1 FN, 2020, v2 2021, v3 2022-2024                                           
------------------------------------------------------------------------------


----------------------
SHARK INTEGRAL PACKAGE
----------------------

Number of atoms                             ...     64
Number of basis functions                   ...    636
Number of shells                            ...    298
Maximum angular momentum                    ...      2
Integral batch strategy                     ... SHARK/LIBINT Hybrid
RI-J (if used) integral strategy            ... SPLIT-RIJ (Revised 2003 algorithm where possible)
Printlevel                                  ...      1
Contraction scheme used                     ... SEGMENTED contraction
Prescreening option                         ... SCHWARTZ
   Thresh                                   ... 1.000e-10
   Tcut                                     ... 1.000e-11
   Tpresel                                  ... 1.000e-11 
Coulomb Range Separation                    ... NOT USED
Exchange Range Separation                   ... NOT USED
Multipole approximations                    ... NOT USED
Finite Nucleus Model                        ... NOT USED
CABS basis                                  ... NOT available
Auxiliary Coulomb fitting basis             ... AVAILABLE
   # of basis functions in Aux-J            ...   2302
   # of shells in Aux-J                     ...    742
   Maximum angular momentum in Aux-J        ...      4
Auxiliary J/K fitting basis                 ... NOT available
Auxiliary Correlation fitting basis         ... NOT available
Auxiliary 'external' fitting basis          ... NOT available

Checking pre-screening integrals            ... done (  0.0 sec) Dimension = 298
Check shell pair data                       ... done (  0.0 sec)
Shell pair information
Shell pair cut-off parameter TPreSel        ...   1.0e-11
Total number of shell pairs                 ...     44551
Shell pairs after pre-screening             ...     23203
Total number of primitive shell pairs       ...    267793
Primitive shell pairs kept                  ...     68507
          la=0 lb=0:   7160 shell pairs
          la=1 lb=0:   8307 shell pairs
          la=1 lb=1:   2404 shell pairs
          la=2 lb=0:   3091 shell pairs
          la=2 lb=1:   1899 shell pairs
          la=2 lb=2:    342 shell pairs

Calculating one electron integrals          ... done (  0.4 sec)
Calculating RI/J V-Matrix + Cholesky decomp.... done (  0.7 sec)
Calculating Nuclear repulsion               ... done (  0.0 sec) ENN=   5461.086836637453 Eh

Diagonalization of the overlap matrix:
Smallest eigenvalue                        ... 3.253e-04
Time for diagonalization                   ...    0.083 sec
Threshold for overlap eigenvalues          ... 1.000e-07
Number of eigenvalues below threshold      ... 0
Time for construction of square roots      ...    0.052 sec
Total time needed                          ...    0.145 sec

-------------------
DFT GRID GENERATION
-------------------

General Integration Accuracy     IntAcc      ... 4.388
Radial Grid Type                 RadialGrid  ... OptM3 with GC (2021)
Angular Grid (max. ang.)         AngularGrid ... 4 (Lebedev-302)
Angular grid pruning method      GridPruning ... 4 (adaptive)
Weight generation scheme         WeightScheme... mBecke (2022)
Basis function cutoff            BFCut       ... 1.0000e-10
Integration weight cutoff        WCut        ... 1.0000e-14
Partially contracted basis set               ... off
Rotationally invariant grid construction     ... off
Angular grids for H and He will be reduced by one unit

Total number of grid points                  ...   321581
Total number of batches                      ...     5056
Average number of points per batch           ...       63
Average number of grid points per atom       ...     5025

--------------------
COSX GRID GENERATION
--------------------

GRIDX 1
-------
General Integration Accuracy     IntAcc      ... 3.816
Radial Grid Type                 RadialGrid  ... OptM3 with GC (2021)
Angular Grid (max. ang.)         AngularGrid ... 1 (Lebedev-50)
Angular grid pruning method      GridPruning ... 4 (adaptive)
Weight generation scheme         WeightScheme... mBecke (2022)
Basis function cutoff            BFCut       ... 1.0000e-10
Integration weight cutoff        WCut        ... 1.0000e-14
Partially contracted basis set               ... on
Rotationally invariant grid construction     ... off
Angular grids for H and He will be reduced by one unit

Total number of grid points                  ...    41671
Total number of batches                      ...      359
Average number of points per batch           ...      116
Average number of grid points per atom       ...      651
UseSFitting                                  ... on

GRIDX 2
-------
General Integration Accuracy     IntAcc      ... 4.020
Radial Grid Type                 RadialGrid  ... OptM3 with GC (2021)
Angular Grid (max. ang.)         AngularGrid ... 2 (Lebedev-110)
Angular grid pruning method      GridPruning ... 4 (adaptive)
Weight generation scheme         WeightScheme... mBecke (2022)
Basis function cutoff            BFCut       ... 1.0000e-10
Integration weight cutoff        WCut        ... 1.0000e-14
Partially contracted basis set               ... on
Rotationally invariant grid construction     ... off
Angular grids for H and He will be reduced by one unit

Total number of grid points                  ...    89314
Total number of batches                      ...      733
Average number of points per batch           ...      121
Average number of grid points per atom       ...     1396
UseSFitting                                  ... on

GRIDX 3
-------
General Integration Accuracy     IntAcc      ... 4.338
Radial Grid Type                 RadialGrid  ... OptM3 with GC (2021)
Angular Grid (max. ang.)         AngularGrid ... 3 (Lebedev-194)
Angular grid pruning method      GridPruning ... 4 (adaptive)
Weight generation scheme         WeightScheme... mBecke (2022)
Basis function cutoff            BFCut       ... 1.0000e-10
Integration weight cutoff        WCut        ... 1.0000e-14
Partially contracted basis set               ... on
Rotationally invariant grid construction     ... off
Angular grids for H and He will be reduced by one unit

Total number of grid points                  ...   195756
Total number of batches                      ...     1561
Average number of points per batch           ...      125
Average number of grid points per atom       ...     3059
UseSFitting                                  ... on
Initializing property integral containers    ... done (  0.0 sec)

SHARK setup successfully completed in  21.1 seconds

Maximum memory used throughout the entire STARTUP-calculation: 144.7 MB
-------------------------------------------------------------------------------
                                 ORCA GUESS
                   Start orbitals & Density for SCF / CASSCF
-------------------------------------------------------------------------------

------------
SCF SETTINGS
------------
Hamiltonian:
 Density Functional     Method          .... DFT(GTOs)
 Exchange Functional    Exchange        .... B88
   X-Alpha parameter    XAlpha          ....  0.666667
   Becke's b parameter  XBeta           ....  0.004200
 Correlation Functional Correlation     .... LYP
 LDA part of GGA corr.  LDAOpt          .... VWN-5
 Gradients option       PostSCFGGA      .... off
 Hybrid DFT is turned on
   Fraction HF Exchange ScalHFX         ....  0.200000
   Scaling of DF-GGA-X  ScalDFX         ....  0.720000
   Scaling of DF-GGA-C  ScalDFC         ....  0.810000
   Scaling of DF-LDA-C  ScalLDAC        ....  1.000000
   Perturbative correction              ....  0.000000
   NL short-range parameter             ....  4.800000
 RI-approximation to the Coulomb term is turned on
   Number of AuxJ basis functions       .... 2302
   RIJ-COSX (HFX calculated with COS-X)).... on


General Settings:
 Integral files         IntName         .... /home/nmrbox/aojoawo/Documents/ERDOS/inputs/CHEMBL3682592
 Hartree-Fock type      HFTyp           .... RHF
 Total Charge           Charge          ....    0
 Multiplicity           Mult            ....    1
 Number of Electrons    NEL             ....  314
 Basis Dimension        Dim             ....  636
 Nuclear Repulsion      ENuc            ....   5461.0868366375 Eh

Convergence Acceleration:
 AO-DIIS                CNVDIIS         .... on
   Start iteration      DIISMaxIt       ....    12
   Startup error        DIISStart       ....  0.200000
   # of expansion vecs  DIISMaxEq       ....     5
   Bias factor          DIISBfac        ....   1.050
   Max. coefficient     DIISMaxC        ....  10.000
 MO-DIIS                CNVKDIIS        .... off
 Trust-Rad. Augm. Hess. CNVTRAH         .... auto
   Auto Start mean grad. ratio tolernc. ....  1.125000
   Auto Start start iteration           ....    50
   Auto Start num. interpolation iter.  ....    10
   Max. Number of Micro iterations      ....    24
   Max. Number of Macro iterations      .... Maxiter - #DIIS iter
   Number of Davidson start vectors     ....     2
   Converg. threshold    (grad. norm)   ....   5.000e-05
   Grad. Scal. Fac. for Micro threshold ....   0.100
   Minimum threshold for Micro iter.    ....   1.000e-02
   NR start threshold (gradient norm)   ....   1.000e-04
   Initial trust radius                 ....   0.400
   Minimum AH scaling param. (alpha)    ....   1.000
   Maximum AH scaling param. (alpha)    .... 1000.000
   Quad. conv. algorithm                .... NR
   White noise on init. David. guess    .... on
   Maximum white noise                  ....   0.010
   Pseudo random numbers                .... off
   Inactive MOs                         .... canonical
   Orbital update algorithm             .... Taylor
   Preconditioner                       .... Diag
   Full preconditioner red. dimension   ....   250
 SOSCF                  CNVSOSCF        .... on
   Start iteration      SOSCFMaxIt      ....   150
   Startup grad/error   SOSCFStart      ....  0.003300
   Hessian update       SOSCFHessUp     .... L-BFGS
 Level Shifting         CNVShift        .... on
   Level shift para.    LevelShift      ....    0.2500
   Turn off err/grad.   ShiftErr        ....    0.0010
 Zerner damping         CNVZerner       .... off
 Static damping         CNVDamp         .... on
   Fraction old density DampFac         ....    0.7000
   Max. Damping (<1)    DampMax         ....    0.9800
   Min. Damping (>=0)   DampMin         ....    0.0000
   Turn off err/grad.   DampErr         ....    0.1000

SCF Procedure:
 Maximum # iterations   MaxIter         ....   125
 SCF integral mode      SCFMode         .... Direct
   Integral package                     .... SHARK and LIBINT hybrid scheme
 Reset frequency        DirectResetFreq ....    20
 Integral Threshold     Thresh          ....  1.000e-10 Eh
 Primitive CutOff       TCut            ....  1.000e-11 Eh

Convergence Tolerance:
 Convergence Check Mode ConvCheckMode   .... Total+1el-Energy
 Convergence forced     ConvForced      .... 0
 Energy Change          TolE            ....  1.000e-06 Eh
 1-El. energy change                    ....  1.000e-03 Eh
 Orbital Gradient       TolG            ....  5.000e-05
 Orbital Rotation angle TolX            ....  5.000e-05
 DIIS Error             TolErr          ....  1.000e-06

------------------------------
INITIAL GUESS: MODEL POTENTIAL
------------------------------
Loading Hartree-Fock densities                     ... done
Calculating cut-offs                               ... done
Initializing the effective Hamiltonian             ... done
Setting up the integral package (SHARK)            ... done
Starting the Coulomb interaction                   ... done (   6.6 sec)
Making the grid                                    ... done (   2.5 sec)
Mapping shells                                     ... done
Starting the XC term evaluation                    ... done (   1.8 sec)
  promolecular density results
     # of electrons  =    313.955146065
     EX              =   -289.936399185
     EC              =    -11.144956432
     EX+EC           =   -301.081355616
Transforming the Hamiltonian                       ... done (   0.0 sec)
Diagonalizing the Hamiltonian                      ... done (   0.1 sec)
Back transforming the eigenvectors                 ... done (   0.0 sec)
Now organizing SCF variables                       ... done
                      ------------------
                      INITIAL GUESS DONE (  11.1 sec)
                      ------------------
             **** ENERGY FILE WAS UPDATED (/home/nmrbox/aojoawo/Documents/ERDOS/inputs/CHEMBL3682592.en.tmp) ****
Finished Guess after  11.6 sec
Maximum memory used throughout the entire GUESS-calculation: 81.8 MB

-------------------------------------------------------------------------------------------
                                      ORCA LEAN-SCF
                              memory conserving SCF solver
-------------------------------------------------------------------------------------------

----------------------------------------D-I-I-S--------------------------------------------
Iteration    Energy (Eh)           Delta-E    RMSDP     MaxDP     DIISErr   Damp  Time(sec)
-------------------------------------------------------------------------------------------
               ***  Starting incremental Fock matrix formation  ***
    1    -2560.6075376015041911     0.00e+00  2.17e-03  1.87e-01  2.93e-01  0.700 115.9
    2    -2561.1778700592039968    -5.70e-01  1.30e-03  7.71e-02  9.97e-02  0.700  49.9
                               ***Turning on AO-DIIS***
    3    -2561.3708033144084766    -1.93e-01  5.04e-04  1.73e-02  4.24e-02  0.700  48.3
    4    -2561.4983370935033236    -1.28e-01  8.51e-04  3.30e-02  1.81e-02  0.000  44.0
    5    -2561.7865201533513755    -2.88e-01  1.95e-04  7.37e-03  7.92e-03  0.000  45.7
                              *** Initializing SOSCF ***
---------------------------------------S-O-S-C-F--------------------------------------
Iteration    Energy (Eh)           Delta-E    RMSDP     MaxDP     MaxGrad    Time(sec)
--------------------------------------------------------------------------------------
    6    -2561.7883440704472378    -1.82e-03  6.50e-05  3.48e-03  2.65e-03    39.5
               *** Restarting incremental Fock matrix formation ***
    7    -2561.7883604258286141    -1.64e-05  6.35e-05  3.71e-03  4.57e-04   116.5
    8    -2561.7882678186488192     9.26e-05  4.24e-05  2.73e-03  1.13e-03    63.8
    9    -2561.7883948061107731    -1.27e-04  1.30e-05  1.04e-03  1.52e-04    58.3
   10    -2561.7883909513830076     3.85e-06  8.52e-06  7.02e-04  2.86e-04    46.0
   11    -2561.7883965048913524    -5.55e-06  2.28e-06  1.22e-04  3.37e-05    41.4
   12    -2561.7883964253769591     7.95e-08  1.42e-06  8.53e-05  5.41e-05    32.0
                 **** Energy Check signals convergence ****

               *****************************************************
               *                     SUCCESS                       *
               *           SCF CONVERGED AFTER  12 CYCLES          *
               *****************************************************

Recomputing exchange energy using gridx3       ... done (  203.572 sec)
Old exchange energy                            :    -58.523754354 Eh
New exchange energy                            :    -58.523806086 Eh
Exchange energy change after final integration :     -0.000051732 Eh
Total energy after final integration           :  -2561.788448157 Eh
             **** ENERGY FILE WAS UPDATED (/home/nmrbox/aojoawo/Documents/ERDOS/inputs/CHEMBL3682592.en.tmp) ****

----------------
TOTAL SCF ENERGY
----------------

Total Energy       :      -2561.78844815705270 Eh          -69709.80765 eV

Components:
Nuclear Repulsion  :       5461.08683663745251 Eh          148603.72769 eV
Electronic Energy  :      -8022.87523306282947 Eh         -218313.53394 eV
One Electron Energy:     -14394.35096882445578 Eh         -391690.20301 eV
Two Electron Energy:       6371.47573576162631 Eh          173376.66907 eV

Virial components:
Potential Energy   :      -5108.96018108915177 Eh         -139021.87426 eV
Kinetic Energy     :       2547.17173293209908 Eh           69312.06661 eV
Virial Ratio       :          2.00573840979624

DFT components:
N(Alpha)           :      156.999945825468 electrons
N(Beta)            :      156.999945825468 electrons
N(Total)           :      313.999891650936 electrons
E(X)               :     -232.716228655510 Eh       
E(C)               :      -13.076757005011 Eh       
E(XC)              :     -245.792985660521 Eh       

---------------
SCF CONVERGENCE
---------------

  Last Energy change         ...   -7.9514e-08  Tolerance :   1.0000e-06
  Last MAX-Density change    ...    8.5331e-05  Tolerance :   1.0000e-05
  Last RMS-Density change    ...    1.4234e-06  Tolerance :   1.0000e-06
  Last DIIS Error            ...    2.6487e-03  Tolerance :   1.0000e-06
  Last Orbital Gradient      ...    5.4101e-05  Tolerance :   5.0000e-05
  Last Orbital Rotation      ...    7.4038e-05  Tolerance :   5.0000e-05


----------------
ORBITAL ENERGIES
----------------

  NO   OCC          E(Eh)            E(eV) 
   0   2.0000     -89.098548     -2424.4948 
   1   2.0000     -24.736392      -673.1114 
   2   2.0000     -24.733470      -673.0319 
   3   2.0000     -24.733246      -673.0258 
   4   2.0000     -24.715920      -672.5544 
   5   2.0000     -24.710962      -672.4194 
   6   2.0000     -24.707512      -672.3256 
   7   2.0000     -19.207438      -522.6610 
   8   2.0000     -19.197552      -522.3919 
   9   2.0000     -19.138702      -520.7906 
  10   2.0000     -19.131211      -520.5867 
  11   2.0000     -19.126877      -520.4688 
  12   2.0000     -14.373723      -391.1289 
  13   2.0000     -14.344621      -390.3370 
  14   2.0000     -10.498597      -285.6813 
  15   2.0000     -10.435026      -283.9515 
  16   2.0000     -10.336278      -281.2644 
  17   2.0000     -10.281348      -279.7697 
  18   2.0000     -10.263488      -279.2837 
  19   2.0000     -10.251952      -278.9698 
  20   2.0000     -10.241190      -278.6770 
  21   2.0000     -10.232409      -278.4380 
  22   2.0000     -10.231901      -278.4242 
  23   2.0000     -10.231619      -278.4165 
  24   2.0000     -10.228933      -278.3434 
  25   2.0000     -10.221132      -278.1311 
  26   2.0000     -10.219215      -278.0790 
  27   2.0000     -10.219004      -278.0732 
  28   2.0000     -10.218068      -278.0478 
  29   2.0000     -10.217358      -278.0284 
  30   2.0000     -10.208987      -277.8007 
  31   2.0000     -10.206498      -277.7329 
  32   2.0000     -10.206483      -277.7325 
  33   2.0000     -10.205824      -277.7146 
  34   2.0000     -10.204652      -277.6827 
  35   2.0000     -10.192906      -277.3631 
  36   2.0000     -10.192564      -277.3538 
  37   2.0000     -10.192274      -277.3459 
  38   2.0000     -10.190118      -277.2872 
  39   2.0000     -10.188350      -277.2391 
  40   2.0000     -10.187057      -277.2039 
  41   2.0000     -10.175196      -276.8811 
  42   2.0000      -8.134485      -221.3506 
  43   2.0000      -6.099483      -165.9754 
  44   2.0000      -6.097556      -165.9229 
  45   2.0000      -6.097066      -165.9096 
  46   2.0000      -1.298777       -35.3415 
  47   2.0000      -1.274231       -34.6736 
  48   2.0000      -1.219376       -33.1809 
  49   2.0000      -1.219115       -33.1738 
  50   2.0000      -1.200037       -32.6547 
  51   2.0000      -1.194071       -32.4923 
  52   2.0000      -1.085879       -29.5483 
  53   2.0000      -1.082061       -29.4444 
  54   2.0000      -1.077244       -29.3133 
  55   2.0000      -0.996035       -27.1035 
  56   2.0000      -0.978485       -26.6259 
  57   2.0000      -0.964765       -26.2526 
  58   2.0000      -0.926278       -25.2053 
  59   2.0000      -0.890085       -24.2205 
  60   2.0000      -0.876647       -23.8548 
  61   2.0000      -0.859544       -23.3894 
  62   2.0000      -0.831674       -22.6310 
  63   2.0000      -0.807496       -21.9731 
  64   2.0000      -0.804002       -21.8780 
  65   2.0000      -0.783452       -21.3188 
  66   2.0000      -0.777039       -21.1443 
  67   2.0000      -0.775909       -21.1135 
  68   2.0000      -0.753642       -20.5077 
  69   2.0000      -0.753142       -20.4940 
  70   2.0000      -0.727511       -19.7966 
  71   2.0000      -0.711765       -19.3681 
  72   2.0000      -0.696517       -18.9532 
  73   2.0000      -0.687501       -18.7079 
  74   2.0000      -0.675991       -18.3947 
  75   2.0000      -0.659969       -17.9587 
  76   2.0000      -0.659329       -17.9412 
  77   2.0000      -0.639182       -17.3930 
  78   2.0000      -0.630471       -17.1560 
  79   2.0000      -0.629265       -17.1232 
  80   2.0000      -0.623691       -16.9715 
  81   2.0000      -0.613216       -16.6864 
  82   2.0000      -0.600056       -16.3284 
  83   2.0000      -0.590717       -16.0742 
  84   2.0000      -0.587168       -15.9776 
  85   2.0000      -0.585993       -15.9457 
  86   2.0000      -0.569135       -15.4869 
  87   2.0000      -0.568339       -15.4653 
  88   2.0000      -0.565706       -15.3936 
  89   2.0000      -0.561371       -15.2757 
  90   2.0000      -0.551326       -15.0023 
  91   2.0000      -0.541665       -14.7394 
  92   2.0000      -0.535621       -14.5750 
  93   2.0000      -0.519439       -14.1347 
  94   2.0000      -0.500236       -13.6121 
  95   2.0000      -0.497367       -13.5341 
  96   2.0000      -0.493125       -13.4186 
  97   2.0000      -0.485115       -13.2006 
  98   2.0000      -0.484656       -13.1882 
  99   2.0000      -0.475256       -12.9324 
 100   2.0000      -0.471635       -12.8338 
 101   2.0000      -0.467158       -12.7120 
 102   2.0000      -0.465328       -12.6622 
 103   2.0000      -0.464326       -12.6350 
 104   2.0000      -0.462442       -12.5837 
 105   2.0000      -0.458637       -12.4802 
 106   2.0000      -0.454627       -12.3710 
 107   2.0000      -0.451826       -12.2948 
 108   2.0000      -0.449026       -12.2186 
 109   2.0000      -0.446642       -12.1537 
 110   2.0000      -0.444545       -12.0967 
 111   2.0000      -0.443512       -12.0686 
 112   2.0000      -0.440065       -11.9748 
 113   2.0000      -0.439733       -11.9657 
 114   2.0000      -0.437272       -11.8988 
 115   2.0000      -0.430090       -11.7033 
 116   2.0000      -0.429054       -11.6751 
 117   2.0000      -0.425687       -11.5835 
 118   2.0000      -0.422818       -11.5055 
 119   2.0000      -0.416922       -11.3450 
 120   2.0000      -0.413995       -11.2654 
 121   2.0000      -0.411064       -11.1856 
 122   2.0000      -0.407124       -11.0784 
 123   2.0000      -0.404967       -11.0197 
 124   2.0000      -0.400942       -10.9102 
 125   2.0000      -0.399815       -10.8795 
 126   2.0000      -0.396143       -10.7796 
 127   2.0000      -0.392158       -10.6712 
 128   2.0000      -0.389565       -10.6006 
 129   2.0000      -0.388405       -10.5690 
 130   2.0000      -0.385591       -10.4925 
 131   2.0000      -0.382780       -10.4160 
 132   2.0000      -0.378143       -10.2898 
 133   2.0000      -0.372879       -10.1466 
 134   2.0000      -0.369926       -10.0662 
 135   2.0000      -0.369344       -10.0504 
 136   2.0000      -0.364715        -9.9244 
 137   2.0000      -0.354727        -9.6526 
 138   2.0000      -0.347301        -9.4505 
 139   2.0000      -0.343926        -9.3587 
 140   2.0000      -0.342807        -9.3282 
 141   2.0000      -0.340439        -9.2638 
 142   2.0000      -0.327669        -8.9163 
 143   2.0000      -0.321911        -8.7597 
 144   2.0000      -0.309087        -8.4107 
 145   2.0000      -0.304190        -8.2774 
 146   2.0000      -0.294416        -8.0115 
 147   2.0000      -0.290452        -7.9036 
 148   2.0000      -0.279066        -7.5938 
 149   2.0000      -0.278693        -7.5836 
 150   2.0000      -0.275846        -7.5061 
 151   2.0000      -0.272914        -7.4264 
 152   2.0000      -0.269813        -7.3420 
 153   2.0000      -0.257275        -7.0008 
 154   2.0000      -0.256216        -6.9720 
 155   2.0000      -0.239253        -6.5104 
 156   2.0000      -0.233395        -6.3510 
 157   0.0000      -0.082838        -2.2541 
 158   0.0000      -0.079488        -2.1630 
 159   0.0000      -0.047518        -1.2930 
 160   0.0000      -0.030848        -0.8394 
 161   0.0000      -0.009831        -0.2675 
 162   0.0000      -0.008477        -0.2307 
 163   0.0000      -0.002258        -0.0614 
 164   0.0000       0.015100         0.4109 
 165   0.0000       0.034940         0.9508 
 166   0.0000       0.040177         1.0933 
 167   0.0000       0.053498         1.4558 
*Only the first 10 virtual orbitals were printed.

                    ********************************
                    * MULLIKEN POPULATION ANALYSIS *
                    ********************************

-----------------------
MULLIKEN ATOMIC CHARGES
-----------------------
   0 C :   -0.431907
   1 C :   -0.135760
   2 C :   -0.439287
   3 C :    0.201396
   4 N :   -0.427037
   5 C :    0.289746
   6 N :   -0.570764
   7 C :   -0.261749
   8 C :    0.181864
   9 C :   -0.164449
  10 C :   -0.187772
  11 C :    0.354023
  12 O :   -0.546376
  13 C :    1.085826
  14 F :   -0.292441
  15 F :   -0.280171
  16 F :   -0.289345
  17 C :   -0.166374
  18 C :   -0.174411
  19 S :    1.211986
  20 O :   -0.545131
  21 O :   -0.543523
  22 C :   -0.105612
  23 C :   -0.144466
  24 C :   -0.146226
  25 C :    0.086573
  26 C :    0.527612
  27 O :   -0.446120
  28 O :   -0.623755
  29 C :   -0.145984
  30 C :   -0.140861
  31 C :   -0.087340
  32 C :    0.951897
  33 F :   -0.301647
  34 F :   -0.309176
  35 F :   -0.281803
  36 C :    0.118109
  37 C :   -0.191582
  38 C :   -0.118456
  39 C :   -0.120372
  40 C :   -0.209215
  41 C :    0.102442
  42 H :    0.156297
  43 H :    0.134982
  44 H :    0.149554
  45 H :    0.140652
  46 H :    0.145077
  47 H :    0.150783
  48 H :    0.154832
  49 H :    0.166707
  50 H :    0.180061
  51 H :    0.161057
  52 H :    0.155056
  53 H :    0.146155
  54 H :    0.135017
  55 H :    0.188608
  56 H :    0.179423
  57 H :    0.433748
  58 H :    0.171389
  59 H :    0.169748
  60 H :    0.163685
  61 H :    0.146452
  62 H :    0.141307
  63 H :    0.147045
Sum of atomic charges:   -0.0000000

--------------------------------
MULLIKEN REDUCED ORBITAL CHARGES
--------------------------------
  0 C s       :     3.307936  s :     3.307936
      pz      :     1.058113  p :     3.089824
      px      :     1.015211
      py      :     1.016500
      dz2     :     0.005289  d :     0.034147
      dxz     :     0.006413
      dyz     :     0.009472
      dx2y2   :     0.005081
      dxy     :     0.007892

  1 C s       :     3.218120  s :     3.218120
      pz      :     0.973208  p :     2.873172
      px      :     0.942427
      py      :     0.957537
      dz2     :     0.006196  d :     0.044467
      dxz     :     0.010892
      dyz     :     0.009769
      dx2y2   :     0.007522
      dxy     :     0.010088

  2 C s       :     3.310488  s :     3.310488
      pz      :     1.028746  p :     3.094232
      px      :     1.066951
      py      :     0.998534
      dz2     :     0.004556  d :     0.034568
      dxz     :     0.008534
      dyz     :     0.008557
      dx2y2   :     0.003624
      dxy     :     0.009297

  3 C s       :     3.122392  s :     3.122392
      pz      :     0.911765  p :     2.617484
      px      :     0.863953
      py      :     0.841766
      dz2     :     0.011414  d :     0.058727
      dxz     :     0.010831
      dyz     :     0.012201
      dx2y2   :     0.011395
      dxy     :     0.012887

  4 N s       :     3.712654  s :     3.712654
      pz      :     1.409193  p :     3.679679
      px      :     1.170826
      py      :     1.099660
      dz2     :     0.005827  d :     0.034704
      dxz     :     0.006496
      dyz     :     0.007903
      dx2y2   :     0.008858
      dxy     :     0.005620

  5 C s       :     3.055343  s :     3.055343
      pz      :     0.914665  p :     2.579593
      px      :     0.876687
      py      :     0.788241
      dz2     :     0.012809  d :     0.075319
      dxz     :     0.014225
      dyz     :     0.014047
      dx2y2   :     0.015571
      dxy     :     0.018666

  6 N s       :     3.612413  s :     3.612413
      pz      :     1.200164  p :     3.923761
      px      :     1.604730
      py      :     1.118867
      dz2     :     0.008841  d :     0.034589
      dxz     :     0.004682
      dyz     :     0.009306
      dx2y2   :     0.005792
      dxy     :     0.005968

  7 C s       :     3.262902  s :     3.262902
      pz      :     0.819824  p :     2.943755
      px      :     1.008030
      py      :     1.115901
      dz2     :     0.013555  d :     0.055092
      dxz     :     0.013716
      dyz     :     0.010343
      dx2y2   :     0.009141
      dxy     :     0.008337

  8 C s       :     3.106285  s :     3.106285
      pz      :     0.972378  p :     2.672143
      px      :     0.835502
      py      :     0.864263
      dz2     :     0.003644  d :     0.039708
      dxz     :     0.004348
      dyz     :     0.006008
      dx2y2   :     0.012849
      dxy     :     0.012859

  9 C s       :     3.201332  s :     3.201332
      pz      :     0.979938  p :     2.926820
      px      :     0.951034
      py      :     0.995848
      dz2     :     0.003437  d :     0.036296
      dxz     :     0.006138
      dyz     :     0.003125
      dx2y2   :     0.011987
      dxy     :     0.011609

 10 C s       :     3.182097  s :     3.182097
      pz      :     1.023930  p :     2.971223
      px      :     1.003188
      py      :     0.944105
      dz2     :     0.003391  d :     0.034451
      dxz     :     0.004953
      dyz     :     0.004123
      dx2y2   :     0.008830
      dxy     :     0.013155

 11 C s       :     3.073593  s :     3.073593
      pz      :     0.992958  p :     2.507231
      px      :     0.614458
      py      :     0.899815
      dz2     :     0.005320  d :     0.065154
      dxz     :     0.012983
      dyz     :     0.006809
      dx2y2   :     0.021880
      dxy     :     0.018161

 12 O s       :     3.884608  s :     3.884608
      pz      :     1.783835  p :     4.635822
      px      :     1.244664
      py      :     1.607324
      dz2     :     0.003862  d :     0.025945
      dxz     :     0.004697
      dyz     :     0.003488
      dx2y2   :     0.004761
      dxy     :     0.009136

 13 C s       :     2.715928  s :     2.715928
      pz      :     0.666421  p :     2.033505
      px      :     0.688807
      py      :     0.678277
      dz2     :     0.036772  d :     0.164742
      dxz     :     0.025135
      dyz     :     0.037576
      dx2y2   :     0.027859
      dxy     :     0.037400

 14 F s       :     3.981809  s :     3.981809
      pz      :     1.528499  p :     5.294394
      px      :     1.902473
      py      :     1.863422
      dz2     :     0.006942  d :     0.016238
      dxz     :     0.003430
      dyz     :     0.004544
      dx2y2   :     0.000609
      dxy     :     0.000713

 15 F s       :     3.978922  s :     3.978922
      pz      :     1.910967  p :     5.285088
      px      :     1.556864
      py      :     1.817256
      dz2     :     0.002323  d :     0.016161
      dxz     :     0.002863
      dyz     :     0.001009
      dx2y2   :     0.004371
      dxy     :     0.005595

 16 F s       :     3.982441  s :     3.982441
      pz      :     1.726171  p :     5.290617
      px      :     1.912187
      py      :     1.652259
      dz2     :     0.002888  d :     0.016287
      dxz     :     0.001590
      dyz     :     0.006451
      dx2y2   :     0.003127
      dxy     :     0.002232

 17 C s       :     3.192601  s :     3.192601
      pz      :     1.023043  p :     2.939263
      px      :     0.957405
      py      :     0.958816
      dz2     :     0.003570  d :     0.034509
      dxz     :     0.005973
      dyz     :     0.003156
      dx2y2   :     0.009498
      dxy     :     0.012313

 18 C s       :     3.200562  s :     3.200562
      pz      :     0.998370  p :     2.937457
      px      :     0.966566
      py      :     0.972521
      dz2     :     0.003330  d :     0.036391
      dxz     :     0.005456
      dyz     :     0.004237
      dx2y2   :     0.009859
      dxy     :     0.013510

 19 S s       :     5.215774  s :     5.215774
      pz      :     2.960333  p :     9.035171
      px      :     3.077390
      py      :     2.997448
      dz2     :     0.133334  d :     0.537070
      dxz     :     0.092350
      dyz     :     0.117680
      dx2y2   :     0.114922
      dxy     :     0.078784

 20 O s       :     3.927980  s :     3.927980
      pz      :     1.258198  p :     4.590096
      px      :     1.684218
      py      :     1.647680
      dz2     :     0.009727  d :     0.027055
      dxz     :     0.007632
      dyz     :     0.007638
      dx2y2   :     0.000944
      dxy     :     0.001114

 21 O s       :     3.927370  s :     3.927370
      pz      :     1.611438  p :     4.589338
      px      :     1.624359
      py      :     1.353541
      dz2     :     0.004323  d :     0.026815
      dxz     :     0.003418
      dyz     :     0.006604
      dx2y2   :     0.006290
      dxy     :     0.006179

 22 C s       :     3.218928  s :     3.218928
      pz      :     0.977368  p :     2.848020
      px      :     0.839108
      py      :     1.031544
      dz2     :     0.011307  d :     0.038663
      dxz     :     0.010455
      dyz     :     0.006659
      dx2y2   :     0.007047
      dxy     :     0.003195

 23 C s       :     3.207900  s :     3.207900
      pz      :     1.011426  p :     2.900658
      px      :     0.936817
      py      :     0.952415
      dz2     :     0.009872  d :     0.035908
      dxz     :     0.012442
      dyz     :     0.002988
      dx2y2   :     0.005049
      dxy     :     0.005557

 24 C s       :     3.221110  s :     3.221110
      pz      :     0.998769  p :     2.889437
      px      :     0.949153
      py      :     0.941514
      dz2     :     0.008827  d :     0.035679
      dxz     :     0.013496
      dyz     :     0.003923
      dx2y2   :     0.004778
      dxy     :     0.004655

 25 C s       :     3.164600  s :     3.164600
      pz      :     0.858353  p :     2.710448
      px      :     0.854407
      py      :     0.997688
      dz2     :     0.010553  d :     0.038379
      dxz     :     0.011498
      dyz     :     0.006184
      dx2y2   :     0.006261
      dxy     :     0.003883

 26 C s       :     2.997077  s :     2.997077
      pz      :     0.668047  p :     2.365112
      px      :     0.893262
      py      :     0.803803
      dz2     :     0.038953  d :     0.110199
      dxz     :     0.030293
      dyz     :     0.019870
      dx2y2   :     0.011138
      dxy     :     0.009945

 27 O s       :     3.878008  s :     3.878008
      pz      :     1.526034  p :     4.542527
      px      :     1.611500
      py      :     1.404993
      dz2     :     0.005647  d :     0.025585
      dxz     :     0.007567
      dyz     :     0.005529
      dx2y2   :     0.002933
      dxy     :     0.003909

 28 O s       :     3.872277  s :     3.872277
      pz      :     1.511788  p :     4.730532
      px      :     1.407586
      py      :     1.811158
      dz2     :     0.008444  d :     0.020946
      dxz     :     0.001853
      dyz     :     0.003739
      dx2y2   :     0.006347
      dxy     :     0.000564

 29 C s       :     3.209507  s :     3.209507
      pz      :     1.002153  p :     2.900727
      px      :     0.944722
      py      :     0.953852
      dz2     :     0.010505  d :     0.035750
      dxz     :     0.011839
      dyz     :     0.002723
      dx2y2   :     0.005138
      dxy     :     0.005545

 30 C s       :     3.198340  s :     3.198340
      pz      :     0.961475  p :     2.906541
      px      :     0.984872
      py      :     0.960194
      dz2     :     0.008438  d :     0.035980
      dxz     :     0.014065
      dyz     :     0.004044
      dx2y2   :     0.004822
      dxy     :     0.004611

 31 C s       :     3.188793  s :     3.188793
      pz      :     0.953418  p :     2.862407
      px      :     0.925547
      py      :     0.983442
      dz2     :     0.008099  d :     0.036141
      dxz     :     0.006645
      dyz     :     0.006656
      dx2y2   :     0.006452
      dxy     :     0.008289

 32 C s       :     2.795131  s :     2.795131
      pz      :     0.620853  p :     2.114014
      px      :     0.826688
      py      :     0.666473
      dz2     :     0.031896  d :     0.138958
      dxz     :     0.020202
      dyz     :     0.033005
      dx2y2   :     0.021993
      dxy     :     0.031862

 33 F s       :     3.987817  s :     3.987817
      pz      :     1.547333  p :     5.297263
      px      :     1.909765
      py      :     1.840165
      dz2     :     0.006239  d :     0.016567
      dxz     :     0.003336
      dyz     :     0.005147
      dx2y2   :     0.000828
      dxy     :     0.001016

 34 F s       :     3.986480  s :     3.986480
      pz      :     1.900716  p :     5.306336
      px      :     1.663466
      py      :     1.742153
      dz2     :     0.002293  d :     0.016361
      dxz     :     0.002294
      dyz     :     0.001577
      dx2y2   :     0.003849
      dxy     :     0.006347

 35 F s       :     3.991342  s :     3.991342
      pz      :     1.740648  p :     5.273448
      px      :     1.879998
      py      :     1.652802
      dz2     :     0.002834  d :     0.017013
      dxz     :     0.001979
      dyz     :     0.006019
      dx2y2   :     0.003166
      dxy     :     0.003014

 36 C s       :     3.141394  s :     3.141394
      pz      :     0.887251  p :     2.699288
      px      :     0.904180
      py      :     0.907857
      dz2     :     0.008511  d :     0.041209
      dxz     :     0.008206
      dyz     :     0.008110
      dx2y2   :     0.008313
      dxy     :     0.008068

 37 C s       :     3.207336  s :     3.207336
      pz      :     0.975399  p :     2.948931
      px      :     1.004362
      py      :     0.969170
      dz2     :     0.007318  d :     0.035316
      dxz     :     0.007182
      dyz     :     0.006913
      dx2y2   :     0.006053
      dxy     :     0.007850

 38 C s       :     3.195527  s :     3.195527
      pz      :     0.981906  p :     2.886114
      px      :     0.948133
      py      :     0.956076
      dz2     :     0.006093  d :     0.036815
      dxz     :     0.008596
      dyz     :     0.006894
      dx2y2   :     0.007623
      dxy     :     0.007608

 39 C s       :     3.192459  s :     3.192459
      pz      :     0.962506  p :     2.891182
      px      :     0.947229
      py      :     0.981448
      dz2     :     0.006266  d :     0.036731
      dxz     :     0.007390
      dyz     :     0.008377
      dx2y2   :     0.007567
      dxy     :     0.007130

 40 C s       :     3.211830  s :     3.211830
      pz      :     0.973792  p :     2.961534
      px      :     0.996748
      py      :     0.990994
      dz2     :     0.007906  d :     0.035851
      dxz     :     0.006307
      dyz     :     0.007196
      dx2y2   :     0.005661
      dxy     :     0.008781

 41 C s       :     3.150819  s :     3.150819
      pz      :     0.920573  p :     2.706568
      px      :     0.890295
      py      :     0.895699
      dz2     :     0.007710  d :     0.040171
      dxz     :     0.008007
      dyz     :     0.007762
      dx2y2   :     0.008341
      dxy     :     0.008351

 42 H s       :     0.843703  s :     0.843703

 43 H s       :     0.865018  s :     0.865018

 44 H s       :     0.850446  s :     0.850446

 45 H s       :     0.859348  s :     0.859348

 46 H s       :     0.854923  s :     0.854923

 47 H s       :     0.849217  s :     0.849217

 48 H s       :     0.845168  s :     0.845168

 49 H s       :     0.833293  s :     0.833293

 50 H s       :     0.819939  s :     0.819939

 51 H s       :     0.838943  s :     0.838943

 52 H s       :     0.844944  s :     0.844944

 53 H s       :     0.853845  s :     0.853845

 54 H s       :     0.864983  s :     0.864983

 55 H s       :     0.811392  s :     0.811392

 56 H s       :     0.820577  s :     0.820577

 57 H s       :     0.566252  s :     0.566252

 58 H s       :     0.828611  s :     0.828611

 59 H s       :     0.830252  s :     0.830252

 60 H s       :     0.836315  s :     0.836315

 61 H s       :     0.853548  s :     0.853548

 62 H s       :     0.858693  s :     0.858693

 63 H s       :     0.852955  s :     0.852955



                     *******************************
                     * LOEWDIN POPULATION ANALYSIS *
                     *******************************

----------------------
LOEWDIN ATOMIC CHARGES
----------------------
   0 C :   -0.348493
   1 C :   -0.130624
   2 C :   -0.346822
   3 C :    0.066385
   4 N :   -0.138375
   5 C :    0.038737
   6 N :   -0.271864
   7 C :   -0.149889
   8 C :   -0.036819
   9 C :   -0.110645
  10 C :   -0.155007
  11 C :    0.088558
  12 O :   -0.160368
  13 C :    0.359355
  14 F :   -0.105960
  15 F :   -0.088367
  16 F :   -0.103455
  17 C :   -0.139200
  18 C :   -0.126583
  19 S :    1.264333
  20 O :   -0.566006
  21 O :   -0.568363
  22 C :   -0.168337
  23 C :   -0.102442
  24 C :   -0.088097
  25 C :   -0.040082
  26 C :    0.179855
  27 O :   -0.262311
  28 O :   -0.334880
  29 C :   -0.097940
  30 C :   -0.103753
  31 C :   -0.060922
  32 C :    0.317981
  33 F :   -0.106887
  34 F :   -0.114093
  35 F :   -0.083872
  36 C :    0.009321
  37 C :   -0.117396
  38 C :   -0.112182
  39 C :   -0.120010
  40 C :   -0.118783
  41 C :   -0.027757
  42 H :    0.130434
  43 H :    0.121138
  44 H :    0.128853
  45 H :    0.127672
  46 H :    0.123008
  47 H :    0.128303
  48 H :    0.129852
  49 H :    0.131846
  50 H :    0.145464
  51 H :    0.147182
  52 H :    0.143314
  53 H :    0.144133
  54 H :    0.135104
  55 H :    0.162445
  56 H :    0.159649
  57 H :    0.349364
  58 H :    0.154042
  59 H :    0.151550
  60 H :    0.148505
  61 H :    0.140901
  62 H :    0.138071
  63 H :    0.141228

-------------------------------
LOEWDIN REDUCED ORBITAL CHARGES
-------------------------------
  0 C s       :     2.985499  s :     2.985499
      pz      :     1.117073  p :     3.296630
      px      :     1.087049
      py      :     1.092508
      dz2     :     0.009893  d :     0.066365
      dxz     :     0.012550
      dyz     :     0.018415
      dx2y2   :     0.009804
      dxy     :     0.015703

[...]
      px      :     1.878184
      py      :     1.668856
      dz2     :     0.004758  d :     0.032612
      dxz     :     0.003915
      dyz     :     0.012482
      dx2y2   :     0.005943
      dxy     :     0.005515

 36 C s       :     2.859233  s :     2.859233
      pz      :     1.012830  p :     3.027250
      px      :     1.015369
      py      :     0.999051
      dz2     :     0.020553  d :     0.104196
      dxz     :     0.021754
      dyz     :     0.020472
      dx2y2   :     0.020391
      dxy     :     0.021025

 37 C s       :     2.918979  s :     2.918979
      pz      :     1.024199  p :     3.116188
      px      :     1.051522
      py      :     1.040467
      dz2     :     0.016822  d :     0.082228
      dxz     :     0.016123
      dyz     :     0.018676
      dx2y2   :     0.013862
      dxy     :     0.016744

 38 C s       :     2.917315  s :     2.917315
      pz      :     1.036100  p :     3.108004
      px      :     1.037186
      py      :     1.034718
      dz2     :     0.013736  d :     0.086863
      dxz     :     0.018233
      dyz     :     0.016076
      dx2y2   :     0.018418
      dxy     :     0.020401

 39 C s       :     2.916141  s :     2.916141
      pz      :     1.035697  p :     3.116984
      px      :     1.040817
      py      :     1.040470
      dz2     :     0.015037  d :     0.086885
      dxz     :     0.019938
      dyz     :     0.017621
      dx2y2   :     0.017454
      dxy     :     0.016835

 40 C s       :     2.916490  s :     2.916490
      pz      :     1.035765  p :     3.118813
      px      :     1.049474
      py      :     1.033574
      dz2     :     0.018104  d :     0.083480
      dxz     :     0.015288
      dyz     :     0.018802
      dx2y2   :     0.013121
      dxy     :     0.018164

 41 C s       :     2.862106  s :     2.862106
      pz      :     1.018126  p :     3.061395
      px      :     1.020276
      py      :     1.022993
      dz2     :     0.019040  d :     0.104256
      dxz     :     0.021318
      dyz     :     0.020737
      dx2y2   :     0.021151
      dxy     :     0.022009

 42 H s       :     0.869566  s :     0.869566

 43 H s       :     0.878862  s :     0.878862

 44 H s       :     0.871147  s :     0.871147

 45 H s       :     0.872328  s :     0.872328

 46 H s       :     0.876992  s :     0.876992

 47 H s       :     0.871697  s :     0.871697

 48 H s       :     0.870148  s :     0.870148

 49 H s       :     0.868154  s :     0.868154

 50 H s       :     0.854536  s :     0.854536

 51 H s       :     0.852818  s :     0.852818

 52 H s       :     0.856686  s :     0.856686

 53 H s       :     0.855867  s :     0.855867

 54 H s       :     0.864896  s :     0.864896

 55 H s       :     0.837555  s :     0.837555

 56 H s       :     0.840351  s :     0.840351

 57 H s       :     0.650636  s :     0.650636

 58 H s       :     0.845958  s :     0.845958

 59 H s       :     0.848450  s :     0.848450

 60 H s       :     0.851495  s :     0.851495

 61 H s       :     0.859099  s :     0.859099

 62 H s       :     0.861929  s :     0.861929

 63 H s       :     0.858772  s :     0.858772



                      *****************************
                      * MAYER POPULATION ANALYSIS *
                      *****************************

  NA   - Mulliken gross atomic population
  ZA   - Total nuclear charge
  QA   - Mulliken gross atomic charge
  VA   - Mayer's total valence
  BVA  - Mayer's bonded valence
  FA   - Mayer's free valence

  ATOM       NA         ZA         QA         VA         BVA        FA
  0 C      6.4319     6.0000    -0.4319     3.8400     3.8400    -0.0000
  1 C      6.1358     6.0000    -0.1358     3.8797     3.8797    -0.0000
  2 C      6.4393     6.0000    -0.4393     3.8317     3.8317     0.0000
  3 C      5.7986     6.0000     0.2014     3.8295     3.8295     0.0000
  4 N      7.4270     7.0000    -0.4270     2.9243     2.9243     0.0000
  5 C      5.7103     6.0000     0.2897     3.8932     3.8932    -0.0000
  6 N      7.5708     7.0000    -0.5708     2.7994     2.7994    -0.0000
  7 C      6.2617     6.0000    -0.2617     3.8182     3.8182     0.0000
  8 C      5.8181     6.0000     0.1819     3.9116     3.9116     0.0000
  9 C      6.1644     6.0000    -0.1644     3.9461     3.9461     0.0000
 10 C      6.1878     6.0000    -0.1878     3.8996     3.8996    -0.0000
 11 C      5.6460     6.0000     0.3540     3.8102     3.8102    -0.0000
 12 O      8.5464     8.0000    -0.5464     1.9600     1.9600     0.0000
 13 C      4.9142     6.0000     1.0858     3.9957     3.9957    -0.0000
 14 F      9.2924     9.0000    -0.2924     1.0636     1.0636    -0.0000
 15 F      9.2802     9.0000    -0.2802     1.0865     1.0865    -0.0000
 16 F      9.2893     9.0000    -0.2893     1.0678     1.0678    -0.0000
 17 C      6.1664     6.0000    -0.1664     3.9196     3.9196    -0.0000
 18 C      6.1744     6.0000    -0.1744     3.9478     3.9478    -0.0000
 19 S     14.7880    16.0000     1.2120     5.0722     5.0722    -0.0000
 20 O      8.5451     8.0000    -0.5451     1.8899     1.8899    -0.0000
 21 O      8.5435     8.0000    -0.5435     1.8877     1.8877    -0.0000
 22 C      6.1056     6.0000    -0.1056     3.8375     3.8375    -0.0000
 23 C      6.1445     6.0000    -0.1445     3.9163     3.9163    -0.0000
 24 C      6.1462     6.0000    -0.1462     3.8943     3.8943    -0.0000
 25 C      5.9134     6.0000     0.0866     3.9255     3.9255    -0.0000
 26 C      5.4724     6.0000     0.5276     3.9539     3.9539    -0.0000
 27 O      8.4461     8.0000    -0.4461     2.0661     2.0661     0.0000
 28 O      8.6238     8.0000    -0.6238     1.8687     1.8687    -0.0000
 29 C      6.1460     6.0000    -0.1460     3.8780     3.8780    -0.0000
 30 C      6.1409     6.0000    -0.1409     3.9300     3.9300     0.0000
 31 C      6.0873     6.0000    -0.0873     3.9209     3.9209     0.0000
 32 C      5.0481     6.0000     0.9519     3.8095     3.8095     0.0000
 33 F      9.3016     9.0000    -0.3016     1.0502     1.0502    -0.0000
 34 F      9.3092     9.0000    -0.3092     1.0416     1.0416    -0.0000
 35 F      9.2818     9.0000    -0.2818     1.0870     1.0870    -0.0000
 36 C      5.8819     6.0000     0.1181     3.9817     3.9817    -0.0000
 37 C      6.1916     6.0000    -0.1916     3.8811     3.8811     0.0000
 38 C      6.1185     6.0000    -0.1185     3.9247     3.9247     0.0000
 39 C      6.1204     6.0000    -0.1204     3.9289     3.9289     0.0000
 40 C      6.2092     6.0000    -0.2092     3.8942     3.8942    -0.0000
 41 C      5.8976     6.0000     0.1024     3.9766     3.9766    -0.0000
 42 H      0.8437     1.0000     0.1563     0.9456     0.9456     0.0000
 43 H      0.8650     1.0000     0.1350     0.9372     0.9372     0.0000
 44 H      0.8504     1.0000     0.1496     0.9461     0.9461    -0.0000
 45 H      0.8593     1.0000     0.1407     0.9307     0.9307    -0.0000
 46 H      0.8549     1.0000     0.1451     0.9384     0.9384     0.0000
 47 H      0.8492     1.0000     0.1508     0.9366     0.9366    -0.0000
 48 H      0.8452     1.0000     0.1548     0.9386     0.9386    -0.0000
 49 H      0.8333     1.0000     0.1667     0.9316     0.9316    -0.0000
 50 H      0.8199     1.0000     0.1801     0.9400     0.9400    -0.0000
 51 H      0.8389     1.0000     0.1611     0.9384     0.9384     0.0000
 52 H      0.8449     1.0000     0.1551     0.9483     0.9483    -0.0000
 53 H      0.8538     1.0000     0.1462     0.9368     0.9368    -0.0000
 54 H      0.8650     1.0000     0.1350     0.9412     0.9412     0.0000
 55 H      0.8114     1.0000     0.1886     0.9368     0.9368    -0.0000
 56 H      0.8206     1.0000     0.1794     0.9391     0.9391    -0.0000
 57 H      0.5663     1.0000     0.4337     0.7958     0.7958    -0.0000
 58 H      0.8286     1.0000     0.1714     0.9366     0.9366    -0.0000
 59 H      0.8303     1.0000     0.1697     0.9363     0.9363     0.0000
 60 H      0.8363     1.0000     0.1637     0.9561     0.9561    -0.0000
 61 H      0.8535     1.0000     0.1465     0.9348     0.9348    -0.0000
 62 H      0.8587     1.0000     0.1413     0.9357     0.9357     0.0000
 63 H      0.8530     1.0000     0.1470     0.9401     0.9401    -0.0000

  Mayer bond orders larger than 0.100000
B(  0-C ,  1-C ) :   1.0035 B(  0-C , 42-H ) :   0.9419 B(  0-C , 43-H ) :   0.9432 
B(  0-C , 44-H ) :   0.9405 B(  1-C ,  2-C ) :   0.9928 B(  1-C ,  3-C ) :   0.9830 
B(  1-C , 45-H ) :   0.9197 B(  2-C , 46-H ) :   0.9437 B(  2-C , 47-H ) :   0.9443 
B(  2-C , 48-H ) :   0.9447 B(  3-C ,  4-N ) :   1.4271 B(  3-C , 41-C ) :   1.2311 
B(  4-N ,  5-C ) :   1.2877 B(  5-C ,  6-N ) :   0.9309 B(  5-C , 31-C ) :   1.4246 
B(  6-N ,  7-C ) :   0.9234 B(  6-N , 19-S ) :   0.7967 B(  7-C ,  8-C ) :   0.9514 
B(  7-C , 49-H ) :   0.9177 B(  7-C , 50-H ) :   0.9142 B(  8-C ,  9-C ) :   1.4381 
B(  8-C , 18-C ) :   1.4282 B(  9-C , 10-C ) :   1.4330 B(  9-C , 51-H ) :   0.9149 
B( 10-C , 11-C ) :   1.3898 B( 10-C , 52-H ) :   0.9092 B( 11-C , 12-O ) :   0.8231 
B( 11-C , 17-C ) :   1.4205 B( 12-O , 13-C ) :   0.9913 B( 13-C , 14-F ) :   0.9694 
B( 13-C , 15-F ) :   1.0067 B( 13-C , 16-F ) :   0.9691 B( 17-C , 18-C ) :   1.4361 
B( 17-C , 53-H ) :   0.9185 B( 18-C , 54-H ) :   0.9223 B( 19-S , 20-O ) :   1.6326 
B( 19-S , 21-O ) :   1.6310 B( 19-S , 22-C ) :   0.8103 B( 22-C , 23-C ) :   1.3910 
B( 22-C , 30-C ) :   1.3876 B( 23-C , 24-C ) :   1.4123 B( 23-C , 55-H ) :   0.9077 
B( 24-C , 25-C ) :   1.3977 B( 24-C , 56-H ) :   0.9100 B( 25-C , 26-C ) :   1.0089 
B( 25-C , 29-C ) :   1.3825 B( 26-C , 27-O ) :   1.8616 B( 26-C , 28-O ) :   1.0248 
B( 28-O , 57-H ) :   0.7421 B( 29-C , 30-C ) :   1.4267 B( 29-C , 58-H ) :   0.9148 
B( 30-C , 59-H ) :   0.9138 B( 31-C , 32-C ) :   0.9532 B( 31-C , 36-C ) :   1.2445 
B( 32-C , 33-F ) :   0.9300 B( 32-C , 34-F ) :   0.9208 B( 32-C , 35-F ) :   0.9338 
B( 36-C , 37-C ) :   1.3006 B( 36-C , 41-C ) :   1.2840 B( 37-C , 38-C ) :   1.5082 
B( 37-C , 40-C ) :   0.1031 B( 37-C , 60-H ) :   0.8988 B( 38-C , 39-C ) :   1.3563 
B( 38-C , 61-H ) :   0.9270 B( 39-C , 40-C ) :   1.5110 B( 39-C , 62-H ) :   0.9278 
B( 40-C , 41-C ) :   1.2906 B( 40-C , 63-H ) :   0.9145 

-------
TIMINGS
-------

Total SCF time: 0 days 0 hours 15 min 5 sec 

Total time                  ....     905.683 sec
Sum of individual times     ....     905.409 sec  (100.0%)

SCF preparation             ....       0.422 sec  (  0.0%)
Fock matrix formation       ....     901.257 sec  ( 99.5%)
  Startup                   ....       0.106 sec  (  0.0% of F)
  Split-RI-J                ....     124.110 sec  ( 13.8% of F)
  Chain of spheres X        ....     710.258 sec  ( 78.8% of F)
  XC integration            ....      65.608 sec  (  7.3% of F)
    XC Preparation          ....       0.000 sec  (  0.0% of XC)
    Basis function eval.    ....      25.436 sec  ( 38.8% of XC)
    Density eval.           ....      17.907 sec  ( 27.3% of XC)
    XC-Functional eval.     ....       2.974 sec  (  4.5% of XC)
    XC-Potential eval.      ....      17.099 sec  ( 26.1% of XC)
Diagonalization             ....       0.000 sec  (  0.0%)
Density matrix formation    ....       0.433 sec  (  0.0%)
Total Energy calculation    ....       0.193 sec  (  0.0%)
Population analysis         ....       0.104 sec  (  0.0%)
Orbital Transformation      ....       0.377 sec  (  0.0%)
Orbital Orthonormalization  ....       0.000 sec  (  0.0%)
DIIS solution               ....       1.671 sec  (  0.2%)
SOSCF solution              ....       0.952 sec  (  0.1%)
Finished LeanSCF after 905.8 sec

Maximum memory used throughout the entire LEANSCF-calculation: 119.9 MB

-------------------------   --------------------
FINAL SINGLE POINT ENERGY     -2561.788448157053
-------------------------   --------------------


------------------------------------------------------------------------------
                              ORCA PROPERTY CALCULATIONS
------------------------------------------------------------------------------

GBWName                                 ... /home/nmrbox/aojoawo/Documents/ERDOS/inputs/CHEMBL3682592.gbw
Number of atoms                         ...     64
Number of basis functions               ...    636
Max core memory                         ...   1024 MB

Electric properties:
Dipole moment                           ... YES
Quadrupole moment                       ...  NO
Static polarizability (Dipole/Dipole)   ...  NO
Static polarizability (Dipole/Quad.)    ...  NO
Static polarizability (Quad./Quad.)     ...  NO
Static polarizability (Velocity)        ...  NO

Atomic electric properties:
Dipole moment                           ...  NO
Quadrupole moment                       ...  NO
Static polarizability                   ...  NO

Choice of electric origin               ... Center of mass
Position of electric origin             ...     1.435279     0.950221     0.074073

General magnetic properties:
Magnetizability                         ...  NO

EPR properties:
g-Tensor (aka g-matrix)                 ...  NO
Zero-Field splitting spin-orbit         ...  NO
Zero-field splitting spin-spin          ...  NO
Hyperfine couplings                     ...  NO (   0 nuclei)
Quadrupole couplings                    ...  NO (   0 nuclei)
Contact density                         ...  NO (   0 nuclei)

NMR properties:
Chemical shifts                         ...  NO (   0 nuclei)
Spin-rotation constants                 ...  NO (   0 nuclei)
Spin-spin couplings                     ...  NO (   0 nuclei,    0 pairs)

Choice of magnetic origin               ... GIAO
Position of magnetic origin             ...     0.000000     0.000000     0.000000

Properties with geometric perturbations:
SCF Hessian                             ...  NO
IR spectrum                             ...  NO
VCD spectrum                            ...  NO
X-ray spectroscopy properties:
SCF XES/XAS/RIXS spectra                ...  NO


-------------
DIPOLE MOMENT
-------------

Method             : SCF
Type of density    : Electron Density
Multiplicity       :   1
Irrep              :   0
Energy             : -2561.7884481570526987 Eh
Relativity type    : 
Basis              : AO
                                X                 Y                 Z
Electronic contribution:     62.278185819      24.577020787       1.092485927
Nuclear contribution   :    -64.308425083     -27.143231336      -1.759281110
                        -----------------------------------------
Total Dipole Moment    :     -2.030239264      -2.566210549      -0.666795183
                        -----------------------------------------
Magnitude (a.u.)       :      3.339449635
Magnitude (Debye)      :      8.488206404



--------------------
Rotational spectrum 
--------------------
 
Rotational constants in cm-1:             0.003823             0.001532             0.001285 
Rotational constants in MHz :           114.615140            45.914047            38.534017 

Dipole components along the rotational axes: 
x,y,z [a.u.] :     1.844756     1.384758     2.414797 
x,y,z [Debye]:     4.688997     3.519776     6.137926 

 

Dipole moment calculation done in   0.0 sec 

Maximum memory used throughout the entire PROP-calculation: 60.1 MB

--------------------------------
SUGGESTED CITATIONS FOR THIS RUN
--------------------------------

Below you find a list of papers that are relevant to this ORCA run
We neither can nor want to force you to cite these papers, but we appreciate if you do
You receive ORCA, which is the product of decades of hard work by many enthusiastic individuals, for free
The only thing we kindly ask in return is that you cite our papers,
We deeply appreciate it, if you show your appreciation for ORCA by not just citing the generic ORCA reference.

Please note that relegating all ORCA citations to the supporting information does *not* help us.
SI sections are not indexed - citations you put there will not count into any citation statistics
But we need these citations in order to attract the funding resources that allow us to do what we are doing

Therefore, if you are a happy ORCA user, please consider citing a few of the papers listed below in the main body of your paper

In addition to the list printed below, the program has created the file /home/nmrbox/aojoawo/Documents/ERDOS/inputs/CHEMBL3682592.bibtex that contains the list in bibtex format
You can import this file easily into all common literature databanks and citation aid programs


List of essential papers. We consider these as the minimum necessary citations

  1. Neese,F.
     Software update: the ORCA program system, version 5.0
     WIRES Comput. Molec. Sci., 2022 12(1)e1606
     doi.org/10.1002/wcms.1606

List of papers to cite with high priority. The work reported in these papers was absolutely
necessary for this run to complete.
Our perspective: the developers of density functionals and basis sets usually get cited in chemistry papers
Good! But without the algorithms to do something with them, the functionals or basis sets would not do anything.
Hence, in our opinion, the algorithm design and method developments papers are equally worthy of getting cited

  1. Neese,F.
     An improvement of the resolution of the identity approximation for the formation of the Coulomb matrix
     J. Comp. Chem., 2003 24(14)1740-1747
     doi.org/10.1002/jcc.10318
  2. Neese,F.; Wennmohs,F.; Hansen,A.; Becker,U.
     Efficient, approximate and parallel Hartree-Fock and hybrid DFT calculations. A 'chain-of-spheres' algorithm for the Hartree-Fock exchange
     Chem. Phys., 2009 356(1-3)98-109
     doi.org/10.1016/j.chemphys.2008.10.036
  3. Helmich-Paris,B.; de Souza,B.; Neese,F.; Izsák,R.
     An improved chain of spheres for exchange algorithm
     J. Chem. Phys., 2021 155 104109
     doi.org/doi: 10.1063/5.0058766.
  4. Neese,F.
     The SHARK Integral Generation and Digestion System
     J. Comp. Chem., 2022  1-16
     doi.org/10.1002/jcc.26942

List of suggested additional citations. These are papers that are important in the 'surrounding' of 
of this run, or papers that preceded the highly important papers. If you like your results we are grateful for a citation.

  1. Izsak,R.; Neese,F.
     An overlap fitted chain of spheres exchange method
     J. Chem. Phys., 2011 135 144105
     doi.org/10.1063/1.3646921
  2. Izsak,R.; Hansen,A.; Neese,F.
     The resolution of identity and chain of spheres approximations for the LPNO-CCSD singles Fock term
     Molec. Phys., 2012 110 2413-2417
     doi.org/10.1080/00268976.2012.687466
  3. Neese,F.
     The ORCA program system
     WIRES Comput. Molec. Sci., 2012 2(1)73-78
     doi.org/10.1002/wcms.81
  4. Izsak,R.; Neese,F.; Klopper,W.
     Robust fitting techniques in the chain of spheres approximation to the Fock exchange: The role of the complementary space
     J. Chem. Phys., 2013 139 
     doi.org/10.1063/1.4819264
  5. Neese,F.
     Software update: the ORCA program system, version 4.0
     WIRES Comput. Molec. Sci., 2018 8(1)1-6
     doi.org/10.1002/wcms.1327
  6. Neese,F.; Wennmohs,F.; Becker,U.; Riplinger,C.
     The ORCA quantum chemistry program package
     J. Chem. Phys., 2020 152 Art. No. L224108
     doi.org/10.1063/5.0004608

List of optional additional citations

  1. Neese,F.
     Approximate second-order SCF convergence for spin unrestricted wavefunctions
     Chem. Phys. Lett., 2000 325(1-3)93-98
     doi.org/10.1016/s0009-2614(00)00662-x

Timings for individual modules:

Sum of individual times          ...      938.924 sec (=  15.649 min)
Startup calculation              ...       21.211 sec (=   0.354 min)   2.3 %
SCF iterations                   ...      917.482 sec (=  15.291 min)  97.7 %
Property calculations            ...        0.231 sec (=   0.004 min)   0.0 %
                             ****ORCA TERMINATED NORMALLY****
TOTAL RUN TIME: 0 days 0 hours 15 minutes 39 seconds 637 msec
