
                                 *****************
                                 * O   R   C   A *
                                 *****************

                                            #,                                       
                                            ###                                      
                                            ####                                     
                                            #####                                    
                                            ######                                   
                                           ########,                                 
                                     ,,################,,,,,                         
                               ,,#################################,,                 
                          ,,##########################################,,             
                       ,#########################################, ''#####,          
                    ,#############################################,,   '####,        
                  ,##################################################,,,,####,       
                ,###########''''           ''''###############################       
              ,#####''   ,,,,##########,,,,          '''####'''          '####       
            ,##' ,,,,###########################,,,                        '##       
           ' ,,###''''                  '''############,,,                           
         ,,##''                                '''############,,,,        ,,,,,,###''
      ,#''                                            '''#######################'''  
     '                                                          ''''####''''         
             ,#######,   #######,   ,#######,      ##                                
            ,#'     '#,  ##    ##  ,#'     '#,    #''#        ,####,   ,####,        
            ##       ##  ##   ,#'  ##            #'  '#       #'       #'  '#        
            ##       ##  #######   ##           ,######,      #####,   #    #        
            '#,     ,#'  ##    ##  '#,     ,#' ,#      #,     #,   #   #,  ,#        
             '#######'   ##     ##  '#######'  #'      '#     '####' # '####'        



                #########################################################
                #                        -***-                          #
                #          Department of theory and spectroscopy        #
                #                                                       #
                #                      Frank Neese                      #
                #                                                       #
                #     Directorship, Architecture, Infrastructure        #
                #                    SHARK, DRIVERS                     #
                #        Core code/Algorithms in most modules           #
                #                                                       #
                #        Max Planck Institute fuer Kohlenforschung      #
                #                Kaiser Wilhelm Platz 1                 #
                #                 D-45470 Muelheim/Ruhr                 #
                #                      Germany                          #
                #                                                       #
                #                  All rights reserved                  #
                #                        -***-                          #
                #########################################################


                         Program Version 6.0.0  -   RELEASE  -


 With contributions from (in alphabetic order):
   Daniel Aravena         : Magnetic Suceptibility
   Michael Atanasov       : Ab Initio Ligand Field Theory (pilot matlab implementation)
   Alexander A. Auer      : GIAO ZORA, VPT2 properties, NMR spectrum
   Ute Becker             : All parallelization in ORCA, NUMFREQ, NUMCALC
   Giovanni Bistoni       : ED, misc. LED, open-shell LED, HFLD
   Martin Brehm           : Molecular dynamics
   Dmytro Bykov           : pre 5.0 version of the SCF Hessian
   Marcos Casanova-Páez   : Triplet and SCS-CIS(D). UHF-(DLPNO)-IP/EA/STEOM-CCSD. UHF-CVS-IP/STEOM-CCSD
   Vijay G. Chilkuri      : MRCI spin determinant printing, contributions to CSF-ICE
   Pauline Colinet        : FMM embedding
   Dipayan Datta          : RHF DLPNO-CCSD density
   Achintya Kumar Dutta   : EOM-CC, STEOM-CC
   Nicolas Foglia         : Exact transition moments, OPA infrastructure, MCD improvements
   Dmitry Ganyushin       : Spin-Orbit,Spin-Spin,Magnetic field MRCI
   Miquel Garcia          : C-PCM and meta-GGA Hessian, CCSD/C-PCM, Gaussian charge scheme
   Tiago L. C. Gouveia    : GS-ROHF, GS-ROCIS
   Yang Guo               : DLPNO-NEVPT2, F12-NEVPT2, CIM, IAO-localization
   Andreas Hansen         : Spin unrestricted coupled pair/coupled cluster methods
   Ingolf Harden          : AUTO-CI MPn and infrastructure 
   Benjamin Helmich-Paris : MC-RPA, TRAH-(SCF,CASSCF), AVAS, COSX integrals, SCF dyn. polar.
   Lee Huntington         : MR-EOM, pCC
   Robert Izsak           : Overlap fitted RIJCOSX, COSX-SCS-MP3, EOM
   Riya Kayal             : Wick's Theorem for AUTO-CI, AUTO-CI UHF-CCSDT
   Emily Kempfer          : AUTO-CI, RHF CISDT and CCSDT
   Christian Kollmar      : KDIIS, OOCD, Brueckner-CCSD(T), CCSD density, CASPT2, CASPT2-K, improved NEVPT2
   Axel Koslowski         : Symmetry handling
   Simone Kossmann        : Meta GGA functionals, TD-DFT gradient, OOMP2, (MP2 Hessian; deprecated post 5.0)
   Lucas Lang             : DCDCAS
   Marvin Lechner         : AUTO-CI (C++ implementation), FIC-MRCC
   Spencer Leger          : CASSCF response
   Dagmar Lenk            : GEPOL surface, SMD, ORCA-2-JSON
   Dimitrios Liakos       : Extrapolation schemes; Compound Job, initial MDCI parallelization
   Dimitrios Manganas     : Further ROCIS development; embedding schemes. LFT, Crystal Embedding
   Dimitrios Pantazis     : SARC Basis sets
   Anastasios Papadopoulos: AUTO-CI, single reference methods and gradients
   Taras Petrenko         : pre 6.0 DFT Hessian and TD-DFT gradient, (ASA, deprecated), ECA, 1-Electron XAS/XES, NRVS
   Peter Pinski           : DLPNO-MP2, DLPNO-MP2 Gradient
   Christoph Reimann      : Effective Core Potentials
   Marius Retegan         : Local ZFS, SOC
   Christoph Riplinger    : Optimizer, TS searches, QM/MM, DLPNO-CCSD(T), (RO)-DLPNO pert. Triples
   Michael Roemelt        : Original ROCIS implementation
   Masaaki Saitow         : Open-shell DLPNO-CCSD energy and density
   Barbara Sandhoefer     : DKH picture change effects
   Kantharuban Sivalingam : CASSCF convergence/infrastructure, NEVPT2 and variants, FIC-MRCI
   Bernardo de Souza      : ESD, SOC TD-DFT
   Georgi Stoychev        : AutoAux, RI-MP2 NMR, DLPNO-MP2 response, X2C
   Van Anh Tran           : RI-MP2 g-tensors
   Willem Van den Heuvel  : Paramagnetic NMR
   Zikuan Wang            : NOTCH, Electric field optimization 
   Frank Wennmohs         : Technical directorship and infrastructure
   Hang Xu                : AUTO-CI-Response properties 


 We gratefully acknowledge several colleagues who have allowed us to
 interface, adapt or use parts of their codes:
   Stefan Grimme, W. Hujo, H. Kruse, P. Pracht,  : VdW corrections, initial TS optimization,
                  C. Bannwarth, S. Ehlert,         DFT functionals, gCP, sTDA/sTD-DF
                  L. Wittmann, M. Mueller
   Ed Valeev, F. Pavosevic, A. Kumar             : LibInt (2-el integral package), F12 methods
   Garnet Chan, S. Sharma, J. Yang, R. Olivares  : DMRG
   Ulf Ekstrom                                   : XCFun DFT Library
   Mihaly Kallay                                 : mrcc  (arbitrary order and MRCC methods)
   Frank Weinhold                                : gennbo (NPA and NBO analysis)
   Simon Mueller                                 : openCOSMO-RS
   Christopher J. Cramer and Donald G. Truhlar   : smd solvation model
   Lars Goerigk                                  : TD-DFT with DH, B97 family of functionals
   V. Asgeirsson, H. Jonsson                     : NEB implementation
   FAccTs GmbH                                   : IRC, NEB, NEB-TS, DLPNO-Multilevel, CI-OPT
                                                   MM, QMMM, 2- and 3-layer-ONIOM, Crystal-QMMM,
                                                   LR-CPCM, SF, NACMEs, symmetry and pop. for TD-DFT,
                                                   nearIR, NL-DFT gradient (VV10), updates on ESD,
                                                   ML-optimized integration grids, MBIS, APM,
                                                   GOAT, DOCKER, SOLVATOR, interface openCOSMO-RS
   S Lehtola, MJT Oliveira, MAL Marques          : LibXC Library
   Liviu Ungur et al                             : ANISO software


 Your calculation uses the libint2 library for the computation of 2-el integrals
 For citations please refer to: http://libint.valeyev.net

 Your ORCA version has been built with support for libXC version: 6.2.2
 For citations please refer to: https://libxc.gitlab.io

 This ORCA versions uses:
   CBLAS   interface :  Fast vector & matrix operations
   LAPACKE interface :  Fast linear algebra routines
   SCALAPACK package :  Parallel linear algebra routines
   Shared memory     :  Shared parallel matrices
   BLAS/LAPACK       :  OpenBLAS 0.3.27  USE64BITINT DYNAMIC_ARCH NO_AFFINITY SkylakeX SINGLE_THREADED
        Core in use  :  SkylakeX
   Copyright (c) 2011-2014, The OpenBLAS Project


Warning: RI is on but no J-basis has been assigned. Assigning Def2/J (nothing to worry about!)
================================================================================

----- Orbital basis set information -----
Your calculation utilizes the basis: 6-31G*
   H-He, Li-Ne : W. J. Hehre, R. Ditchfield and J.A. Pople, J. Chem. Phys. 56, 2257 (1972).
                 Note: He and Ne are unpublished basis sets taken from the Gaussian program.
                 Note: Li and B from J. D. Dill and J. A. Pople, J. Chem. Phys. 62, 2921 (1975).
   Na - Ar     : M. M. Francl, W. J. Pietro, W. J. Hehre, J. S. Binkley, M. S. Gordon, 
                 D. J. DeFrees and J. A. Pople, J. Chem. Phys. 77, 3654 (1982).
   K - Zn      : V. A. Rassolov, J. A. Pople, M. A. Ratner, and T. L. Windus, J. Chem. Phys. 109, 1223 (1998).

----- AuxJ basis set information -----
Your calculation utilizes the auxiliary basis: def2/J
   F. Weigend, Phys. Chem. Chem. Phys. 8, 1057 (2006).

================================================================================
                                        WARNINGS
                       Please study these warnings very carefully!
================================================================================


================================================================================
                                       INPUT FILE
================================================================================
NAME = /home/nmrbox/aojoawo/Documents/ERDOS/inputs/CHEMBL3922771.inp
|  1> ! B3LYP 6-31G* SP
|  2> 
|  3> * xyz 0 1
|  4> C -4.0154 -3.5932 1.1252
|  5> C -4.1322 -2.1882 0.6259
|  6> O -4.4105 -1.1598 1.4046
|  7> C -4.3787 -0.0796 0.6580
|  8> C -4.0795 -0.3843 -0.6344
|  9> C -3.9159 -1.7607 -0.6856
| 10> C -3.4563 -2.6077 -1.8402
| 11> C -2.0239 -3.0094 -1.6552
| 12> O -1.7158 -4.2300 -1.7143
| 13> N -1.0149 -2.0076 -1.4472
| 14> C 0.2902 -2.2740 -0.9143
| 15> N 1.2213 -1.3092 -0.7638
| 16> C 2.3657 -1.7772 -0.1901
| 17> C 3.5160 -0.8785 0.0859
| 18> C 3.3355 0.5161 0.0622
| 19> C 4.4024 1.3789 0.3298
| 20> C 5.6796 0.8646 0.6187
| 21> O 6.7771 1.6983 0.8903
| 22> C 6.7210 3.1215 0.9357
| 23> C 8.1066 3.6784 1.2312
| 24> F 8.0495 5.0576 1.2897
| 25> F 8.5626 3.1932 2.4434
| 26> F 8.9840 3.3035 0.2308
| 27> C 5.8672 -0.5258 0.6336
| 28> Cl 7.4507 -1.2043 0.9836
| 29> C 4.7969 -1.3895 0.3689
| 30> C 2.3353 -3.1378 0.1325
| 31> S 0.8364 -3.7490 -0.3178
| 32> C -3.9829 0.6303 -1.5812
| 33> O -3.7140 0.3649 -2.7831
| 34> N -4.1957 1.9283 -1.1779
| 35> C -4.1364 3.0116 -2.1746
| 36> C -4.5292 2.2051 0.1374
| 37> O -4.7850 3.3933 0.4848
| 38> N -4.5900 1.1987 1.0744
| 39> C -4.9489 1.4662 2.4735
| 40> H -4.4468 -3.6748 2.1445
| 41> H -2.9449 -3.8812 1.1648
| 42> H -4.5620 -4.2828 0.4497
| 43> H -3.5625 -2.0717 -2.8050
| 44> H -4.0998 -3.5127 -1.9013
| 45> H -1.2601 -1.0104 -1.6450
| 46> H 2.3637 0.9443 -0.1521
| 47> H 4.2221 2.4455 0.3102
| 48> H 6.0188 3.4437 1.7343
| 49> H 6.3713 3.5154 -0.0430
| 50> H 4.9814 -2.4557 0.3712
| 51> H 3.1130 -3.7101 0.6170
| 52> H -3.3087 2.8382 -2.8955
| 53> H -3.9401 3.9987 -1.7027
| 54> H -5.0981 3.0591 -2.7285
| 55> H -4.4491 0.7436 3.1536
| 56> H -6.0483 1.3838 2.5986
| 57> H -4.6224 2.4817 2.7851
| 58> *
| 59> 
| 60>                          ****END OF INPUT****
================================================================================

                       ****************************
                       * Single Point Calculation *
                       ****************************

---------------------------------
CARTESIAN COORDINATES (ANGSTROEM)
---------------------------------
  C     -4.015400   -3.593200    1.125200
  C     -4.132200   -2.188200    0.625900
  O     -4.410500   -1.159800    1.404600
  C     -4.378700   -0.079600    0.658000
  C     -4.079500   -0.384300   -0.634400
  C     -3.915900   -1.760700   -0.685600
  C     -3.456300   -2.607700   -1.840200
  C     -2.023900   -3.009400   -1.655200
  O     -1.715800   -4.230000   -1.714300
  N     -1.014900   -2.007600   -1.447200
  C      0.290200   -2.274000   -0.914300
  N      1.221300   -1.309200   -0.763800
  C      2.365700   -1.777200   -0.190100
  C      3.516000   -0.878500    0.085900
  C      3.335500    0.516100    0.062200
  C      4.402400    1.378900    0.329800
  C      5.679600    0.864600    0.618700
  O      6.777100    1.698300    0.890300
  C      6.721000    3.121500    0.935700
  C      8.106600    3.678400    1.231200
  F      8.049500    5.057600    1.289700
  F      8.562600    3.193200    2.443400
  F      8.984000    3.303500    0.230800
  C      5.867200   -0.525800    0.633600
  Cl     7.450700   -1.204300    0.983600
  C      4.796900   -1.389500    0.368900
  C      2.335300   -3.137800    0.132500
  S      0.836400   -3.749000   -0.317800
  C     -3.982900    0.630300   -1.581200
  O     -3.714000    0.364900   -2.783100
  N     -4.195700    1.928300   -1.177900
  C     -4.136400    3.011600   -2.174600
  C     -4.529200    2.205100    0.137400
  O     -4.785000    3.393300    0.484800
  N     -4.590000    1.198700    1.074400
  C     -4.948900    1.466200    2.473500
  H     -4.446800   -3.674800    2.144500
  H     -2.944900   -3.881200    1.164800
  H     -4.562000   -4.282800    0.449700
  H     -3.562500   -2.071700   -2.805000
  H     -4.099800   -3.512700   -1.901300
  H     -1.260100   -1.010400   -1.645000
  H      2.363700    0.944300   -0.152100
  H      4.222100    2.445500    0.310200
  H      6.018800    3.443700    1.734300
  H      6.371300    3.515400   -0.043000
  H      4.981400   -2.455700    0.371200
  H      3.113000   -3.710100    0.617000
  H     -3.308700    2.838200   -2.895500
  H     -3.940100    3.998700   -1.702700
  H     -5.098100    3.059100   -2.728500
  H     -4.449100    0.743600    3.153600
  H     -6.048300    1.383800    2.598600
  H     -4.622400    2.481700    2.785100

----------------------------
CARTESIAN COORDINATES (A.U.)
----------------------------
  NO LB      ZA    FRAG     MASS         X           Y           Z
   0 C     6.0000    0    12.011   -7.588006   -6.790164    2.126320
   1 C     6.0000    0    12.011   -7.808726   -4.135099    1.182780
   2 O     8.0000    0    15.999   -8.334637   -2.191704    2.654309
   3 C     6.0000    0    12.011   -8.274544   -0.150422    1.243440
   4 C     6.0000    0    12.011   -7.709138   -0.726222   -1.198842
   5 C     6.0000    0    12.011   -7.399979   -3.327241   -1.295596
   6 C     6.0000    0    12.011   -6.531460   -4.927839   -3.477474
   7 C     6.0000    0    12.011   -3.824617   -5.686942   -3.127875
   8 O     8.0000    0    15.999   -3.242392   -7.993542   -3.239558
   9 N     7.0000    0    14.007   -1.917883   -3.793814   -2.734812
  10 C     6.0000    0    12.011    0.548399   -4.297237   -1.727777
  11 N     7.0000    0    14.007    2.307923   -2.474029   -1.443373
  12 C     6.0000    0    12.011    4.470525   -3.358421   -0.359237
  13 C     6.0000    0    12.011    6.644277   -1.660124    0.162327
  14 C     6.0000    0    12.011    6.303182    0.975288    0.117541
  15 C     6.0000    0    12.011    8.319330    2.605743    0.623232
  16 C     6.0000    0    12.011   10.732889    1.633857    1.169174
  17 O     8.0000    0    15.999   12.806863    3.209322    1.682423
  18 C     6.0000    0    12.011   12.700849    5.898780    1.768217
  19 C     6.0000    0    12.011   15.319254    6.951169    2.326631
  20 F     9.0000    0    18.998   15.211351    9.557479    2.437180
  21 F     9.0000    0    18.998   16.180969    6.034273    4.617357
  22 F     9.0000    0    18.998   16.977300    6.242710    0.436149
  23 C     6.0000    0    12.011   11.087401   -0.993618    1.197330
  24 Cl   17.0000    0    35.453   14.079783   -2.275797    1.858735
  25 C     6.0000    0    12.011    9.064827   -2.625774    0.697120
  26 C     6.0000    0    12.011    4.413077   -5.929583    0.250389
  27 S    16.0000    0    32.060    1.580567   -7.084583   -0.600555
  28 C     6.0000    0    12.011   -7.526590    1.191094   -2.988035
  29 O     8.0000    0    15.999   -7.018443    0.689561   -5.259297
  30 N     7.0000    0    14.007   -7.928724    3.643959   -2.225908
  31 C     6.0000    0    12.011   -7.816663    5.691099   -4.109398
  32 C     6.0000    0    12.011   -8.558948    4.167035    0.259648
  33 O     8.0000    0    15.999   -9.042340    6.412408    0.916139
  34 N     7.0000    0    14.007   -8.673843    2.265215    2.030322
  35 C     6.0000    0    12.011   -9.352066    2.770716    4.674238
  36 H     1.0000    0     1.008   -8.403234   -6.944366    4.052518
  37 H     1.0000    0     1.008   -5.565054   -7.334405    2.201153
  38 H     1.0000    0     1.008   -8.620931   -8.093319    0.849810
  39 H     1.0000    0     1.008   -6.732149   -3.914946   -5.300682
  40 H     1.0000    0     1.008   -7.747499   -6.638041   -3.592936
  41 H     1.0000    0     1.008   -2.381244   -1.909379   -3.108599
  42 H     1.0000    0     1.008    4.466746    1.784468   -0.287427
  43 H     1.0000    0     1.008    7.978613    4.621325    0.586193
  44 H     1.0000    0     1.008   11.373884    6.507650    3.277352
  45 H     1.0000    0     1.008   12.040012    6.643143   -0.081258
  46 H     1.0000    0     1.008    9.413482   -4.640600    0.701466
  47 H     1.0000    0     1.008    5.882717   -7.011073    1.165961
  48 H     1.0000    0     1.008   -6.252537    5.363421   -5.471702
  49 H     1.0000    0     1.008   -7.445710    7.556448   -3.217637
  50 H     1.0000    0     1.008   -9.634013    5.780861   -5.156118
  51 H     1.0000    0     1.008   -8.407581    1.405200    5.959440
  52 H     1.0000    0     1.008  -11.429631    2.615003    4.910642
  53 H     1.0000    0     1.008   -8.735070    4.689733    5.263076

--------------------------------
INTERNAL COORDINATES (ANGSTROEM)
--------------------------------
 C      0   0   0     0.000000000000     0.00000000     0.00000000
 C      1   0   0     1.495649601344     0.00000000     0.00000000
 O      2   1   0     1.319632956545   123.47353998     0.00000000
 C      3   2   1     1.313489566003   107.48023488   177.29848499
 C      4   3   2     1.361124715079   111.15747491     0.14065702
 C      5   4   3     1.387034015444   106.44648542     0.06016111
 C      6   5   4     1.503909013205   128.55505950   186.10171342
 C      7   6   5     1.499118957922   110.37562190   102.37000218
 O      8   7   6     1.260270915319   119.16500913   126.46507009
 N      8   7   6     1.436992776600   120.13020973   304.90606126
 C     10   8   7     1.434655840263   124.26804124   162.63172829
 N     11  10   8     1.349235524288   122.44079844   178.38780495
 C     12  11  10     1.363013958109   112.38543087   177.49105653
 C     13  12  11     1.485606872628   121.37212475   180.86502233
 C     14  13  12     1.406432045994   119.82454842    15.36903464
 C     15  14  13     1.397966097586   120.71837919   179.47793510
 C     16  15  14     1.406843111367   120.43344696     0.44930567
 O     17  16  15     1.404752113364   122.14229268   179.87899418
 C     18  17  16     1.425028634800   124.61969414     1.54403068
 C     19  18  17     1.522282897493   109.61597132   181.06727359
 F     20  19  18     1.381620534011   109.62076186   180.64928831
 F     20  19  18     1.383034301816   109.99281949   300.57055495
 F     20  19  18     1.382454675568   109.75532422    60.81114073
 C     17  16  15     1.403078019926   119.06703346     0.03680024
 Cl    24  17  16     1.757934725751   120.33333361   179.73062109
 C     24  17  16     1.400566267622   120.45908487   359.79157241
 C     13  12  11     1.398651950987   114.38388783   359.38435953
 S     27  13  12     1.680189495265   108.14640253     0.00000000
 C      5   4   3     1.391105660976   119.88351497   180.75799183
 O     29   5   4     1.259884113718   120.69490566   180.39009899
 N     29   5   4     1.375768414378   118.54581913     0.00000000
 C     31  29   5     1.473250240115   119.28800272   181.77649804
 C     31  29   5     1.384866267912   120.28125519   358.50574374
 O     33  31  29     1.264096372908   119.84275953   183.35200915
 N      4   3   2     1.360914229480   126.49771151   181.03822680
 C     35   4   3     1.468960949107   120.02651628   357.20592276
 H      1   2   3     1.109836478946   110.20100568    14.73441717
 H      1   2   3     1.109271116545   109.34012929   255.11919768
 H      1   2   3     1.109333119491   110.01092087   134.67975066
 H      7   6   5     1.108789195474   111.50033767   340.84567533
 H      7   6   5     1.112137788226   108.88403537   223.17849476
 H     10   8   7     1.045779957735   118.21327135   346.21760098
 H     15  14  13     1.083362806266   120.68926217     0.22225146
 H     16  15  14     1.081909335388   118.54164475   180.50679580
 H     19  18  17     1.111152392789   109.71691909    61.10363768
 H     19  18  17     1.111440952098   109.77226707   300.91939966
 H     26  24  17     1.082048048841   118.48594289   178.91374939
 H     27  13  12     1.080317004402   127.09473620   181.92998463
 H     32  31  29     1.111238795219   110.74019241   320.11173103
 H     32  31  29     1.111570829952   111.89284669   201.57926240
 H     32  31  29     1.110823275773   109.50810621    80.52864886
 H     36  35   4     1.111074619456   110.77278285    34.02611221
 H     36  35   4     1.109558529326   109.63016004   273.48178070
 H     36  35   4     1.111277220139   111.20379301   152.73948833

---------------------------
INTERNAL COORDINATES (A.U.)
---------------------------
 C      0   0   0     0.000000000000     0.00000000     0.00000000
 C      1   0   0     2.826368138848     0.00000000     0.00000000
 O      2   1   0     2.493744885167   123.47353998     0.00000000
 C      3   2   1     2.482135559510   107.48023488   177.29848499
 C      4   3   2     2.572152945612   111.15747491     0.14065702
 C      5   4   3     2.621114427623   106.44648542     0.06016111
 C      6   5   4     2.841976165294   128.55505950   186.10171342
 C      7   6   5     2.832924272641   110.37562190   102.37000218
 O      8   7   6     2.381566884500   119.16500913   126.46507009
 N      8   7   6     2.715522804197   120.13020973   304.90606126
 C     10   8   7     2.711106634527   124.26804124   162.63172829
 N     11  10   8     2.549685631061   122.44079844   178.38780495
 C     12  11  10     2.575723097538   112.38543087   177.49105653
 C     13  12  11     2.807390131938   121.37212475   180.86502233
 C     14  13  12     2.657771392900   119.82454842    15.36903464
 C     15  14  13     2.641773068944   120.71837919   179.47793510
 C     16  15  14     2.658548193877   120.43344696     0.44930567
 O     17  16  15     2.654596780305   122.14229268   179.87899418
 C     18  17  16     2.692913852768   124.61969414     1.54403068
 C     19  18  17     2.876697774614   109.61597132   181.06727359
 F     20  19  18     2.610884430282   109.62076186   180.64928831
 F     20  19  18     2.613556064251   109.99281949   300.57055495
 F     20  19  18     2.612460729383   109.75532422    60.81114073
 C     17  16  15     2.651433202185   119.06703346     0.03680024
 Cl    24  17  16     3.322015192979   120.33333361   179.73062109
 C     24  17  16     2.646686678213   120.45908487   359.79157241
 C     13  12  11     2.643069144040   114.38388783   359.38435953
 S     27  13  12     3.175097999143   108.14640253     0.00000000
 C      5   4   3     2.628808722593   119.88351497   180.75799183
 O     29   5   4     2.380835935406   120.69490566   180.39009899
 N     29   5   4     2.599825526873   118.54581913     0.00000000
 C     31  29   5     2.784039480552   119.28800272   181.77649804
 C     31  29   5     2.617017978459   120.28125519   358.50574374
 O     33  31  29     2.388795951680   119.84275953   183.35200915
 N      4   3   2     2.571755185473   126.49771151   181.03822680
 C     35   4   3     2.775933895236   120.02651628   357.20592276
 H      1   2   3     2.097286998644   110.20100568    14.73441717
 H      1   2   3     2.096218618538   109.34012929   255.11919768
 H      1   2   3     2.096335787127   110.01092087   134.67975066
 H      7   6   5     2.095307919697   111.50033767   340.84567533
 H      7   6   5     2.101635842932   108.88403537   223.17849476
 H     10   8   7     1.976237716463   118.21327135   346.21760098
 H     15  14  13     2.047259007519   120.68926217     0.22225146
 H     16  15  14     2.044512345616   118.54164475   180.50679580
 H     19  18  17     2.099773715422   109.71691909    61.10363768
 H     19  18  17     2.100319013489   109.77226707   300.91939966
 H     26  24  17     2.044774476053   118.48594289   178.91374939
 H     27  13  12     2.041503276138   127.09473620   181.92998463
 H     32  31  29     2.099936992353   110.74019241   320.11173103
 H     32  31  29     2.100564447065   111.89284669   201.57926240
 H     32  31  29     2.099151774397   109.50810621    80.52864886
 H     36  35   4     2.099626745123   110.77278285    34.02611221
 H     36  35   4     2.096761749983   109.63016004   273.48178070
 H     36  35   4     2.100009604928   111.20379301   152.73948833

---------------------
BASIS SET INFORMATION
---------------------
There are 7 groups of distinct atoms

 Group   1 Type C   : 10s4p1d contracted to 3s2p1d pattern {631/31/1}
 Group   2 Type O   : 10s4p1d contracted to 3s2p1d pattern {631/31/1}
 Group   3 Type N   : 10s4p1d contracted to 3s2p1d pattern {631/31/1}
 Group   4 Type F   : 10s4p1d contracted to 3s2p1d pattern {631/31/1}
 Group   5 Type Cl  : 16s10p1d contracted to 4s3p1d pattern {6631/631/1}
 Group   6 Type S   : 16s10p1d contracted to 4s3p1d pattern {6631/631/1}
 Group   7 Type H   : 4s contracted to 2s pattern {31}

Atom   0C    basis set group =>   1
Atom   1C    basis set group =>   1
Atom   2O    basis set group =>   2
Atom   3C    basis set group =>   1
Atom   4C    basis set group =>   1
Atom   5C    basis set group =>   1
Atom   6C    basis set group =>   1
Atom   7C    basis set group =>   1
Atom   8O    basis set group =>   2
Atom   9N    basis set group =>   3
Atom  10C    basis set group =>   1
Atom  11N    basis set group =>   3
Atom  12C    basis set group =>   1
Atom  13C    basis set group =>   1
Atom  14C    basis set group =>   1
Atom  15C    basis set group =>   1
Atom  16C    basis set group =>   1
Atom  17O    basis set group =>   2
Atom  18C    basis set group =>   1
Atom  19C    basis set group =>   1
Atom  20F    basis set group =>   4
Atom  21F    basis set group =>   4
Atom  22F    basis set group =>   4
Atom  23C    basis set group =>   1
Atom  24Cl   basis set group =>   5
Atom  25C    basis set group =>   1
Atom  26C    basis set group =>   1
Atom  27S    basis set group =>   6
Atom  28C    basis set group =>   1
Atom  29O    basis set group =>   2
Atom  30N    basis set group =>   3
Atom  31C    basis set group =>   1
Atom  32C    basis set group =>   1
Atom  33O    basis set group =>   2
Atom  34N    basis set group =>   3
Atom  35C    basis set group =>   1
Atom  36H    basis set group =>   7
Atom  37H    basis set group =>   7
Atom  38H    basis set group =>   7
Atom  39H    basis set group =>   7
Atom  40H    basis set group =>   7
Atom  41H    basis set group =>   7
Atom  42H    basis set group =>   7
Atom  43H    basis set group =>   7
Atom  44H    basis set group =>   7
Atom  45H    basis set group =>   7
Atom  46H    basis set group =>   7
Atom  47H    basis set group =>   7
Atom  48H    basis set group =>   7
Atom  49H    basis set group =>   7
Atom  50H    basis set group =>   7
Atom  51H    basis set group =>   7
Atom  52H    basis set group =>   7
Atom  53H    basis set group =>   7
---------------------------------
AUXILIARY/J BASIS SET INFORMATION
---------------------------------
There are 7 groups of distinct atoms

 Group   1 Type C   : 12s5p4d2f1g contracted to 6s4p3d1f1g pattern {711111/2111/211/2/1}
 Group   2 Type O   : 12s5p4d2f1g contracted to 6s4p3d1f1g pattern {711111/2111/211/2/1}
 Group   3 Type N   : 12s5p4d2f1g contracted to 6s4p3d1f1g pattern {711111/2111/211/2/1}
 Group   4 Type F   : 12s5p4d2f1g contracted to 6s4p3d1f1g pattern {711111/2111/211/2/1}
 Group   5 Type Cl  : 14s5p5d2f1g contracted to 8s4p3d1f1g pattern {71111111/2111/311/2/1}
 Group   6 Type S   : 14s5p5d2f1g contracted to 8s4p3d1f1g pattern {71111111/2111/311/2/1}
 Group   7 Type H   : 5s2p1d contracted to 3s1p1d pattern {311/2/1}

Atom   0C    basis set group =>   1
Atom   1C    basis set group =>   1
Atom   2O    basis set group =>   2
Atom   3C    basis set group =>   1
Atom   4C    basis set group =>   1
Atom   5C    basis set group =>   1
Atom   6C    basis set group =>   1
Atom   7C    basis set group =>   1
Atom   8O    basis set group =>   2
Atom   9N    basis set group =>   3
Atom  10C    basis set group =>   1
Atom  11N    basis set group =>   3
Atom  12C    basis set group =>   1
Atom  13C    basis set group =>   1
Atom  14C    basis set group =>   1
Atom  15C    basis set group =>   1
Atom  16C    basis set group =>   1
Atom  17O    basis set group =>   2
Atom  18C    basis set group =>   1
Atom  19C    basis set group =>   1
Atom  20F    basis set group =>   4
Atom  21F    basis set group =>   4
Atom  22F    basis set group =>   4
Atom  23C    basis set group =>   1
Atom  24Cl   basis set group =>   5
Atom  25C    basis set group =>   1
Atom  26C    basis set group =>   1
Atom  27S    basis set group =>   6
Atom  28C    basis set group =>   1
Atom  29O    basis set group =>   2
Atom  30N    basis set group =>   3
Atom  31C    basis set group =>   1
Atom  32C    basis set group =>   1
Atom  33O    basis set group =>   2
Atom  34N    basis set group =>   3
Atom  35C    basis set group =>   1
Atom  36H    basis set group =>   7
Atom  37H    basis set group =>   7
Atom  38H    basis set group =>   7
Atom  39H    basis set group =>   7
Atom  40H    basis set group =>   7
Atom  41H    basis set group =>   7
Atom  42H    basis set group =>   7
Atom  43H    basis set group =>   7
Atom  44H    basis set group =>   7
Atom  45H    basis set group =>   7
Atom  46H    basis set group =>   7
Atom  47H    basis set group =>   7
Atom  48H    basis set group =>   7
Atom  49H    basis set group =>   7
Atom  50H    basis set group =>   7
Atom  51H    basis set group =>   7
Atom  52H    basis set group =>   7
Atom  53H    basis set group =>   7
------------------------------------------------------------------------------
                             ORCA STARTUP CALCULATIONS
                           -- RI-GTO INTEGRALS CHOSEN --
------------------------------------------------------------------------------
------------------------------------------------------------------------------
                   ___                                                        
                  /   \      - P O W E R E D   B Y -                         
                 /     \                                                     
                 |  |  |   _    _      __       _____    __    __             
                 |  |  |  | |  | |    /  \     |  _  \  |  |  /  |          
                  \  \/   | |  | |   /    \    | | | |  |  | /  /          
                 / \  \   | |__| |  /  /\  \   | |_| |  |  |/  /          
                |  |  |   |  __  | /  /__\  \  |    /   |      \           
                |  |  |   | |  | | |   __   |  |    \   |  |\   \          
                \     /   | |  | | |  |  |  |  | |\  \  |  | \   \       
                 \___/    |_|  |_| |__|  |__|  |_| \__\ |__|  \__/        
                                                                              
                      - O R C A' S   B I G   F R I E N D -                    
                                      &                                       
                       - I N T E G R A L  F E E D E R -                       
                                                                              
 v1 FN, 2020, v2 2021, v3 2022-2024                                           
------------------------------------------------------------------------------


----------------------
SHARK INTEGRAL PACKAGE
----------------------

Number of atoms                             ...     54
Number of basis functions                   ...    548
Number of shells                            ...    256
Maximum angular momentum                    ...      2
Integral batch strategy                     ... SHARK/LIBINT Hybrid
RI-J (if used) integral strategy            ... SPLIT-RIJ (Revised 2003 algorithm where possible)
Printlevel                                  ...      1
Contraction scheme used                     ... SEGMENTED contraction
Prescreening option                         ... SCHWARTZ
   Thresh                                   ... 1.000e-10
   Tcut                                     ... 1.000e-11
   Tpresel                                  ... 1.000e-11 
Coulomb Range Separation                    ... NOT USED
Exchange Range Separation                   ... NOT USED
Multipole approximations                    ... NOT USED
Finite Nucleus Model                        ... NOT USED
CABS basis                                  ... NOT available
Auxiliary Coulomb fitting basis             ... AVAILABLE
   # of basis functions in Aux-J            ...   1966
   # of shells in Aux-J                     ...    634
   Maximum angular momentum in Aux-J        ...      4
Auxiliary J/K fitting basis                 ... NOT available
Auxiliary Correlation fitting basis         ... NOT available
Auxiliary 'external' fitting basis          ... NOT available

Checking pre-screening integrals            ... done (  0.0 sec) Dimension = 256
Check shell pair data                       ... done (  0.0 sec)
Shell pair information
Shell pair cut-off parameter TPreSel        ...   1.0e-11
Total number of shell pairs                 ...     32896
Shell pairs after pre-screening             ...     14977
Total number of primitive shell pairs       ...    203436
Primitive shell pairs kept                  ...     47799
          la=0 lb=0:   4570 shell pairs
          la=1 lb=0:   5323 shell pairs
          la=1 lb=1:   1560 shell pairs
          la=2 lb=0:   2037 shell pairs
          la=2 lb=1:   1241 shell pairs
          la=2 lb=2:    246 shell pairs

Calculating one electron integrals          ... done (  0.2 sec)
Calculating RI/J V-Matrix + Cholesky decomp.... done (  0.4 sec)
Calculating Nuclear repulsion               ... done (  0.0 sec) ENN=   4021.044415925817 Eh

Diagonalization of the overlap matrix:
Smallest eigenvalue                        ... 3.908e-04
Time for diagonalization                   ...    0.040 sec
Threshold for overlap eigenvalues          ... 1.000e-07
Number of eigenvalues below threshold      ... 0
Time for construction of square roots      ...    0.054 sec
Total time needed                          ...    0.105 sec

-------------------
DFT GRID GENERATION
-------------------

General Integration Accuracy     IntAcc      ... 4.388
Radial Grid Type                 RadialGrid  ... OptM3 with GC (2021)
Angular Grid (max. ang.)         AngularGrid ... 4 (Lebedev-302)
Angular grid pruning method      GridPruning ... 4 (adaptive)
Weight generation scheme         WeightScheme... mBecke (2022)
Basis function cutoff            BFCut       ... 1.0000e-10
Integration weight cutoff        WCut        ... 1.0000e-14
Partially contracted basis set               ... off
Rotationally invariant grid construction     ... off
Angular grids for H and He will be reduced by one unit

Total number of grid points                  ...   275676
Total number of batches                      ...     4334
Average number of points per batch           ...       63
Average number of grid points per atom       ...     5105

--------------------
COSX GRID GENERATION
--------------------

GRIDX 1
-------
General Integration Accuracy     IntAcc      ... 3.816
Radial Grid Type                 RadialGrid  ... OptM3 with GC (2021)
Angular Grid (max. ang.)         AngularGrid ... 1 (Lebedev-50)
Angular grid pruning method      GridPruning ... 4 (adaptive)
Weight generation scheme         WeightScheme... mBecke (2022)
Basis function cutoff            BFCut       ... 1.0000e-10
Integration weight cutoff        WCut        ... 1.0000e-14
Partially contracted basis set               ... on
Rotationally invariant grid construction     ... off
Angular grids for H and He will be reduced by one unit

Total number of grid points                  ...    36926
Total number of batches                      ...      320
Average number of points per batch           ...      115
Average number of grid points per atom       ...      684
UseSFitting                                  ... on

GRIDX 2
-------
General Integration Accuracy     IntAcc      ... 4.020
Radial Grid Type                 RadialGrid  ... OptM3 with GC (2021)
Angular Grid (max. ang.)         AngularGrid ... 2 (Lebedev-110)
Angular grid pruning method      GridPruning ... 4 (adaptive)
Weight generation scheme         WeightScheme... mBecke (2022)
Basis function cutoff            BFCut       ... 1.0000e-10
Integration weight cutoff        WCut        ... 1.0000e-14
Partially contracted basis set               ... on
Rotationally invariant grid construction     ... off
Angular grids for H and He will be reduced by one unit

Total number of grid points                  ...    76973
Total number of batches                      ...      627
Average number of points per batch           ...      122
Average number of grid points per atom       ...     1425
UseSFitting                                  ... on

GRIDX 3
-------
General Integration Accuracy     IntAcc      ... 4.338
Radial Grid Type                 RadialGrid  ... OptM3 with GC (2021)
Angular Grid (max. ang.)         AngularGrid ... 3 (Lebedev-194)
Angular grid pruning method      GridPruning ... 4 (adaptive)
Weight generation scheme         WeightScheme... mBecke (2022)
Basis function cutoff            BFCut       ... 1.0000e-10
Integration weight cutoff        WCut        ... 1.0000e-14
Partially contracted basis set               ... on
Rotationally invariant grid construction     ... off
Angular grids for H and He will be reduced by one unit

Total number of grid points                  ...   169945
Total number of batches                      ...     1351
Average number of points per batch           ...      125
Average number of grid points per atom       ...     3147
UseSFitting                                  ... on
Initializing property integral containers    ... done (  0.0 sec)

SHARK setup successfully completed in  10.3 seconds

Maximum memory used throughout the entire STARTUP-calculation: 117.3 MB
-------------------------------------------------------------------------------
                                 ORCA GUESS
                   Start orbitals & Density for SCF / CASSCF
-------------------------------------------------------------------------------

------------
SCF SETTINGS
------------
Hamiltonian:
 Density Functional     Method          .... DFT(GTOs)
 Exchange Functional    Exchange        .... B88
   X-Alpha parameter    XAlpha          ....  0.666667
   Becke's b parameter  XBeta           ....  0.004200
 Correlation Functional Correlation     .... LYP
 LDA part of GGA corr.  LDAOpt          .... VWN-5
 Gradients option       PostSCFGGA      .... off
 Hybrid DFT is turned on
   Fraction HF Exchange ScalHFX         ....  0.200000
   Scaling of DF-GGA-X  ScalDFX         ....  0.720000
   Scaling of DF-GGA-C  ScalDFC         ....  0.810000
   Scaling of DF-LDA-C  ScalLDAC        ....  1.000000
   Perturbative correction              ....  0.000000
   NL short-range parameter             ....  4.800000
 RI-approximation to the Coulomb term is turned on
   Number of AuxJ basis functions       .... 1966
   RIJ-COSX (HFX calculated with COS-X)).... on


General Settings:
 Integral files         IntName         .... /home/nmrbox/aojoawo/Documents/ERDOS/inputs/CHEMBL3922771
 Hartree-Fock type      HFTyp           .... RHF
 Total Charge           Charge          ....    0
 Multiplicity           Mult            ....    1
 Number of Electrons    NEL             ....  278
 Basis Dimension        Dim             ....  548
 Nuclear Repulsion      ENuc            ....   4021.0444159258 Eh

Convergence Acceleration:
 AO-DIIS                CNVDIIS         .... on
   Start iteration      DIISMaxIt       ....    12
   Startup error        DIISStart       ....  0.200000
   # of expansion vecs  DIISMaxEq       ....     5
   Bias factor          DIISBfac        ....   1.050
   Max. coefficient     DIISMaxC        ....  10.000
 MO-DIIS                CNVKDIIS        .... off
 Trust-Rad. Augm. Hess. CNVTRAH         .... auto
   Auto Start mean grad. ratio tolernc. ....  1.125000
   Auto Start start iteration           ....    50
   Auto Start num. interpolation iter.  ....    10
   Max. Number of Micro iterations      ....    24
   Max. Number of Macro iterations      .... Maxiter - #DIIS iter
   Number of Davidson start vectors     ....     2
   Converg. threshold    (grad. norm)   ....   5.000e-05
   Grad. Scal. Fac. for Micro threshold ....   0.100
   Minimum threshold for Micro iter.    ....   1.000e-02
   NR start threshold (gradient norm)   ....   1.000e-04
   Initial trust radius                 ....   0.400
   Minimum AH scaling param. (alpha)    ....   1.000
   Maximum AH scaling param. (alpha)    .... 1000.000
   Quad. conv. algorithm                .... NR
   White noise on init. David. guess    .... on
   Maximum white noise                  ....   0.010
   Pseudo random numbers                .... off
   Inactive MOs                         .... canonical
   Orbital update algorithm             .... Taylor
   Preconditioner                       .... Diag
   Full preconditioner red. dimension   ....   250
 SOSCF                  CNVSOSCF        .... on
   Start iteration      SOSCFMaxIt      ....   150
   Startup grad/error   SOSCFStart      ....  0.003300
   Hessian update       SOSCFHessUp     .... L-BFGS
 Level Shifting         CNVShift        .... on
   Level shift para.    LevelShift      ....    0.2500
   Turn off err/grad.   ShiftErr        ....    0.0010
 Zerner damping         CNVZerner       .... off
 Static damping         CNVDamp         .... on
   Fraction old density DampFac         ....    0.7000
   Max. Damping (<1)    DampMax         ....    0.9800
   Min. Damping (>=0)   DampMin         ....    0.0000
   Turn off err/grad.   DampErr         ....    0.1000

SCF Procedure:
 Maximum # iterations   MaxIter         ....   125
 SCF integral mode      SCFMode         .... Direct
   Integral package                     .... SHARK and LIBINT hybrid scheme
 Reset frequency        DirectResetFreq ....    20
 Integral Threshold     Thresh          ....  1.000e-10 Eh
 Primitive CutOff       TCut            ....  1.000e-11 Eh

Convergence Tolerance:
 Convergence Check Mode ConvCheckMode   .... Total+1el-Energy
 Convergence forced     ConvForced      .... 0
 Energy Change          TolE            ....  1.000e-06 Eh
 1-El. energy change                    ....  1.000e-03 Eh
 Orbital Gradient       TolG            ....  5.000e-05
 Orbital Rotation angle TolX            ....  5.000e-05
 DIIS Error             TolErr          ....  1.000e-06

------------------------------
INITIAL GUESS: MODEL POTENTIAL
------------------------------
Loading Hartree-Fock densities                     ... done
Calculating cut-offs                               ... done
Initializing the effective Hamiltonian             ... done
Setting up the integral package (SHARK)            ... done
Starting the Coulomb interaction                   ... done (   2.3 sec)
Making the grid                                    ... done (   1.3 sec)
Mapping shells                                     ... done
Starting the XC term evaluation                    ... done (   0.9 sec)
  promolecular density results
     # of electrons  =    277.979754009
     EX              =   -268.559607217
     EC              =     -9.978711925
     EX+EC           =   -278.538319141
Transforming the Hamiltonian                       ... done (   0.0 sec)
Diagonalizing the Hamiltonian                      ... done (   0.0 sec)
Back transforming the eigenvectors                 ... done (   0.0 sec)
Now organizing SCF variables                       ... done
                      ------------------
                      INITIAL GUESS DONE (   4.6 sec)
                      ------------------
             **** ENERGY FILE WAS UPDATED (/home/nmrbox/aojoawo/Documents/ERDOS/inputs/CHEMBL3922771.en.tmp) ****
Finished Guess after   5.0 sec
Maximum memory used throughout the entire GUESS-calculation: 62.7 MB

-------------------------------------------------------------------------------------------
                                      ORCA LEAN-SCF
                              memory conserving SCF solver
-------------------------------------------------------------------------------------------

----------------------------------------D-I-I-S--------------------------------------------
Iteration    Energy (Eh)           Delta-E    RMSDP     MaxDP     DIISErr   Damp  Time(sec)
-------------------------------------------------------------------------------------------
               ***  Starting incremental Fock matrix formation  ***
    1    -2600.2275818973530477     0.00e+00  2.27e-03  1.21e-01  2.95e-01  0.700  45.4
    2    -2600.6695559827530815    -4.42e-01  1.38e-03  6.76e-02  1.03e-01  0.700  21.2
                               ***Turning on AO-DIIS***
    3    -2600.8154570702963611    -1.46e-01  5.35e-04  2.28e-02  4.09e-02  0.700  20.1
    4    -2600.9121789843948136    -9.67e-02  9.84e-04  5.24e-02  2.06e-02  0.000  18.4
    5    -2601.1326146941673869    -2.20e-01  2.29e-04  1.12e-02  9.37e-03  0.000  19.4
    6    -2601.1343585393178728    -1.74e-03  8.06e-05  3.80e-03  3.89e-03  0.000  16.9
                              *** Initializing SOSCF ***
---------------------------------------S-O-S-C-F--------------------------------------
Iteration    Energy (Eh)           Delta-E    RMSDP     MaxDP     MaxGrad    Time(sec)
--------------------------------------------------------------------------------------
    7    -2601.1345246242772191    -1.66e-04  2.65e-05  9.11e-04  1.56e-03    15.8
               *** Restarting incremental Fock matrix formation ***
    8    -2601.1345543728548364    -2.97e-05  2.47e-05  1.01e-03  1.69e-04    45.1
    9    -2601.1345533693183825     1.00e-06  1.28e-05  7.19e-04  3.52e-04    22.2
   10    -2601.1345591182025601    -5.75e-06  6.65e-06  2.37e-04  6.60e-05    19.5
   11    -2601.1345589417915107     1.76e-07  2.98e-06  1.95e-04  5.66e-05    17.6
                 **** Energy Check signals convergence ****

               *****************************************************
               *                     SUCCESS                       *
               *           SCF CONVERGED AFTER  11 CYCLES          *
               *****************************************************

Recomputing exchange energy using gridx3       ... done (   73.255 sec)
Old exchange energy                            :    -54.172979841 Eh
New exchange energy                            :    -54.173023688 Eh
Exchange energy change after final integration :     -0.000043847 Eh
Total energy after final integration           :  -2601.134602789 Eh
             **** ENERGY FILE WAS UPDATED (/home/nmrbox/aojoawo/Documents/ERDOS/inputs/CHEMBL3922771.en.tmp) ****

----------------
TOTAL SCF ENERGY
----------------

Total Energy       :      -2601.13460278880348 Eh          -70780.47095 eV

Components:
Nuclear Repulsion  :       4021.04441592581679 Eh          109418.18127 eV
Electronic Energy  :      -6622.17897486760830 Eh         -180198.65103 eV
One Electron Energy:     -11573.82791252246352 Eh         -314939.86873 eV
Two Electron Energy:       4951.64893765485522 Eh          134741.21770 eV

Virial components:
Potential Energy   :      -5190.18697540516405 Eh         -141232.16771 eV
Kinetic Energy     :       2589.05237261636057 Eh           70451.69675 eV
Virial Ratio       :          2.00466666116925

DFT components:
N(Alpha)           :      138.999984211066 electrons
N(Beta)            :      138.999984211066 electrons
N(Total)           :      277.999968422132 electrons
E(X)               :     -215.372238412314 Eh       
E(C)               :      -11.703200844346 Eh       
E(XC)              :     -227.075439256660 Eh       

---------------
SCF CONVERGENCE
---------------

  Last Energy change         ...   -1.7641e-07  Tolerance :   1.0000e-06
  Last MAX-Density change    ...    1.9496e-04  Tolerance :   1.0000e-05
  Last RMS-Density change    ...    2.9790e-06  Tolerance :   1.0000e-06
  Last DIIS Error            ...    1.5602e-03  Tolerance :   1.0000e-06
  Last Orbital Gradient      ...    5.6633e-05  Tolerance :   5.0000e-05
  Last Orbital Rotation      ...    9.4018e-05  Tolerance :   5.0000e-05


----------------
ORBITAL ENERGIES
----------------

  NO   OCC          E(Eh)            E(eV) 
   0   2.0000    -101.525502     -2762.6494 
   1   2.0000     -88.903248     -2419.1804 
   2   2.0000     -24.730083      -672.9398 
   3   2.0000     -24.720263      -672.6725 
   4   2.0000     -24.720213      -672.6712 
   5   2.0000     -19.260767      -524.1121 
   6   2.0000     -19.187823      -522.1272 
   7   2.0000     -19.134974      -520.6891 
   8   2.0000     -19.121912      -520.3337 
   9   2.0000     -19.119918      -520.2794 
  10   2.0000     -14.422696      -392.4615 
  11   2.0000     -14.405535      -391.9945 
  12   2.0000     -14.393901      -391.6780 
  13   2.0000     -14.331764      -389.9871 
  14   2.0000     -10.442270      -284.1486 
  15   2.0000     -10.339865      -281.3620 
  16   2.0000     -10.313783      -280.6523 
  17   2.0000     -10.308405      -280.5060 
  18   2.0000     -10.300277      -280.2848 
  19   2.0000     -10.290952      -280.0310 
  20   2.0000     -10.274462      -279.5823 
  21   2.0000     -10.268735      -279.4265 
  22   2.0000     -10.260138      -279.1926 
  23   2.0000     -10.249914      -278.9143 
  24   2.0000     -10.246950      -278.8337 
  25   2.0000     -10.227037      -278.2918 
  26   2.0000     -10.226732      -278.2835 
  27   2.0000     -10.210310      -277.8367 
  28   2.0000     -10.207807      -277.7685 
  29   2.0000     -10.206082      -277.7216 
  30   2.0000     -10.205366      -277.7021 
  31   2.0000     -10.205178      -277.6970 
  32   2.0000     -10.202465      -277.6232 
  33   2.0000     -10.199021      -277.5295 
  34   2.0000     -10.197830      -277.4971 
  35   2.0000     -10.193668      -277.3838 
  36   2.0000      -9.456848      -257.3339 
  37   2.0000      -7.979528      -217.1340 
  38   2.0000      -7.220151      -196.4703 
  39   2.0000      -7.210427      -196.2057 
  40   2.0000      -7.209999      -196.1940 
  41   2.0000      -5.942666      -161.7082 
  42   2.0000      -5.938406      -161.5923 
  43   2.0000      -5.936493      -161.5402 
  44   2.0000      -1.284505       -34.9532 
  45   2.0000      -1.212033       -32.9811 
  46   2.0000      -1.206044       -32.8181 
  47   2.0000      -1.190322       -32.3903 
  48   2.0000      -1.077045       -29.3079 
  49   2.0000      -1.067873       -29.0583 
  50   2.0000      -1.035471       -28.1766 
  51   2.0000      -1.030444       -28.0398 
  52   2.0000      -0.984339       -26.7852 
  53   2.0000      -0.978312       -26.6212 
  54   2.0000      -0.948333       -25.8054 
  55   2.0000      -0.917044       -24.9540 
  56   2.0000      -0.888037       -24.1647 
  57   2.0000      -0.861879       -23.4529 
  58   2.0000      -0.838071       -22.8051 
  59   2.0000      -0.815816       -22.1995 
  60   2.0000      -0.809592       -22.0301 
  61   2.0000      -0.798807       -21.7366 
  62   2.0000      -0.777968       -21.1696 
  63   2.0000      -0.765326       -20.8256 
  64   2.0000      -0.751563       -20.4511 
  65   2.0000      -0.738517       -20.0961 
  66   2.0000      -0.731660       -19.9095 
  67   2.0000      -0.718735       -19.5578 
  68   2.0000      -0.712335       -19.3836 
  69   2.0000      -0.672353       -18.2957 
  70   2.0000      -0.667218       -18.1559 
  71   2.0000      -0.639002       -17.3881 
  72   2.0000      -0.633081       -17.2270 
  73   2.0000      -0.626289       -17.0422 
  74   2.0000      -0.619121       -16.8472 
  75   2.0000      -0.612209       -16.6591 
  76   2.0000      -0.591501       -16.0956 
  77   2.0000      -0.583192       -15.8695 
  78   2.0000      -0.578222       -15.7342 
  79   2.0000      -0.571488       -15.5510 
  80   2.0000      -0.561052       -15.2670 
  81   2.0000      -0.549389       -14.9496 
  82   2.0000      -0.543381       -14.7861 
  83   2.0000      -0.537779       -14.6337 
  84   2.0000      -0.536949       -14.6111 
  85   2.0000      -0.518743       -14.1157 
  86   2.0000      -0.515232       -14.0202 
  87   2.0000      -0.497081       -13.5263 
  88   2.0000      -0.491949       -13.3866 
  89   2.0000      -0.489237       -13.3128 
  90   2.0000      -0.484107       -13.1732 
  91   2.0000      -0.479518       -13.0483 
  92   2.0000      -0.470411       -12.8005 
  93   2.0000      -0.468419       -12.7463 
  94   2.0000      -0.460754       -12.5377 
  95   2.0000      -0.458067       -12.4646 
  96   2.0000      -0.455361       -12.3910 
  97   2.0000      -0.451395       -12.2831 
  98   2.0000      -0.451361       -12.2822 
  99   2.0000      -0.441166       -12.0047 
 100   2.0000      -0.440564       -11.9884 
 101   2.0000      -0.434627       -11.8268 
 102   2.0000      -0.431903       -11.7527 
 103   2.0000      -0.429736       -11.6937 
 104   2.0000      -0.428268       -11.6538 
 105   2.0000      -0.422727       -11.5030 
 106   2.0000      -0.421567       -11.4714 
 107   2.0000      -0.417278       -11.3547 
 108   2.0000      -0.415379       -11.3030 
 109   2.0000      -0.413140       -11.2421 
 110   2.0000      -0.408306       -11.1106 
 111   2.0000      -0.403865       -10.9897 
 112   2.0000      -0.402369       -10.9490 
 113   2.0000      -0.400892       -10.9088 
 114   2.0000      -0.398916       -10.8551 
 115   2.0000      -0.397602       -10.8193 
 116   2.0000      -0.396304       -10.7840 
 117   2.0000      -0.392811       -10.6889 
 118   2.0000      -0.380662       -10.3584 
 119   2.0000      -0.375369       -10.2143 
 120   2.0000      -0.365962        -9.9583 
 121   2.0000      -0.354150        -9.6369 
 122   2.0000      -0.339276        -9.2322 
 123   2.0000      -0.338263        -9.2046 
 124   2.0000      -0.334822        -9.1110 
 125   2.0000      -0.334453        -9.1009 
 126   2.0000      -0.311179        -8.4676 
 127   2.0000      -0.306305        -8.3350 
 128   2.0000      -0.296526        -8.0689 
 129   2.0000      -0.285760        -7.7759 
 130   2.0000      -0.285128        -7.7587 
 131   2.0000      -0.276895        -7.5347 
 132   2.0000      -0.275408        -7.4942 
 133   2.0000      -0.264590        -7.1999 
 134   2.0000      -0.258252        -7.0274 
 135   2.0000      -0.255291        -6.9468 
 136   2.0000      -0.239734        -6.5235 
 137   2.0000      -0.215244        -5.8571 
 138   2.0000      -0.207106        -5.6356 
 139   0.0000      -0.039693        -1.0801 
 140   0.0000      -0.030691        -0.8351 
 141   0.0000      -0.022954        -0.6246 
 142   0.0000      -0.015778        -0.4293 
 143   0.0000      -0.012817        -0.3488 
 144   0.0000       0.018859         0.5132 
 145   0.0000       0.025083         0.6826 
 146   0.0000       0.027017         0.7352 
 147   0.0000       0.048358         1.3159 
 148   0.0000       0.060154         1.6369 
 149   0.0000       0.069060         1.8792 
*Only the first 10 virtual orbitals were printed.

                    ********************************
                    * MULLIKEN POPULATION ANALYSIS *
                    ********************************

-----------------------
MULLIKEN ATOMIC CHARGES
-----------------------
   0 C :   -0.531208
   1 C :    0.251529
   2 O :   -0.402540
   3 C :    0.489724
   4 C :    0.016746
   5 C :    0.014270
   6 C :   -0.442724
   7 C :    0.569316
   8 O :   -0.455660
   9 N :   -0.643377
  10 C :    0.259329
  11 N :   -0.437358
  12 C :    0.210027
  13 C :    0.125470
  14 C :   -0.166683
  15 C :   -0.200324
  16 C :    0.385943
  17 O :   -0.513672
  18 C :   -0.121176
  19 C :    0.923093
  20 F :   -0.300319
  21 F :   -0.293618
  22 F :   -0.293203
  23 C :   -0.137667
  24 Cl:    0.004820
  25 C :   -0.180663
  26 C :   -0.405551
  27 S :    0.307639
  28 C :    0.501958
  29 O :   -0.509828
  30 N :   -0.481084
  31 C :   -0.315968
  32 C :    0.674982
  33 O :   -0.503068
  34 N :   -0.502547
  35 C :   -0.332523
  36 H :    0.167478
  37 H :    0.192693
  38 H :    0.183962
  39 H :    0.221053
  40 H :    0.185845
  41 H :    0.364819
  42 H :    0.155952
  43 H :    0.141742
  44 H :    0.167905
  45 H :    0.168741
  46 H :    0.153038
  47 H :    0.182279
  48 H :    0.191819
  49 H :    0.199564
  50 H :    0.180692
  51 H :    0.181372
  52 H :    0.184779
  53 H :    0.212188
Sum of atomic charges:   -0.0000000

--------------------------------
MULLIKEN REDUCED ORBITAL CHARGES
--------------------------------
  0 C s       :     3.322018  s :     3.322018
      pz      :     1.077035  p :     3.174732
      px      :     1.102292
      py      :     0.995405
      dz2     :     0.007248  d :     0.034459
      dxz     :     0.005240
      dyz     :     0.005887
      dx2y2   :     0.009177
      dxy     :     0.006907

  1 C s       :     3.076021  s :     3.076021
      pz      :     0.855431  p :     2.600188
      px      :     1.037772
      py      :     0.706985
      dz2     :     0.013514  d :     0.072263
      dxz     :     0.010077
      dyz     :     0.026382
      dx2y2   :     0.011222
      dxy     :     0.011068

  2 O s       :     3.833267  s :     3.833267
      pz      :     1.616843  p :     4.528454
      px      :     1.665141
      py      :     1.246471
      dz2     :     0.007397  d :     0.040818
      dxz     :     0.006332
      dyz     :     0.013368
      dx2y2   :     0.003974
      dxy     :     0.009747

  3 C s       :     2.951488  s :     2.951488
      pz      :     0.879577  p :     2.464022
      px      :     0.997640
      py      :     0.586804
      dz2     :     0.017617  d :     0.094766
      dxz     :     0.012088
      dyz     :     0.029375
      dx2y2   :     0.016596
      dxy     :     0.019090

  4 C s       :     3.124839  s :     3.124839
      pz      :     0.805225  p :     2.815915
      px      :     1.115569
      py      :     0.895122
      dz2     :     0.010087  d :     0.042499
      dxz     :     0.005676
      dyz     :     0.012252
      dx2y2   :     0.006457
      dxy     :     0.008028

  5 C s       :     3.158826  s :     3.158826
      pz      :     0.822133  p :     2.783586
      px      :     1.039280
      py      :     0.922173
      dz2     :     0.011957  d :     0.043317
      dxz     :     0.006678
      dyz     :     0.010352
      dx2y2   :     0.006642
      dxy     :     0.007688

  6 C s       :     3.301278  s :     3.301278
      pz      :     1.062741  p :     3.102555
      px      :     0.958364
      py      :     1.081450
      dz2     :     0.009426  d :     0.038891
      dxz     :     0.004771
      dyz     :     0.008445
      dx2y2   :     0.007377
      dxy     :     0.008872

  7 C s       :     3.012670  s :     3.012670
      pz      :     0.789925  p :     2.318961
      px      :     0.805269
      py      :     0.723767
      dz2     :     0.005812  d :     0.099053
      dxz     :     0.006770
      dyz     :     0.020732
      dx2y2   :     0.027021
      dxy     :     0.038719

  8 O s       :     3.897522  s :     3.897522
      pz      :     1.409728  p :     4.532321
      px      :     1.767877
      py      :     1.354716
      dz2     :     0.002467  d :     0.025817
      dxz     :     0.000655
      dyz     :     0.008981
      dx2y2   :     0.007477
      dxy     :     0.006237

  9 N s       :     3.626248  s :     3.626248
      pz      :     1.603838  p :     3.989071
      px      :     1.176415
      py      :     1.208819
      dz2     :     0.004094  d :     0.028058
      dxz     :     0.005158
      dyz     :     0.002306
      dx2y2   :     0.009688
      dxy     :     0.006813

 10 C s       :     3.044786  s :     3.044786
      pz      :     0.977656  p :     2.622905
      px      :     0.787258
      py      :     0.857991
      dz2     :     0.008253  d :     0.072981
      dxz     :     0.014138
      dyz     :     0.010288
      dx2y2   :     0.023863
      dxy     :     0.016438

 11 N s       :     3.698193  s :     3.698193
      pz      :     1.229424  p :     3.700975
      px      :     1.043270
      py      :     1.428281
      dz2     :     0.005505  d :     0.038190
      dxz     :     0.006219
      dyz     :     0.007125
      dx2y2   :     0.006880
      dxy     :     0.012462

 12 C s       :     3.063018  s :     3.063018
      pz      :     0.946019  p :     2.667459
      px      :     0.848615
      py      :     0.872825
      dz2     :     0.007040  d :     0.059497
      dxz     :     0.009632
      dyz     :     0.009315
      dx2y2   :     0.016234
      dxy     :     0.017275

 13 C s       :     3.132539  s :     3.132539
      pz      :     0.989543  p :     2.702123
      px      :     0.868099
      py      :     0.844482
      dz2     :     0.003504  d :     0.039868
      dxz     :     0.005762
      dyz     :     0.006395
      dx2y2   :     0.011513
      dxy     :     0.012694

 14 C s       :     3.207995  s :     3.207995
      pz      :     0.972874  p :     2.922599
      px      :     0.971257
      py      :     0.978468
      dz2     :     0.003435  d :     0.036089
      dxz     :     0.003299
      dyz     :     0.006086
      dx2y2   :     0.011432
      dxy     :     0.011838

 15 C s       :     3.188872  s :     3.188872
      pz      :     1.051522  p :     2.976795
      px      :     0.941052
      py      :     0.984221
      dz2     :     0.004060  d :     0.034657
      dxz     :     0.006108
      dyz     :     0.002353
      dx2y2   :     0.013469
      dxy     :     0.008667

 16 C s       :     3.074755  s :     3.074755
      pz      :     0.975514  p :     2.473710
      px      :     0.739312
      py      :     0.758885
      dz2     :     0.005598  d :     0.065592
      dxz     :     0.011295
      dyz     :     0.010008
      dx2y2   :     0.018660
      dxy     :     0.020030

 17 O s       :     3.880250  s :     3.880250
      pz      :     1.799500  p :     4.607054
      px      :     1.576405
      py      :     1.231149
      dz2     :     0.003829  d :     0.026368
      dxz     :     0.003854
      dyz     :     0.004102
      dx2y2   :     0.007894
      dxy     :     0.006689

 18 C s       :     3.226510  s :     3.226510
      pz      :     1.096407  p :     2.831380
      px      :     1.017066
      py      :     0.717907
      dz2     :     0.010324  d :     0.063287
      dxz     :     0.008550
      dyz     :     0.015546
      dx2y2   :     0.016619
      dxy     :     0.012249

 19 C s       :     2.828673  s :     2.828673
      pz      :     0.634492  p :     2.110530
      px      :     0.835072
      py      :     0.640966
      dz2     :     0.031476  d :     0.137704
      dxz     :     0.029000
      dyz     :     0.026619
      dx2y2   :     0.029380
      dxy     :     0.021228

 20 F s       :     3.979009  s :     3.979009
      pz      :     1.904094  p :     5.304874
      px      :     1.913876
      py      :     1.486905
      dz2     :     0.002296  d :     0.016435
      dxz     :     0.000241
      dyz     :     0.003551
      dx2y2   :     0.006375
      dxy     :     0.003972

 21 F s       :     3.977616  s :     3.977616
      pz      :     1.576373  p :     5.299463
      px      :     1.869232
      py      :     1.853859
      dz2     :     0.005574  d :     0.016538
      dxz     :     0.004216
      dyz     :     0.004389
      dx2y2   :     0.001235
      dxy     :     0.001123

 22 F s       :     3.977421  s :     3.977421
      pz      :     1.681197  p :     5.299218
      px      :     1.743469
      py      :     1.874552
      dz2     :     0.003534  d :     0.016564
      dxz     :     0.005685
      dyz     :     0.002672
      dx2y2   :     0.002446
      dxy     :     0.002227

 23 C s       :     3.186780  s :     3.186780
      pz      :     1.077704  p :     2.903824
      px      :     0.858806
      py      :     0.967313
      dz2     :     0.004141  d :     0.047064
      dxz     :     0.007236
      dyz     :     0.007143
      dx2y2   :     0.015441
      dxy     :     0.013102

 24 Cls       :     5.924259  s :     5.924259
      pz      :     3.902307  p :    11.041493
      px      :     3.318564
      py      :     3.820623
      dz2     :     0.004334  d :     0.029427
      dxz     :     0.006759
      dyz     :     0.001374
      dx2y2   :     0.008332
      dxy     :     0.008629

 25 C s       :     3.201174  s :     3.201174
      pz      :     1.002116  p :     2.944152
      px      :     0.956589
      py      :     0.985448
      dz2     :     0.004151  d :     0.035338
      dxz     :     0.006393
      dyz     :     0.002585
      dx2y2   :     0.012002
      dxy     :     0.010207

 26 C s       :     3.270233  s :     3.270233
      pz      :     1.135071  p :     3.101468
      px      :     0.934307
      py      :     1.032090
      dz2     :     0.003140  d :     0.033849
      dxz     :     0.005542
      dyz     :     0.006699
      dx2y2   :     0.008764
      dxy     :     0.009705

 27 S s       :     5.811816  s :     5.811816
      pz      :     3.461398  p :     9.770473
      px      :     3.069429
      py      :     3.239645
      dz2     :     0.016409  d :     0.110073
      dxz     :     0.017499
      dyz     :     0.017869
      dx2y2   :     0.029320
      dxy     :     0.028976

 28 C s       :     2.965137  s :     2.965137
      pz      :     0.782267  p :     2.423890
      px      :     0.837124
      py      :     0.804499
      dz2     :     0.025942  d :     0.109016
      dxz     :     0.019187
      dyz     :     0.038962
      dx2y2   :     0.011196
      dxy     :     0.013729

 29 O s       :     3.884392  s :     3.884392
      pz      :     1.369266  p :     4.600208
      px      :     1.459199
      py      :     1.771743
      dz2     :     0.009502  d :     0.025228
      dxz     :     0.008461
      dyz     :     0.005942
      dx2y2   :     0.000674
      dxy     :     0.000650

 30 N s       :     3.609210  s :     3.609210
      pz      :     1.130231  p :     3.834473
      px      :     1.557253
      py      :     1.146990
      dz2     :     0.010268  d :     0.037401
      dxz     :     0.006087
      dyz     :     0.009035
      dx2y2   :     0.006352
      dxy     :     0.005659

 31 C s       :     3.270092  s :     3.270092
      pz      :     0.947530  p :     3.000735
      px      :     1.112374
      py      :     0.940830
      dz2     :     0.003182  d :     0.045141
      dxz     :     0.012862
      dyz     :     0.013727
      dx2y2   :     0.011418
      dxy     :     0.003952

 32 C s       :     2.847737  s :     2.847737
      pz      :     0.763576  p :     2.355411
      px      :     0.857001
      py      :     0.734834
      dz2     :     0.024488  d :     0.121870
      dxz     :     0.015912
      dyz     :     0.041325
      dx2y2   :     0.017262
      dxy     :     0.022883

 33 O s       :     3.886973  s :     3.886973
      pz      :     1.735401  p :     4.590497
      px      :     1.494465
      py      :     1.360631
      dz2     :     0.002988  d :     0.025598
      dxz     :     0.000895
      dyz     :     0.006288
      dx2y2   :     0.007170
      dxy     :     0.008257

 34 N s       :     3.612503  s :     3.612503
      pz      :     1.149868  p :     3.849975
      px      :     1.581810
      py      :     1.118297
      dz2     :     0.008482  d :     0.040070
      dxz     :     0.005884
      dyz     :     0.012162
      dx2y2   :     0.006031
      dxy     :     0.007510

 35 C s       :     3.278876  s :     3.278876
      pz      :     0.791777  p :     3.007642
      px      :     1.086728
      py      :     1.129137
      dz2     :     0.014140  d :     0.046005
      dxz     :     0.009564
      dyz     :     0.008437
      dx2y2   :     0.009567
      dxy     :     0.004298

 36 H s       :     0.832522  s :     0.832522

 37 H s       :     0.807307  s :     0.807307

 38 H s       :     0.816038  s :     0.816038

 39 H s       :     0.778947  s :     0.778947

 40 H s       :     0.814155  s :     0.814155

 41 H s       :     0.635181  s :     0.635181

 42 H s       :     0.844048  s :     0.844048

 43 H s       :     0.858258  s :     0.858258

 44 H s       :     0.832095  s :     0.832095

 45 H s       :     0.831259  s :     0.831259

 46 H s       :     0.846962  s :     0.846962

 47 H s       :     0.817721  s :     0.817721

 48 H s       :     0.808181  s :     0.808181

 49 H s       :     0.800436  s :     0.800436

 50 H s       :     0.819308  s :     0.819308

 51 H s       :     0.818628  s :     0.818628

 52 H s       :     0.815221  s :     0.815221

 53 H s       :     0.787812  s :     0.787812



                     *******************************
                     * LOEWDIN POPULATION ANALYSIS *
                     *******************************

----------------------
LOEWDIN ATOMIC CHARGES
----------------------
   0 C :   -0.361240
   1 C :    0.024414
   2 O :    0.000973
   3 C :    0.094612
   4 C :   -0.118354
   5 C :   -0.054445
   6 C :   -0.243867
   7 C :    0.154938
   8 O :   -0.259246
   9 N :   -0.200834
  10 C :   -0.078056
  11 N :   -0.189784
  12 C :   -0.006875
  13 C :   -0.024330
  14 C :   -0.108794
  15 C :   -0.167107
  16 C :    0.082611
  17 O :   -0.175223
  18 C :   -0.117370
  19 C :    0.303469
  20 F :   -0.109033
  21 F :   -0.108056
  22 F :   -0.107689
  23 C :   -0.104513
  24 Cl:    0.048600
  25 C :   -0.122016
  26 C :   -0.353923
  27 S :    0.419995
  28 C :    0.105914
  29 O :   -0.307976
  30 N :   -0.028130
  31 C :   -0.259833
  32 C :    0.143451
  33 O :   -0.313980
  34 N :   -0.023111
  35 C :   -0.261601
  36 H :    0.144165
  37 H :    0.152674
  38 H :    0.151621
  39 H :    0.175277
  40 H :    0.158188
  41 H :    0.280636
  42 H :    0.147759
  43 H :    0.139226
  44 H :    0.136766
  45 H :    0.137096
  46 H :    0.146591
  47 H :    0.161226
  48 H :    0.150573
  49 H :    0.155115
  50 H :    0.142002
  51 H :    0.143617
  52 H :    0.141399
  53 H :    0.162480

-------------------------------
LOEWDIN REDUCED ORBITAL CHARGES
-------------------------------
  0 C s       :     2.969911  s :     2.969911
      pz      :     1.124522  p :     3.323579
      px      :     1.138654
      py      :     1.060402
      dz2     :     0.013577  d :     0.067750
      dxz     :     0.009067
      dyz     :     0.012639
      dx2y2   :     0.018278
      dxy     :     0.014188

  1 C s       :     2.853568  s :     2.853568
      pz      :     0.976873  p :     2.953736
      px      :     1.037662
      py      :     0.939201
      dz2     :     0.037090  d :     0.168282
      dxz     :     0.022853
      dyz     :     0.061102
      dx2y2   :     0.025199
      dxy     :     0.022039

  2 O s       :     3.390737  s :     3.390737
      pz      :     1.623902  p :     4.514507
      px      :     1.626080
      py      :     1.264525
      dz2     :     0.014019  d :     0.093782
      dxz     :     0.008103
      dyz     :     0.033332
      dx2y2   :     0.013439
      dxy     :     0.024890

  3 C s       :     2.800161  s :     2.800161
      pz      :     0.993087  p :     2.882014
      px      :     1.002372
      py      :     0.886554
      dz2     :     0.045522  d :     0.223213
      dxz     :     0.026257
      dyz     :     0.071048
      dx2y2   :     0.039934
      dxy     :     0.040452

  4 C s       :     2.837948  s :     2.837948
      pz      :     1.022897  p :     3.162805
      px      :     1.093698
      py      :     1.046209
      dz2     :     0.032710  d :     0.117601
      dxz     :     0.013005
      dyz     :     0.036370
      dx2y2   :     0.017695
      dxy     :     0.017822

  5 C s       :     2.861825  s :     2.861825
      pz      :     1.030324  p :     3.084906
      px      :     1.030129
      py      :     1.024453
      dz2     :     0.031696  d :     0.107714
      dxz     :     0.014072
      dyz     :     0.028787
      dx2y2   :     0.015996
      dxy     :     0.017161

  6 C s       :     2.928290  s :     2.928290
      pz      :     1.091730  p :     3.232313
      px      :     1.035834
      py      :     1.104749
      dz2     :     0.019995  d :     0.083263
      dxz     :     0.010240
      dyz     :     0.017285
      dx2y2   :     0.016624
      dxy     :     0.019120

  7 C s       :     2.870309  s :     2.870309
      pz      :     0.804245  p :     2.746068
      px      :     0.977886
      py      :     0.963937
      dz2     :     0.013929  d :     0.228685
      dxz     :     0.013088
      dyz     :     0.042300
      dx2y2   :     0.064693
      dxy     :     0.094675

  8 O s       :     3.589772  s :     3.589772
      pz      :     1.403344  p :     4.618807
      px      :     1.767229
      py      :     1.448234
      dz2     :     0.006431  d :     0.050667
      dxz     :     0.000881
      dyz     :     0.012394
      dx2y2   :     0.017952
      dxy     :     0.013009

  9 N s       :     3.152380  s :     3.152380
      pz      :     1.569718  p :     3.980231
      px      :     1.198418
      py      :     1.212095
      dz2     :     0.007383  d :     0.068222
      dxz     :     0.011688
      dyz     :     0.005067
      dx2y2   :     0.023600
      dxy     :     0.020486

 10 C s       :     2.896144  s :     2.896144
      pz      :     1.015653  p :     3.013549
      px      :     0.958559
      py      :     1.039337
      dz2     :     0.017304  d :     0.168363
      dxz     :     0.028703
      dyz     :     0.022662
      dx2y2   :     0.057780
      dxy     :     0.041914

 11 N s       :     3.245414  s :     3.245414
      pz      :     1.234960  p :     3.860890
      px      :     1.121962
      py      :     1.503968
      dz2     :     0.011167  d :     0.083480
      dxz     :     0.015219
      dyz     :     0.010197
      dx2y2   :     0.016102
      dxy     :     0.030795

 12 C s       :     2.860016  s :     2.860016
      pz      :     0.986461  p :     3.003413
      px      :     0.984407
      py      :     1.032545
      dz2     :     0.014369  d :     0.143446
      dxz     :     0.021336
      dyz     :     0.021682
      dx2y2   :     0.043408
      dxy     :     0.042650

 13 C s       :     2.867429  s :     2.867429
      pz      :     0.985090  p :     3.056155
      px      :     1.025750
      py      :     1.045315
      dz2     :     0.007343  d :     0.100746
      dxz     :     0.011994
      dyz     :     0.013514
      dx2y2   :     0.032584
      dxy     :     0.035312

 14 C s       :     2.915899  s :     2.915899
      pz      :     0.975780  p :     3.108607
      px      :     1.074581
      py      :     1.058246
      dz2     :     0.006271  d :     0.084288
      dxz     :     0.006173
      dyz     :     0.013254
      dx2y2   :     0.028634
      dxy     :     0.029955

 15 C s       :     2.915724  s :     2.915724
      pz      :     1.041848  p :     3.169159
      px      :     1.051329
      py      :     1.075982
      dz2     :     0.007522  d :     0.082224
      dxz     :     0.013796
      dyz     :     0.004323
      dx2y2   :     0.032805
      dxy     :     0.023779

 16 C s       :     2.858341  s :     2.858341
      pz      :     0.984007  p :     2.903399
      px      :     0.943519
      py      :     0.975873
      dz2     :     0.012151  d :     0.155650
      dxz     :     0.023561
      dyz     :     0.021101
      dx2y2   :     0.048900
      dxy     :     0.049936

 17 O s       :     3.462320  s :     3.462320
      pz      :     1.787889  p :     4.651939
      px      :     1.576708
      py      :     1.287343
      dz2     :     0.007221  d :     0.060964
      dxz     :     0.006401
      dyz     :     0.010497
      dx2y2   :     0.019589
      dxy     :     0.017257

 18 C s       :     2.952239  s :     2.952239
      pz      :     1.131574  p :     3.031297
      px      :     1.067102
      py      :     0.832620
      dz2     :     0.020463  d :     0.133834
      dxz     :     0.016551
      dyz     :     0.030834
      dx2y2   :     0.037494
      dxy     :     0.028492

 19 C s       :     2.856174  s :     2.856174
      pz      :     0.778894  p :     2.511755
      px      :     0.942970
      py      :     0.789891
      dz2     :     0.076624  d :     0.328602
      dxz     :     0.068917
      dyz     :     0.061051
      dx2y2   :     0.073525
      dxy     :     0.048486

 20 F s       :     3.758536  s :     3.758536
      pz      :     1.901202  p :     5.319298
      px      :     1.905717
      py      :     1.512378
      dz2     :     0.004635  d :     0.031199
      dxz     :     0.000379
      dyz     :     0.005662
      dx2y2   :     0.013699
      dxy     :     0.006825

 21 F s       :     3.760570  s :     3.760570
      pz      :     1.596738  p :     5.316081
      px      :     1.867649
      py      :     1.851694
      dz2     :     0.010746  d :     0.031405
      dxz     :     0.008637
      dyz     :     0.008022
      dx2y2   :     0.002079
      dxy     :     0.001920

 22 F s       :     3.760276  s :     3.760276
[...]
      dz2     :     0.007560  d :     0.082902
      dxz     :     0.014418
      dyz     :     0.004810
      dx2y2   :     0.029230
      dxy     :     0.026883

 26 C s       :     2.981709  s :     2.981709
      pz      :     1.144918  p :     3.292925
      px      :     1.064655
      py      :     1.083353
      dz2     :     0.006210  d :     0.079289
      dxz     :     0.010763
      dyz     :     0.014328
      dx2y2   :     0.024019
      dxy     :     0.023968

 27 S s       :     5.529337  s :     5.529337
      pz      :     3.455205  p :     9.919564
      px      :     3.132498
      py      :     3.331861
      dz2     :     0.019424  d :     0.131103
      dxz     :     0.021113
      dyz     :     0.020257
      dx2y2   :     0.036081
      dxy     :     0.034228

 28 C s       :     2.819885  s :     2.819885
      pz      :     0.998624  p :     2.814102
      px      :     0.852493
      py      :     0.962985
      dz2     :     0.065627  d :     0.260100
      dxz     :     0.040686
      dyz     :     0.095816
      dx2y2   :     0.027539
      dxy     :     0.030431

 29 O s       :     3.579693  s :     3.579693
      pz      :     1.445633  p :     4.677875
      px      :     1.459793
      py      :     1.772449
      dz2     :     0.022614  d :     0.050408
      dxz     :     0.013488
      dyz     :     0.011992
      dx2y2   :     0.001139
      dxy     :     0.001175

 30 N s       :     3.085352  s :     3.085352
      pz      :     1.169682  p :     3.845293
      px      :     1.496819
      py      :     1.178792
      dz2     :     0.028032  d :     0.097485
      dxz     :     0.013056
      dyz     :     0.028527
      dx2y2   :     0.015641
      dxy     :     0.012228

 31 C s       :     2.971511  s :     2.971511
      pz      :     1.027479  p :     3.198973
      px      :     1.153485
      py      :     1.018008
      dz2     :     0.006434  d :     0.089349
      dxz     :     0.024810
      dyz     :     0.028425
      dx2y2   :     0.021692
      dxy     :     0.007988

 32 C s       :     2.802978  s :     2.802978
      pz      :     0.928017  p :     2.770735
      px      :     0.879973
      py      :     0.962745
      dz2     :     0.059240  d :     0.282836
      dxz     :     0.034195
      dyz     :     0.099690
      dx2y2   :     0.041422
      dxy     :     0.048290

 33 O s       :     3.586838  s :     3.586838
      pz      :     1.740324  p :     4.676690
      px      :     1.496063
      py      :     1.440304
      dz2     :     0.006476  d :     0.050452
      dxz     :     0.001479
      dyz     :     0.012435
      dx2y2   :     0.016615
      dxy     :     0.013446

 34 N s       :     3.062041  s :     3.062041
      pz      :     1.183596  p :     3.857658
      px      :     1.521499
      py      :     1.152563
      dz2     :     0.023427  d :     0.103412
      dxz     :     0.011945
      dyz     :     0.035335
      dx2y2   :     0.015609
      dxy     :     0.017095

 35 C s       :     2.971287  s :     2.971287
      pz      :     0.904568  p :     3.199297
      px      :     1.133856
      py      :     1.160873
      dz2     :     0.029411  d :     0.091018
      dxz     :     0.020159
      dyz     :     0.017231
      dx2y2   :     0.017449
      dxy     :     0.006769

 36 H s       :     0.855835  s :     0.855835

 37 H s       :     0.847326  s :     0.847326

 38 H s       :     0.848379  s :     0.848379

 39 H s       :     0.824723  s :     0.824723

 40 H s       :     0.841812  s :     0.841812

 41 H s       :     0.719364  s :     0.719364

 42 H s       :     0.852241  s :     0.852241

 43 H s       :     0.860774  s :     0.860774

 44 H s       :     0.863234  s :     0.863234

 45 H s       :     0.862904  s :     0.862904

 46 H s       :     0.853409  s :     0.853409

 47 H s       :     0.838774  s :     0.838774

 48 H s       :     0.849427  s :     0.849427

 49 H s       :     0.844885  s :     0.844885

 50 H s       :     0.857998  s :     0.857998

 51 H s       :     0.856383  s :     0.856383

 52 H s       :     0.858601  s :     0.858601

 53 H s       :     0.837520  s :     0.837520



                      *****************************
                      * MAYER POPULATION ANALYSIS *
                      *****************************

  NA   - Mulliken gross atomic population
  ZA   - Total nuclear charge
  QA   - Mulliken gross atomic charge
  VA   - Mayer's total valence
  BVA  - Mayer's bonded valence
  FA   - Mayer's free valence

  ATOM       NA         ZA         QA         VA         BVA        FA
  0 C      6.5312     6.0000    -0.5312     3.8328     3.8328    -0.0000
  1 C      5.7485     6.0000     0.2515     3.7303     3.7303    -0.0000
  2 O      8.4025     8.0000    -0.4025     2.2334     2.2334     0.0000
  3 C      5.5103     6.0000     0.4897     3.6145     3.6145    -0.0000
  4 C      5.9833     6.0000     0.0167     3.9087     3.9087     0.0000
  5 C      5.9857     6.0000     0.0143     3.9322     3.9322    -0.0000
  6 C      6.4427     6.0000    -0.4427     3.7642     3.7642    -0.0000
  7 C      5.4307     6.0000     0.5693     3.8750     3.8750    -0.0000
  8 O      8.4557     8.0000    -0.4557     2.0654     2.0654     0.0000
  9 N      7.6434     7.0000    -0.6434     2.9172     2.9172    -0.0000
 10 C      5.7407     6.0000     0.2593     3.8241     3.8241     0.0000
 11 N      7.4374     7.0000    -0.4374     2.9679     2.9679     0.0000
 12 C      5.7900     6.0000     0.2100     4.0130     4.0130     0.0000
 13 C      5.8745     6.0000     0.1255     3.9878     3.9878    -0.0000
 14 C      6.1667     6.0000    -0.1667     3.9051     3.9051    -0.0000
 15 C      6.2003     6.0000    -0.2003     3.8566     3.8566     0.0000
 16 C      5.6141     6.0000     0.3859     3.7880     3.7880     0.0000
 17 O      8.5137     8.0000    -0.5137     1.9748     1.9748    -0.0000
 18 C      6.1212     6.0000    -0.1212     3.7909     3.7909    -0.0000
 19 C      5.0769     6.0000     0.9231     3.9173     3.9173    -0.0000
 20 F      9.3003     9.0000    -0.3003     1.0578     1.0578    -0.0000
 21 F      9.2936     9.0000    -0.2936     1.0634     1.0634     0.0000
 22 F      9.2932     9.0000    -0.2932     1.0638     1.0638     0.0000
 23 C      6.1377     6.0000    -0.1377     3.9236     3.9236    -0.0000
 24 Cl    16.9952    17.0000     0.0048     1.1220     1.1220     0.0000
 25 C      6.1807     6.0000    -0.1807     3.8971     3.8971    -0.0000
 26 C      6.4056     6.0000    -0.4056     3.7603     3.7603    -0.0000
 27 S     15.6924    16.0000     0.3076     2.5540     2.5540     0.0000
 28 C      5.4980     6.0000     0.5020     3.8710     3.8710    -0.0000
 29 O      8.5098     8.0000    -0.5098     2.0311     2.0311    -0.0000
 30 N      7.4811     7.0000    -0.4811     3.0495     3.0495     0.0000
 31 C      6.3160     6.0000    -0.3160     3.7674     3.7674    -0.0000
 32 C      5.3250     6.0000     0.6750     3.9545     3.9545     0.0000
 33 O      8.5031     8.0000    -0.5031     2.0385     2.0385     0.0000
 34 N      7.5025     7.0000    -0.5025     3.0779     3.0779     0.0000
 35 C      6.3325     6.0000    -0.3325     3.7641     3.7641    -0.0000
 36 H      0.8325     1.0000     0.1675     0.9337     0.9337    -0.0000
 37 H      0.8073     1.0000     0.1927     0.9243     0.9243     0.0000
 38 H      0.8160     1.0000     0.1840     0.9287     0.9287     0.0000
 39 H      0.7789     1.0000     0.2211     0.9334     0.9334    -0.0000
 40 H      0.8142     1.0000     0.1858     0.9337     0.9337    -0.0000
 41 H      0.6352     1.0000     0.3648     0.8540     0.8540    -0.0000
 42 H      0.8440     1.0000     0.1560     0.9459     0.9459     0.0000
 43 H      0.8583     1.0000     0.1417     0.9389     0.9389    -0.0000
 44 H      0.8321     1.0000     0.1679     0.9281     0.9281     0.0000
 45 H      0.8313     1.0000     0.1687     0.9281     0.9281     0.0000
 46 H      0.8470     1.0000     0.1530     0.9416     0.9416    -0.0000
 47 H      0.8177     1.0000     0.1823     0.9370     0.9370     0.0000
 48 H      0.8082     1.0000     0.1918     0.9333     0.9333    -0.0000
 49 H      0.8004     1.0000     0.1996     0.9351     0.9351     0.0000
 50 H      0.8193     1.0000     0.1807     0.9273     0.9273    -0.0000
 51 H      0.8186     1.0000     0.1814     0.9298     0.9298    -0.0000
 52 H      0.8152     1.0000     0.1848     0.9230     0.9230    -0.0000
 53 H      0.7878     1.0000     0.2122     0.9330     0.9330    -0.0000

  Mayer bond orders larger than 0.100000
B(  0-C ,  1-C ) :   1.0365 B(  0-C , 36-H ) :   0.9350 B(  0-C , 37-H ) :   0.9202 
B(  0-C , 38-H ) :   0.9296 B(  1-C ,  2-O ) :   0.9880 B(  1-C ,  5-C ) :   1.5476 
B(  2-O ,  3-C ) :   1.0719 B(  3-C ,  4-C ) :   1.3690 B(  3-C , 34-N ) :   0.9813 
B(  4-C ,  5-C ) :   1.2840 B(  4-C , 28-C ) :   1.0844 B(  5-C ,  6-C ) :   0.9819 
B(  6-C ,  7-C ) :   0.9711 B(  6-C , 39-H ) :   0.8819 B(  6-C , 40-H ) :   0.9128 
B(  7-C ,  8-O ) :   1.8142 B(  7-C ,  9-N ) :   1.0233 B(  9-N , 10-C ) :   0.9535 
B(  9-N , 41-H ) :   0.7956 B( 10-C , 11-N ) :   1.4806 B( 10-C , 26-C ) :   0.1081 
B( 10-C , 27-S ) :   1.1813 B( 11-N , 12-C ) :   1.2870 B( 12-C , 13-C ) :   1.0542 
B( 12-C , 26-C ) :   1.5198 B( 13-C , 14-C ) :   1.4006 B( 13-C , 25-C ) :   1.3957 
B( 14-C , 15-C ) :   1.4128 B( 14-C , 42-H ) :   0.9117 B( 15-C , 16-C ) :   1.3589 
B( 15-C , 43-H ) :   0.9175 B( 16-C , 17-O ) :   0.9258 B( 16-C , 23-C ) :   1.3339 
B( 17-O , 18-C ) :   0.9057 B( 18-C , 19-C ) :   0.9629 B( 18-C , 44-H ) :   0.9031 
B( 18-C , 45-H ) :   0.9023 B( 19-C , 20-F ) :   0.9615 B( 19-C , 21-F ) :   0.9851 
B( 19-C , 22-F ) :   0.9855 B( 23-C , 24-Cl) :   1.0375 B( 23-C , 25-C ) :   1.4166 
B( 25-C , 46-H ) :   0.9117 B( 26-C , 27-S ) :   1.1029 B( 26-C , 47-H ) :   0.9016 
B( 28-C , 29-O ) :   1.7587 B( 28-C , 30-N ) :   0.9755 B( 30-N , 31-C ) :   0.9159 
B( 30-N , 32-C ) :   1.0379 B( 31-C , 48-H ) :   0.9270 B( 31-C , 49-H ) :   0.9234 
B( 31-C , 50-H ) :   0.9397 B( 32-C , 33-O ) :   1.7961 B( 32-C , 34-N ) :   1.0433 
B( 34-N , 35-C ) :   0.9250 B( 35-C , 51-H ) :   0.9316 B( 35-C , 52-H ) :   0.9354 
B( 35-C , 53-H ) :   0.9226 

-------
TIMINGS
-------

Total SCF time: 0 days 0 hours 5 min 35 sec 

Total time                  ....     335.649 sec
Sum of individual times     ....     334.919 sec  ( 99.8%)

SCF preparation             ....       0.333 sec  (  0.1%)
Fock matrix formation       ....     331.470 sec  ( 98.8%)
  Startup                   ....       0.111 sec  (  0.0% of F)
  Split-RI-J                ....      48.918 sec  ( 14.8% of F)
  Chain of spheres X        ....     251.409 sec  ( 75.8% of F)
  XC integration            ....      29.689 sec  (  9.0% of F)
    XC Preparation          ....       0.000 sec  (  0.0% of XC)
    Basis function eval.    ....      11.344 sec  ( 38.2% of XC)
    Density eval.           ....       6.700 sec  ( 22.6% of XC)
    XC-Functional eval.     ....       1.408 sec  (  4.7% of XC)
    XC-Potential eval.      ....       8.558 sec  ( 28.8% of XC)
Diagonalization             ....       0.000 sec  (  0.0%)
Density matrix formation    ....       0.640 sec  (  0.2%)
Total Energy calculation    ....       0.092 sec  (  0.0%)
Population analysis         ....       0.070 sec  (  0.0%)
Orbital Transformation      ....       0.290 sec  (  0.1%)
Orbital Orthonormalization  ....       0.000 sec  (  0.0%)
DIIS solution               ....       1.366 sec  (  0.4%)
SOSCF solution              ....       0.658 sec  (  0.2%)
Finished LeanSCF after 335.7 sec

Maximum memory used throughout the entire LEANSCF-calculation: 87.1 MB

-------------------------   --------------------
FINAL SINGLE POINT ENERGY     -2601.134602788803
-------------------------   --------------------


------------------------------------------------------------------------------
                              ORCA PROPERTY CALCULATIONS
------------------------------------------------------------------------------

GBWName                                 ... /home/nmrbox/aojoawo/Documents/ERDOS/inputs/CHEMBL3922771.gbw
Number of atoms                         ...     54
Number of basis functions               ...    548
Max core memory                         ...   1024 MB

Electric properties:
Dipole moment                           ... YES
Quadrupole moment                       ...  NO
Static polarizability (Dipole/Dipole)   ...  NO
Static polarizability (Dipole/Quad.)    ...  NO
Static polarizability (Quad./Quad.)     ...  NO
Static polarizability (Velocity)        ...  NO

Atomic electric properties:
Dipole moment                           ...  NO
Quadrupole moment                       ...  NO
Static polarizability                   ...  NO

Choice of electric origin               ... Center of mass
Position of electric origin             ...     1.934955    -0.089063     0.133895

General magnetic properties:
Magnetizability                         ...  NO

EPR properties:
g-Tensor (aka g-matrix)                 ...  NO
Zero-Field splitting spin-orbit         ...  NO
Zero-field splitting spin-spin          ...  NO
Hyperfine couplings                     ...  NO (   0 nuclei)
Quadrupole couplings                    ...  NO (   0 nuclei)
Contact density                         ...  NO (   0 nuclei)

NMR properties:
Chemical shifts                         ...  NO (   0 nuclei)
Spin-rotation constants                 ...  NO (   0 nuclei)
Spin-spin couplings                     ...  NO (   0 nuclei,    0 pairs)

Choice of magnetic origin               ... GIAO
Position of magnetic origin             ...     0.000000     0.000000     0.000000

Properties with geometric perturbations:
SCF Hessian                             ...  NO
IR spectrum                             ...  NO
VCD spectrum                            ...  NO
X-ray spectroscopy properties:
SCF XES/XAS/RIXS spectra                ...  NO


-------------
DIPOLE MOMENT
-------------

Method             : SCF
Type of density    : Electron Density
Multiplicity       :   1
Irrep              :   0
Energy             : -2601.1346027888034769 Eh
Relativity type    : 
Basis              : AO
                                X                 Y                 Z
Electronic contribution:     64.616183537       8.406932050       5.791414896
Nuclear contribution   :    -67.000443386      -8.136906699      -4.565169602
                        -----------------------------------------
Total Dipole Moment    :     -2.384259849       0.270025351       1.226245294
                        -----------------------------------------
Magnitude (a.u.)       :      2.694677391
Magnitude (Debye)      :      6.849325602



--------------------
Rotational spectrum 
--------------------
 
Rotational constants in cm-1:             0.004532             0.001153             0.000989 
Rotational constants in MHz :           135.856723            34.559720            29.648923 

Dipole components along the rotational axes: 
x,y,z [a.u.] :    -2.125385    -0.909370     1.384582 
x,y,z [Debye]:    -5.402301    -2.311436     3.519329 

 

Dipole moment calculation done in   0.0 sec 

Maximum memory used throughout the entire PROP-calculation: 43.0 MB

--------------------------------
SUGGESTED CITATIONS FOR THIS RUN
--------------------------------

Below you find a list of papers that are relevant to this ORCA run
We neither can nor want to force you to cite these papers, but we appreciate if you do
You receive ORCA, which is the product of decades of hard work by many enthusiastic individuals, for free
The only thing we kindly ask in return is that you cite our papers,
We deeply appreciate it, if you show your appreciation for ORCA by not just citing the generic ORCA reference.

Please note that relegating all ORCA citations to the supporting information does *not* help us.
SI sections are not indexed - citations you put there will not count into any citation statistics
But we need these citations in order to attract the funding resources that allow us to do what we are doing

Therefore, if you are a happy ORCA user, please consider citing a few of the papers listed below in the main body of your paper

In addition to the list printed below, the program has created the file /home/nmrbox/aojoawo/Documents/ERDOS/inputs/CHEMBL3922771.bibtex that contains the list in bibtex format
You can import this file easily into all common literature databanks and citation aid programs


List of essential papers. We consider these as the minimum necessary citations

  1. Neese,F.
     Software update: the ORCA program system, version 5.0
     WIRES Comput. Molec. Sci., 2022 12(1)e1606
     doi.org/10.1002/wcms.1606

List of papers to cite with high priority. The work reported in these papers was absolutely
necessary for this run to complete.
Our perspective: the developers of density functionals and basis sets usually get cited in chemistry papers
Good! But without the algorithms to do something with them, the functionals or basis sets would not do anything.
Hence, in our opinion, the algorithm design and method developments papers are equally worthy of getting cited

  1. Neese,F.
     An improvement of the resolution of the identity approximation for the formation of the Coulomb matrix
     J. Comp. Chem., 2003 24(14)1740-1747
     doi.org/10.1002/jcc.10318
  2. Neese,F.; Wennmohs,F.; Hansen,A.; Becker,U.
     Efficient, approximate and parallel Hartree-Fock and hybrid DFT calculations. A 'chain-of-spheres' algorithm for the Hartree-Fock exchange
     Chem. Phys., 2009 356(1-3)98-109
     doi.org/10.1016/j.chemphys.2008.10.036
  3. Helmich-Paris,B.; de Souza,B.; Neese,F.; Izsák,R.
     An improved chain of spheres for exchange algorithm
     J. Chem. Phys., 2021 155 104109
     doi.org/doi: 10.1063/5.0058766.
  4. Neese,F.
     The SHARK Integral Generation and Digestion System
     J. Comp. Chem., 2022  1-16
     doi.org/10.1002/jcc.26942

List of suggested additional citations. These are papers that are important in the 'surrounding' of 
of this run, or papers that preceded the highly important papers. If you like your results we are grateful for a citation.

  1. Izsak,R.; Neese,F.
     An overlap fitted chain of spheres exchange method
     J. Chem. Phys., 2011 135 144105
     doi.org/10.1063/1.3646921
  2. Izsak,R.; Hansen,A.; Neese,F.
     The resolution of identity and chain of spheres approximations for the LPNO-CCSD singles Fock term
     Molec. Phys., 2012 110 2413-2417
     doi.org/10.1080/00268976.2012.687466
  3. Neese,F.
     The ORCA program system
     WIRES Comput. Molec. Sci., 2012 2(1)73-78
     doi.org/10.1002/wcms.81
  4. Izsak,R.; Neese,F.; Klopper,W.
     Robust fitting techniques in the chain of spheres approximation to the Fock exchange: The role of the complementary space
     J. Chem. Phys., 2013 139 
     doi.org/10.1063/1.4819264
  5. Neese,F.
     Software update: the ORCA program system, version 4.0
     WIRES Comput. Molec. Sci., 2018 8(1)1-6
     doi.org/10.1002/wcms.1327
  6. Neese,F.; Wennmohs,F.; Becker,U.; Riplinger,C.
     The ORCA quantum chemistry program package
     J. Chem. Phys., 2020 152 Art. No. L224108
     doi.org/10.1063/5.0004608

List of optional additional citations

  1. Neese,F.
     Approximate second-order SCF convergence for spin unrestricted wavefunctions
     Chem. Phys. Lett., 2000 325(1-3)93-98
     doi.org/10.1016/s0009-2614(00)00662-x

Timings for individual modules:

Sum of individual times          ...      351.419 sec (=   5.857 min)
Startup calculation              ...       10.389 sec (=   0.173 min)   3.0 %
SCF iterations                   ...      340.862 sec (=   5.681 min)  97.0 %
Property calculations            ...        0.169 sec (=   0.003 min)   0.0 %
                             ****ORCA TERMINATED NORMALLY****
TOTAL RUN TIME: 0 days 0 hours 5 minutes 52 seconds 177 msec
