
                                 *****************
                                 * O   R   C   A *
                                 *****************

                                            #,                                       
                                            ###                                      
                                            ####                                     
                                            #####                                    
                                            ######                                   
                                           ########,                                 
                                     ,,################,,,,,                         
                               ,,#################################,,                 
                          ,,##########################################,,             
                       ,#########################################, ''#####,          
                    ,#############################################,,   '####,        
                  ,##################################################,,,,####,       
                ,###########''''           ''''###############################       
              ,#####''   ,,,,##########,,,,          '''####'''          '####       
            ,##' ,,,,###########################,,,                        '##       
           ' ,,###''''                  '''############,,,                           
         ,,##''                                '''############,,,,        ,,,,,,###''
      ,#''                                            '''#######################'''  
     '                                                          ''''####''''         
             ,#######,   #######,   ,#######,      ##                                
            ,#'     '#,  ##    ##  ,#'     '#,    #''#        ,####,   ,####,        
            ##       ##  ##   ,#'  ##            #'  '#       #'       #'  '#        
            ##       ##  #######   ##           ,######,      #####,   #    #        
            '#,     ,#'  ##    ##  '#,     ,#' ,#      #,     #,   #   #,  ,#        
             '#######'   ##     ##  '#######'  #'      '#     '####' # '####'        



                #########################################################
                #                        -***-                          #
                #          Department of theory and spectroscopy        #
                #                                                       #
                #                      Frank Neese                      #
                #                                                       #
                #     Directorship, Architecture, Infrastructure        #
                #                    SHARK, DRIVERS                     #
                #        Core code/Algorithms in most modules           #
                #                                                       #
                #        Max Planck Institute fuer Kohlenforschung      #
                #                Kaiser Wilhelm Platz 1                 #
                #                 D-45470 Muelheim/Ruhr                 #
                #                      Germany                          #
                #                                                       #
                #                  All rights reserved                  #
                #                        -***-                          #
                #########################################################


                         Program Version 6.0.0  -   RELEASE  -


 With contributions from (in alphabetic order):
   Daniel Aravena         : Magnetic Suceptibility
   Michael Atanasov       : Ab Initio Ligand Field Theory (pilot matlab implementation)
   Alexander A. Auer      : GIAO ZORA, VPT2 properties, NMR spectrum
   Ute Becker             : All parallelization in ORCA, NUMFREQ, NUMCALC
   Giovanni Bistoni       : ED, misc. LED, open-shell LED, HFLD
   Martin Brehm           : Molecular dynamics
   Dmytro Bykov           : pre 5.0 version of the SCF Hessian
   Marcos Casanova-Páez   : Triplet and SCS-CIS(D). UHF-(DLPNO)-IP/EA/STEOM-CCSD. UHF-CVS-IP/STEOM-CCSD
   Vijay G. Chilkuri      : MRCI spin determinant printing, contributions to CSF-ICE
   Pauline Colinet        : FMM embedding
   Dipayan Datta          : RHF DLPNO-CCSD density
   Achintya Kumar Dutta   : EOM-CC, STEOM-CC
   Nicolas Foglia         : Exact transition moments, OPA infrastructure, MCD improvements
   Dmitry Ganyushin       : Spin-Orbit,Spin-Spin,Magnetic field MRCI
   Miquel Garcia          : C-PCM and meta-GGA Hessian, CCSD/C-PCM, Gaussian charge scheme
   Tiago L. C. Gouveia    : GS-ROHF, GS-ROCIS
   Yang Guo               : DLPNO-NEVPT2, F12-NEVPT2, CIM, IAO-localization
   Andreas Hansen         : Spin unrestricted coupled pair/coupled cluster methods
   Ingolf Harden          : AUTO-CI MPn and infrastructure 
   Benjamin Helmich-Paris : MC-RPA, TRAH-(SCF,CASSCF), AVAS, COSX integrals, SCF dyn. polar.
   Lee Huntington         : MR-EOM, pCC
   Robert Izsak           : Overlap fitted RIJCOSX, COSX-SCS-MP3, EOM
   Riya Kayal             : Wick's Theorem for AUTO-CI, AUTO-CI UHF-CCSDT
   Emily Kempfer          : AUTO-CI, RHF CISDT and CCSDT
   Christian Kollmar      : KDIIS, OOCD, Brueckner-CCSD(T), CCSD density, CASPT2, CASPT2-K, improved NEVPT2
   Axel Koslowski         : Symmetry handling
   Simone Kossmann        : Meta GGA functionals, TD-DFT gradient, OOMP2, (MP2 Hessian; deprecated post 5.0)
   Lucas Lang             : DCDCAS
   Marvin Lechner         : AUTO-CI (C++ implementation), FIC-MRCC
   Spencer Leger          : CASSCF response
   Dagmar Lenk            : GEPOL surface, SMD, ORCA-2-JSON
   Dimitrios Liakos       : Extrapolation schemes; Compound Job, initial MDCI parallelization
   Dimitrios Manganas     : Further ROCIS development; embedding schemes. LFT, Crystal Embedding
   Dimitrios Pantazis     : SARC Basis sets
   Anastasios Papadopoulos: AUTO-CI, single reference methods and gradients
   Taras Petrenko         : pre 6.0 DFT Hessian and TD-DFT gradient, (ASA, deprecated), ECA, 1-Electron XAS/XES, NRVS
   Peter Pinski           : DLPNO-MP2, DLPNO-MP2 Gradient
   Christoph Reimann      : Effective Core Potentials
   Marius Retegan         : Local ZFS, SOC
   Christoph Riplinger    : Optimizer, TS searches, QM/MM, DLPNO-CCSD(T), (RO)-DLPNO pert. Triples
   Michael Roemelt        : Original ROCIS implementation
   Masaaki Saitow         : Open-shell DLPNO-CCSD energy and density
   Barbara Sandhoefer     : DKH picture change effects
   Kantharuban Sivalingam : CASSCF convergence/infrastructure, NEVPT2 and variants, FIC-MRCI
   Bernardo de Souza      : ESD, SOC TD-DFT
   Georgi Stoychev        : AutoAux, RI-MP2 NMR, DLPNO-MP2 response, X2C
   Van Anh Tran           : RI-MP2 g-tensors
   Willem Van den Heuvel  : Paramagnetic NMR
   Zikuan Wang            : NOTCH, Electric field optimization 
   Frank Wennmohs         : Technical directorship and infrastructure
   Hang Xu                : AUTO-CI-Response properties 


 We gratefully acknowledge several colleagues who have allowed us to
 interface, adapt or use parts of their codes:
   Stefan Grimme, W. Hujo, H. Kruse, P. Pracht,  : VdW corrections, initial TS optimization,
                  C. Bannwarth, S. Ehlert,         DFT functionals, gCP, sTDA/sTD-DF
                  L. Wittmann, M. Mueller
   Ed Valeev, F. Pavosevic, A. Kumar             : LibInt (2-el integral package), F12 methods
   Garnet Chan, S. Sharma, J. Yang, R. Olivares  : DMRG
   Ulf Ekstrom                                   : XCFun DFT Library
   Mihaly Kallay                                 : mrcc  (arbitrary order and MRCC methods)
   Frank Weinhold                                : gennbo (NPA and NBO analysis)
   Simon Mueller                                 : openCOSMO-RS
   Christopher J. Cramer and Donald G. Truhlar   : smd solvation model
   Lars Goerigk                                  : TD-DFT with DH, B97 family of functionals
   V. Asgeirsson, H. Jonsson                     : NEB implementation
   FAccTs GmbH                                   : IRC, NEB, NEB-TS, DLPNO-Multilevel, CI-OPT
                                                   MM, QMMM, 2- and 3-layer-ONIOM, Crystal-QMMM,
                                                   LR-CPCM, SF, NACMEs, symmetry and pop. for TD-DFT,
                                                   nearIR, NL-DFT gradient (VV10), updates on ESD,
                                                   ML-optimized integration grids, MBIS, APM,
                                                   GOAT, DOCKER, SOLVATOR, interface openCOSMO-RS
   S Lehtola, MJT Oliveira, MAL Marques          : LibXC Library
   Liviu Ungur et al                             : ANISO software


 Your calculation uses the libint2 library for the computation of 2-el integrals
 For citations please refer to: http://libint.valeyev.net

 Your ORCA version has been built with support for libXC version: 6.2.2
 For citations please refer to: https://libxc.gitlab.io

 This ORCA versions uses:
   CBLAS   interface :  Fast vector & matrix operations
   LAPACKE interface :  Fast linear algebra routines
   SCALAPACK package :  Parallel linear algebra routines
   Shared memory     :  Shared parallel matrices
   BLAS/LAPACK       :  OpenBLAS 0.3.27  USE64BITINT DYNAMIC_ARCH NO_AFFINITY SkylakeX SINGLE_THREADED
        Core in use  :  SkylakeX
   Copyright (c) 2011-2014, The OpenBLAS Project


Warning: RI is on but no J-basis has been assigned. Assigning Def2/J (nothing to worry about!)
================================================================================

----- Orbital basis set information -----
Your calculation utilizes the basis: 6-31G*
   H-He, Li-Ne : W. J. Hehre, R. Ditchfield and J.A. Pople, J. Chem. Phys. 56, 2257 (1972).
                 Note: He and Ne are unpublished basis sets taken from the Gaussian program.
                 Note: Li and B from J. D. Dill and J. A. Pople, J. Chem. Phys. 62, 2921 (1975).
   Na - Ar     : M. M. Francl, W. J. Pietro, W. J. Hehre, J. S. Binkley, M. S. Gordon, 
                 D. J. DeFrees and J. A. Pople, J. Chem. Phys. 77, 3654 (1982).
   K - Zn      : V. A. Rassolov, J. A. Pople, M. A. Ratner, and T. L. Windus, J. Chem. Phys. 109, 1223 (1998).

----- AuxJ basis set information -----
Your calculation utilizes the auxiliary basis: def2/J
   F. Weigend, Phys. Chem. Chem. Phys. 8, 1057 (2006).

================================================================================
                                        WARNINGS
                       Please study these warnings very carefully!
================================================================================


================================================================================
                                       INPUT FILE
================================================================================
NAME = /home/nmrbox/aojoawo/Documents/ERDOS/inputs/CHEMBL4247268.inp
|  1> ! B3LYP 6-31G* SP
|  2> 
|  3> * xyz 0 1
|  4> N 8.1467 1.3156 -0.7629
|  5> C 7.0110 1.0957 -0.7291
|  6> C 5.5983 0.8222 -0.6871
|  7> C 4.9025 0.5408 -1.8680
|  8> C 3.5302 0.2765 -1.8282
|  9> C 2.8364 0.2828 -0.6040
| 10> C 1.3798 0.0092 -0.5709
| 11> O 0.7055 0.1298 -1.6296
| 12> N 0.7444 -0.4485 0.6379
| 13> C -0.5737 -0.0176 1.1318
| 14> C -1.4256 0.7264 0.1072
| 15> C -1.1098 2.0644 -0.1914
| 16> C -1.8549 2.7839 -1.1288
| 17> C -2.9288 2.1792 -1.8005
| 18> C -3.7630 2.9703 -2.7763
| 19> F -2.9925 3.9267 -3.4149
| 20> F -4.7874 3.5992 -2.0939
| 21> F -4.3067 2.1392 -3.7405
| 22> C -3.2735 0.8568 -1.4785
| 23> C -2.5284 0.1355 -0.5416
| 24> C -1.3171 -1.1434 1.8408
| 25> N -2.0116 -0.7831 2.9582
| 26> C -2.7241 -1.6626 3.7037
| 27> C -2.7635 -3.0024 3.3443
| 28> C -2.0829 -3.4228 2.2056
| 29> C -1.3702 -2.5068 1.4050
| 30> C -0.6462 -3.0430 0.1796
| 31> F -0.7422 -2.1725 -0.8859
| 32> F 0.6850 -3.2560 0.4840
| 33> F -1.1904 -4.2474 -0.2339
| 34> C 3.5432 0.5776 0.5767
| 35> C 4.9156 0.8426 0.5342
| 36> H 5.4204 0.5256 -2.8196
| 37> H 3.0137 0.0577 -2.7546
| 38> H 1.3490 -0.9390 1.3350
| 39> H -0.3531 0.7304 1.9272
| 40> H -0.2768 2.5512 0.3013
| 41> H -1.5905 3.8149 -1.3278
| 42> H -4.1245 0.3802 -1.9489
| 43> H -2.8333 -0.8772 -0.3207
| 44> H -3.2526 -1.3193 4.5830
| 45> H -3.3176 -3.7127 3.9444
| 46> H -2.1201 -4.4747 1.9527
| 47> H 3.0368 0.6255 1.5318
| 48> H 5.4427 1.0689 1.4533
| 49> *
| 50> 
| 51>                          ****END OF INPUT****
================================================================================

                       ****************************
                       * Single Point Calculation *
                       ****************************

---------------------------------
CARTESIAN COORDINATES (ANGSTROEM)
---------------------------------
  N      8.146700    1.315600   -0.762900
  C      7.011000    1.095700   -0.729100
  C      5.598300    0.822200   -0.687100
  C      4.902500    0.540800   -1.868000
  C      3.530200    0.276500   -1.828200
  C      2.836400    0.282800   -0.604000
  C      1.379800    0.009200   -0.570900
  O      0.705500    0.129800   -1.629600
  N      0.744400   -0.448500    0.637900
  C     -0.573700   -0.017600    1.131800
  C     -1.425600    0.726400    0.107200
  C     -1.109800    2.064400   -0.191400
  C     -1.854900    2.783900   -1.128800
  C     -2.928800    2.179200   -1.800500
  C     -3.763000    2.970300   -2.776300
  F     -2.992500    3.926700   -3.414900
  F     -4.787400    3.599200   -2.093900
  F     -4.306700    2.139200   -3.740500
  C     -3.273500    0.856800   -1.478500
  C     -2.528400    0.135500   -0.541600
  C     -1.317100   -1.143400    1.840800
  N     -2.011600   -0.783100    2.958200
  C     -2.724100   -1.662600    3.703700
  C     -2.763500   -3.002400    3.344300
  C     -2.082900   -3.422800    2.205600
  C     -1.370200   -2.506800    1.405000
  C     -0.646200   -3.043000    0.179600
  F     -0.742200   -2.172500   -0.885900
  F      0.685000   -3.256000    0.484000
  F     -1.190400   -4.247400   -0.233900
  C      3.543200    0.577600    0.576700
  C      4.915600    0.842600    0.534200
  H      5.420400    0.525600   -2.819600
  H      3.013700    0.057700   -2.754600
  H      1.349000   -0.939000    1.335000
  H     -0.353100    0.730400    1.927200
  H     -0.276800    2.551200    0.301300
  H     -1.590500    3.814900   -1.327800
  H     -4.124500    0.380200   -1.948900
  H     -2.833300   -0.877200   -0.320700
  H     -3.252600   -1.319300    4.583000
  H     -3.317600   -3.712700    3.944400
  H     -2.120100   -4.474700    1.952700
  H      3.036800    0.625500    1.531800
  H      5.442700    1.068900    1.453300

----------------------------
CARTESIAN COORDINATES (A.U.)
----------------------------
  NO LB      ZA    FRAG     MASS         X           Y           Z
   0 N     7.0000    0    14.007   15.395032    2.486124   -1.441672
   1 C     6.0000    0    12.011   13.248870    2.070573   -1.377799
   2 C     6.0000    0    12.011   10.579254    1.553733   -1.298431
   3 C     6.0000    0    12.011    9.264382    1.021964   -3.530008
   4 C     6.0000    0    12.011    6.671111    0.522509   -3.454797
   5 C     6.0000    0    12.011    5.360019    0.534415   -1.141395
   6 C     6.0000    0    12.011    2.607444    0.017385   -1.078845
   7 O     8.0000    0    15.999    1.333202    0.245286   -3.079498
   8 N     7.0000    0    14.007    1.406712   -0.847542    1.205456
   9 C     6.0000    0    12.011   -1.084136   -0.033259    2.138792
  10 C     6.0000    0    12.011   -2.693994    1.372697    0.202579
  11 C     6.0000    0    12.011   -2.097218    3.901151   -0.361694
  12 C     6.0000    0    12.011   -3.505253    5.260809   -2.133123
  13 C     6.0000    0    12.011   -5.534630    4.118091   -3.402452
  14 C     6.0000    0    12.011   -7.111039    5.613054   -5.246447
  15 F     9.0000    0    18.998   -5.655005    7.420388   -6.453226
  16 F     9.0000    0    18.998   -9.046875    6.801502   -3.956898
  17 F     9.0000    0    18.998   -8.138484    4.042502   -7.068521
  18 C     6.0000    0    12.011   -6.186018    1.619117   -2.793960
  19 C     6.0000    0    12.011   -4.777984    0.256058   -1.023476
  20 C     6.0000    0    12.011   -2.488958   -2.160713    3.478608
  21 N     7.0000    0    14.007   -3.801373   -1.479845    5.590188
  22 C     6.0000    0    12.011   -5.147803   -3.141859    6.998979
  23 C     6.0000    0    12.011   -5.222258   -5.673714    6.319811
  24 C     6.0000    0    12.011   -3.936111   -6.468155    4.167980
  25 C     6.0000    0    12.011   -2.589303   -4.737165    2.655065
  26 C     6.0000    0    12.011   -1.221141   -5.750437    0.339395
  27 F     9.0000    0    18.998   -1.402555   -4.105430   -1.674108
  28 F     9.0000    0    18.998    1.294462   -6.152948    0.914627
  29 F     9.0000    0    18.998   -2.249530   -8.026423   -0.442007
  30 C     6.0000    0    12.011    6.695678    1.091506    1.089805
  31 C     6.0000    0    12.011    9.289138    1.592283    1.009492
  32 H     1.0000    0     1.008   10.243072    0.993240   -5.328272
  33 H     1.0000    0     1.008    5.695068    0.109037   -5.205440
  34 H     1.0000    0     1.008    2.549241   -1.774453    2.522784
  35 H     1.0000    0     1.008   -0.667262    1.380256    3.641880
  36 H     1.0000    0     1.008   -0.523076    4.821069    0.569374
  37 H     1.0000    0     1.008   -3.005609    7.209116   -2.509178
  38 H     1.0000    0     1.008   -7.794175    0.718474   -3.682887
  39 H     1.0000    0     1.008   -5.354161   -1.657668   -0.606035
  40 H     1.0000    0     1.008   -6.146523   -2.493116    8.660615
  41 H     1.0000    0     1.008   -6.269355   -7.015986    7.453836
  42 H     1.0000    0     1.008   -4.006408   -8.455958    3.690068
  43 H     1.0000    0     1.008    5.738720    1.182024    2.894682
  44 H     1.0000    0     1.008   10.285212    2.019928    2.746339

--------------------------------
INTERNAL COORDINATES (ANGSTROEM)
--------------------------------
 N      0   0   0     0.000000000000     0.00000000     0.00000000
 C      1   0   0     1.157286887509     0.00000000     0.00000000
 C      2   1   0     1.439544212590   179.99780803     0.00000000
 C      3   2   1     1.399231364000   120.10496625    44.32966432
 C      4   3   2     1.398086485165   120.13866639   180.06926507
 C      5   4   3     1.407147387447   120.52273758   359.63914086
 C      6   5   4     1.482442622836   120.20251489   179.65123648
 O      7   6   5     1.260979991911   119.27640916   340.89730693
 N      7   6   5     1.440284655893   120.72126654   158.08182597
 C      9   7   6     1.472073242064   125.70324211   140.04625885
 C     10   9   7     1.526130652991   114.66235754    14.13232241
 C     11  10   9     1.406817543251   118.74119516   284.12542992
 C     12  11  10     1.396987122346   120.83310288   179.56955019
 C     13  12  11     1.403604000422   120.48450693   359.44962668
 C     14  13  12     1.507950426904   120.45841244   177.83859706
 F     15  14  13     1.384261958590   110.67535395    32.29435480
 F     15  14  13     1.382237436188   109.22094794   272.26210096
 F     15  14  13     1.384203214850   110.67436071   152.22622836
 C     14  13  12     1.404009918056   118.93817242     2.38709615
 C     19  14  13     1.397579804519   120.59470082   357.56573710
 C     10   9   7     1.524057151159   112.12412970   145.58415888
 N     21  10   9     1.364085444538   115.74127124   140.56384214
 C     22  21  10     1.355340086473   123.14943704   180.04751622
 C     23  22  21     1.387726471607   119.93224850     0.36641578
 C     24  23  22     1.391614246119   119.32039745   359.05487413
 C     25  24  23     1.409949520373   121.03615970   359.18806171
 C     26  25  24     1.520950886781   117.97355561   179.72784506
 F     27  26  25     1.379230401347   111.51681278   141.32900384
 F     27  26  25     1.382071561099   109.59558246   262.79352854
 F     27  26  25     1.384815962502   111.10766168    22.16161676
 C      6   5   4     1.407311539781   118.89506828     0.86531244
 C     31   6   5     1.398396585379   120.47058729   359.18218033
 H      4   3   2     1.083510041486   120.42097296     0.07001571
 H      5   4   3     1.082987834650   118.81393591   180.22365072
 H      9   7   6     1.045026229336   116.98617507   335.80411950
 H     10   9   7     1.113925275770   104.99935653   259.16184415
 H     12  11  10     1.083335834356   120.22823795   359.94170725
 H     13  12  11     1.082806243056   118.91287866   179.42088974
 H     19  14  13     1.082877980199   120.52099253   177.27539902
 H     20  19  14     1.080426818438   118.05789390   179.66192871
 H     23  22  21     1.081820516537   119.86583875   179.76721358
 H     24  23  22     1.082438409333   120.29780218   179.01364766
 H     25  24  23     1.082513676588   117.89865729   179.33974156
 H     31   6   5     1.082105068836   120.98040930   177.85963493
 H     32  31   6     1.083416314258   119.42423257   179.91898440

---------------------------
INTERNAL COORDINATES (A.U.)
---------------------------
 N      0   0   0     0.000000000000     0.00000000     0.00000000
 C      1   0   0     2.186955275770     0.00000000     0.00000000
 C      2   1   0     2.720344319466   179.99780803     0.00000000
 C      3   2   1     2.644164075952   120.10496625    44.32966432
 C      4   3   2     2.642000568498   120.13866639   180.06926507
 C      5   4   3     2.659123192338   120.52273758   359.63914086
 C      6   5   4     2.801410566411   120.20251489   179.65123648
 O      7   6   5     2.382906845066   119.27640916   340.89730693
 N      7   6   5     2.721743554526   120.72126654   158.08182597
 C      9   7   6     2.781815276574   125.70324211   140.04625885
 C     10   9   7     2.883968978736   114.66235754    14.13232241
 C     11  10   9     2.658499877141   118.74119516   284.12542992
 C     12  11  10     2.639923073848   120.83310288   179.56955019
 C     13  12  11     2.652427161273   120.48450693   359.44962668
 C     14  13  12     2.849613330378   120.45841244   177.83859706
 F     15  14  13     2.615875999341   110.67535395    32.29435480
 F     15  14  13     2.612050206449   109.22094794   272.26210096
 F     15  14  13     2.615764989759   110.67436071   152.22622836
 C     14  13  12     2.653194234435   118.93817242     2.38709615
 C     19  14  13     2.641043080841   120.59470082   357.56573710
 C     10   9   7     2.880050628135   112.12412970   145.58415888
 N     21  10   9     2.577747913445   115.74127124   140.56384214
 C     22  21  10     2.561221581759   123.14943704   180.04751622
 C     23  22  21     2.622422980131   119.93224850     0.36641578
 C     24  23  22     2.629769809227   119.32039745   359.05487413
 C     25  24  23     2.664418456159   121.03615970   359.18806171
 C     26  25  24     2.874180639161   117.97355561   179.72784506
 F     27  26  25     2.606367734124   111.51681278   141.32900384
 F     27  26  25     2.611736747959   109.59558246   262.79352854
 F     27  26  25     2.616922915011   111.10766168    22.16161676
 C      6   5   4     2.659433395293   118.89506828     0.86531244
 C     31   6   5     2.642586572977   120.47058729   359.18218033
 H      4   3   2     2.047537241761   120.42097296     0.07001571
 H      5   4   3     2.046550413857   118.81393591   180.22365072
 H      9   7   6     1.974813376209   116.98617507   335.80411950
 H     10   9   7     2.105013704859   104.99935653   259.16184415
 H     12  11  10     2.047208037996   120.22823795   359.94170725
 H     13  12  11     2.046207255475   118.91287866   179.42088974
 H     19  14  13     2.046342819030   120.52099253   177.27539902
 H     20  19  14     2.041710794592   118.05789390   179.66192871
 H     23  22  21     2.044344502312   119.86583875   179.76721358
 H     24  23  22     2.045512150477   120.29780218   179.01364766
 H     25  24  23     2.045654384975   117.89865729   179.33974156
 H     31   6   5     2.044882228228   120.98040930   177.85963493
 H     32  31   6     2.047360122970   119.42423257   179.91898440

---------------------
BASIS SET INFORMATION
---------------------
There are 5 groups of distinct atoms

 Group   1 Type N   : 10s4p1d contracted to 3s2p1d pattern {631/31/1}
 Group   2 Type C   : 10s4p1d contracted to 3s2p1d pattern {631/31/1}
 Group   3 Type O   : 10s4p1d contracted to 3s2p1d pattern {631/31/1}
 Group   4 Type F   : 10s4p1d contracted to 3s2p1d pattern {631/31/1}
 Group   5 Type H   : 4s contracted to 2s pattern {31}

Atom   0N    basis set group =>   1
Atom   1C    basis set group =>   2
Atom   2C    basis set group =>   2
Atom   3C    basis set group =>   2
Atom   4C    basis set group =>   2
Atom   5C    basis set group =>   2
Atom   6C    basis set group =>   2
Atom   7O    basis set group =>   3
Atom   8N    basis set group =>   1
Atom   9C    basis set group =>   2
Atom  10C    basis set group =>   2
Atom  11C    basis set group =>   2
Atom  12C    basis set group =>   2
Atom  13C    basis set group =>   2
Atom  14C    basis set group =>   2
Atom  15F    basis set group =>   4
Atom  16F    basis set group =>   4
Atom  17F    basis set group =>   4
Atom  18C    basis set group =>   2
Atom  19C    basis set group =>   2
Atom  20C    basis set group =>   2
Atom  21N    basis set group =>   1
Atom  22C    basis set group =>   2
Atom  23C    basis set group =>   2
Atom  24C    basis set group =>   2
Atom  25C    basis set group =>   2
Atom  26C    basis set group =>   2
Atom  27F    basis set group =>   4
Atom  28F    basis set group =>   4
Atom  29F    basis set group =>   4
Atom  30C    basis set group =>   2
Atom  31C    basis set group =>   2
Atom  32H    basis set group =>   5
Atom  33H    basis set group =>   5
Atom  34H    basis set group =>   5
Atom  35H    basis set group =>   5
Atom  36H    basis set group =>   5
Atom  37H    basis set group =>   5
Atom  38H    basis set group =>   5
Atom  39H    basis set group =>   5
Atom  40H    basis set group =>   5
Atom  41H    basis set group =>   5
Atom  42H    basis set group =>   5
Atom  43H    basis set group =>   5
Atom  44H    basis set group =>   5
---------------------------------
AUXILIARY/J BASIS SET INFORMATION
---------------------------------
There are 5 groups of distinct atoms

 Group   1 Type N   : 12s5p4d2f1g contracted to 6s4p3d1f1g pattern {711111/2111/211/2/1}
 Group   2 Type C   : 12s5p4d2f1g contracted to 6s4p3d1f1g pattern {711111/2111/211/2/1}
 Group   3 Type O   : 12s5p4d2f1g contracted to 6s4p3d1f1g pattern {711111/2111/211/2/1}
 Group   4 Type F   : 12s5p4d2f1g contracted to 6s4p3d1f1g pattern {711111/2111/211/2/1}
 Group   5 Type H   : 5s2p1d contracted to 3s1p1d pattern {311/2/1}

Atom   0N    basis set group =>   1
Atom   1C    basis set group =>   2
Atom   2C    basis set group =>   2
Atom   3C    basis set group =>   2
Atom   4C    basis set group =>   2
Atom   5C    basis set group =>   2
Atom   6C    basis set group =>   2
Atom   7O    basis set group =>   3
Atom   8N    basis set group =>   1
Atom   9C    basis set group =>   2
Atom  10C    basis set group =>   2
Atom  11C    basis set group =>   2
Atom  12C    basis set group =>   2
Atom  13C    basis set group =>   2
Atom  14C    basis set group =>   2
Atom  15F    basis set group =>   4
Atom  16F    basis set group =>   4
Atom  17F    basis set group =>   4
Atom  18C    basis set group =>   2
Atom  19C    basis set group =>   2
Atom  20C    basis set group =>   2
Atom  21N    basis set group =>   1
Atom  22C    basis set group =>   2
Atom  23C    basis set group =>   2
Atom  24C    basis set group =>   2
Atom  25C    basis set group =>   2
Atom  26C    basis set group =>   2
Atom  27F    basis set group =>   4
Atom  28F    basis set group =>   4
Atom  29F    basis set group =>   4
Atom  30C    basis set group =>   2
Atom  31C    basis set group =>   2
Atom  32H    basis set group =>   5
Atom  33H    basis set group =>   5
Atom  34H    basis set group =>   5
Atom  35H    basis set group =>   5
Atom  36H    basis set group =>   5
Atom  37H    basis set group =>   5
Atom  38H    basis set group =>   5
Atom  39H    basis set group =>   5
Atom  40H    basis set group =>   5
Atom  41H    basis set group =>   5
Atom  42H    basis set group =>   5
Atom  43H    basis set group =>   5
Atom  44H    basis set group =>   5
------------------------------------------------------------------------------
                             ORCA STARTUP CALCULATIONS
                           -- RI-GTO INTEGRALS CHOSEN --
------------------------------------------------------------------------------
------------------------------------------------------------------------------
                   ___                                                        
                  /   \      - P O W E R E D   B Y -                         
                 /     \                                                     
                 |  |  |   _    _      __       _____    __    __             
                 |  |  |  | |  | |    /  \     |  _  \  |  |  /  |          
                  \  \/   | |  | |   /    \    | | | |  |  | /  /          
                 / \  \   | |__| |  /  /\  \   | |_| |  |  |/  /          
                |  |  |   |  __  | /  /__\  \  |    /   |      \           
                |  |  |   | |  | | |   __   |  |    \   |  |\   \          
                \     /   | |  | | |  |  |  |  | |\  \  |  | \   \       
                 \___/    |_|  |_| |__|  |__|  |_| \__\ |__|  \__/        
                                                                              
                      - O R C A' S   B I G   F R I E N D -                    
                                      &                                       
                       - I N T E G R A L  F E E D E R -                       
                                                                              
 v1 FN, 2020, v2 2021, v3 2022-2024                                           
------------------------------------------------------------------------------


----------------------
SHARK INTEGRAL PACKAGE
----------------------

Number of atoms                             ...     45
Number of basis functions                   ...    474
Number of shells                            ...    218
Maximum angular momentum                    ...      2
Integral batch strategy                     ... SHARK/LIBINT Hybrid
RI-J (if used) integral strategy            ... SPLIT-RIJ (Revised 2003 algorithm where possible)
Printlevel                                  ...      1
Contraction scheme used                     ... SEGMENTED contraction
Prescreening option                         ... SCHWARTZ
   Thresh                                   ... 1.000e-10
   Tcut                                     ... 1.000e-11
   Tpresel                                  ... 1.000e-11 
Coulomb Range Separation                    ... NOT USED
Exchange Range Separation                   ... NOT USED
Multipole approximations                    ... NOT USED
Finite Nucleus Model                        ... NOT USED
CABS basis                                  ... NOT available
Auxiliary Coulomb fitting basis             ... AVAILABLE
   # of basis functions in Aux-J            ...   1711
   # of shells in Aux-J                     ...    545
   Maximum angular momentum in Aux-J        ...      4
Auxiliary J/K fitting basis                 ... NOT available
Auxiliary Correlation fitting basis         ... NOT available
Auxiliary 'external' fitting basis          ... NOT available

Checking pre-screening integrals            ... done (  0.0 sec) Dimension = 218
Check shell pair data                       ... done (  0.0 sec)
Shell pair information
Shell pair cut-off parameter TPreSel        ...   1.0e-11
Total number of shell pairs                 ...     23871
Shell pairs after pre-screening             ...     13617
Total number of primitive shell pairs       ...    142489
Primitive shell pairs kept                  ...     42033
          la=0 lb=0:   4023 shell pairs
          la=1 lb=0:   4818 shell pairs
          la=1 lb=1:   1451 shell pairs
          la=2 lb=0:   1895 shell pairs
          la=2 lb=1:   1198 shell pairs
          la=2 lb=2:    232 shell pairs

Calculating one electron integrals          ... done (  0.2 sec)
Calculating RI/J V-Matrix + Cholesky decomp.... done (  0.3 sec)
Calculating Nuclear repulsion               ... done (  0.0 sec) ENN=   3153.943252939593 Eh

Diagonalization of the overlap matrix:
Smallest eigenvalue                        ... 4.365e-04
Time for diagonalization                   ...    0.037 sec
Threshold for overlap eigenvalues          ... 1.000e-07
Number of eigenvalues below threshold      ... 0
Time for construction of square roots      ...    0.027 sec
Total time needed                          ...    0.073 sec

-------------------
DFT GRID GENERATION
-------------------

General Integration Accuracy     IntAcc      ... 4.388
Radial Grid Type                 RadialGrid  ... OptM3 with GC (2021)
Angular Grid (max. ang.)         AngularGrid ... 4 (Lebedev-302)
Angular grid pruning method      GridPruning ... 4 (adaptive)
Weight generation scheme         WeightScheme... mBecke (2022)
Basis function cutoff            BFCut       ... 1.0000e-10
Integration weight cutoff        WCut        ... 1.0000e-14
Partially contracted basis set               ... off
Rotationally invariant grid construction     ... off
Angular grids for H and He will be reduced by one unit

Total number of grid points                  ...   233151
Total number of batches                      ...     3664
Average number of points per batch           ...       63
Average number of grid points per atom       ...     5181

--------------------
COSX GRID GENERATION
--------------------

GRIDX 1
-------
General Integration Accuracy     IntAcc      ... 3.816
Radial Grid Type                 RadialGrid  ... OptM3 with GC (2021)
Angular Grid (max. ang.)         AngularGrid ... 1 (Lebedev-50)
Angular grid pruning method      GridPruning ... 4 (adaptive)
Weight generation scheme         WeightScheme... mBecke (2022)
Basis function cutoff            BFCut       ... 1.0000e-10
Integration weight cutoff        WCut        ... 1.0000e-14
Partially contracted basis set               ... on
Rotationally invariant grid construction     ... off
Angular grids for H and He will be reduced by one unit

Total number of grid points                  ...    29458
Total number of batches                      ...      252
Average number of points per batch           ...      116
Average number of grid points per atom       ...      655
UseSFitting                                  ... on

GRIDX 2
-------
General Integration Accuracy     IntAcc      ... 4.020
Radial Grid Type                 RadialGrid  ... OptM3 with GC (2021)
Angular Grid (max. ang.)         AngularGrid ... 2 (Lebedev-110)
Angular grid pruning method      GridPruning ... 4 (adaptive)
Weight generation scheme         WeightScheme... mBecke (2022)
Basis function cutoff            BFCut       ... 1.0000e-10
Integration weight cutoff        WCut        ... 1.0000e-14
Partially contracted basis set               ... on
Rotationally invariant grid construction     ... off
Angular grids for H and He will be reduced by one unit

Total number of grid points                  ...    65910
Total number of batches                      ...      535
Average number of points per batch           ...      123
Average number of grid points per atom       ...     1465
UseSFitting                                  ... on

GRIDX 3
-------
General Integration Accuracy     IntAcc      ... 4.338
Radial Grid Type                 RadialGrid  ... OptM3 with GC (2021)
Angular Grid (max. ang.)         AngularGrid ... 3 (Lebedev-194)
Angular grid pruning method      GridPruning ... 4 (adaptive)
Weight generation scheme         WeightScheme... mBecke (2022)
Basis function cutoff            BFCut       ... 1.0000e-10
Integration weight cutoff        WCut        ... 1.0000e-14
Partially contracted basis set               ... on
Rotationally invariant grid construction     ... off
Angular grids for H and He will be reduced by one unit

Total number of grid points                  ...   144755
Total number of batches                      ...     1155
Average number of points per batch           ...      125
Average number of grid points per atom       ...     3217
UseSFitting                                  ... on
Initializing property integral containers    ... done (  0.0 sec)

SHARK setup successfully completed in  12.0 seconds

Maximum memory used throughout the entire STARTUP-calculation: 100.1 MB
-------------------------------------------------------------------------------
                                 ORCA GUESS
                   Start orbitals & Density for SCF / CASSCF
-------------------------------------------------------------------------------

------------
SCF SETTINGS
------------
Hamiltonian:
 Density Functional     Method          .... DFT(GTOs)
 Exchange Functional    Exchange        .... B88
   X-Alpha parameter    XAlpha          ....  0.666667
   Becke's b parameter  XBeta           ....  0.004200
 Correlation Functional Correlation     .... LYP
 LDA part of GGA corr.  LDAOpt          .... VWN-5
 Gradients option       PostSCFGGA      .... off
 Hybrid DFT is turned on
   Fraction HF Exchange ScalHFX         ....  0.200000
   Scaling of DF-GGA-X  ScalDFX         ....  0.720000
   Scaling of DF-GGA-C  ScalDFC         ....  0.810000
   Scaling of DF-LDA-C  ScalLDAC        ....  1.000000
   Perturbative correction              ....  0.000000
   NL short-range parameter             ....  4.800000
 RI-approximation to the Coulomb term is turned on
   Number of AuxJ basis functions       .... 1711
   RIJ-COSX (HFX calculated with COS-X)).... on


General Settings:
 Integral files         IntName         .... /home/nmrbox/aojoawo/Documents/ERDOS/inputs/CHEMBL4247268
 Hartree-Fock type      HFTyp           .... RHF
 Total Charge           Charge          ....    0
 Multiplicity           Mult            ....    1
 Number of Electrons    NEL             ....  228
 Basis Dimension        Dim             ....  474
 Nuclear Repulsion      ENuc            ....   3153.9432529396 Eh

Convergence Acceleration:
 AO-DIIS                CNVDIIS         .... on
   Start iteration      DIISMaxIt       ....    12
   Startup error        DIISStart       ....  0.200000
   # of expansion vecs  DIISMaxEq       ....     5
   Bias factor          DIISBfac        ....   1.050
   Max. coefficient     DIISMaxC        ....  10.000
 MO-DIIS                CNVKDIIS        .... off
 Trust-Rad. Augm. Hess. CNVTRAH         .... auto
   Auto Start mean grad. ratio tolernc. ....  1.125000
   Auto Start start iteration           ....    50
   Auto Start num. interpolation iter.  ....    10
   Max. Number of Micro iterations      ....    24
   Max. Number of Macro iterations      .... Maxiter - #DIIS iter
   Number of Davidson start vectors     ....     2
   Converg. threshold    (grad. norm)   ....   5.000e-05
   Grad. Scal. Fac. for Micro threshold ....   0.100
   Minimum threshold for Micro iter.    ....   1.000e-02
   NR start threshold (gradient norm)   ....   1.000e-04
   Initial trust radius                 ....   0.400
   Minimum AH scaling param. (alpha)    ....   1.000
   Maximum AH scaling param. (alpha)    .... 1000.000
   Quad. conv. algorithm                .... NR
   White noise on init. David. guess    .... on
   Maximum white noise                  ....   0.010
   Pseudo random numbers                .... off
   Inactive MOs                         .... canonical
   Orbital update algorithm             .... Taylor
   Preconditioner                       .... Diag
   Full preconditioner red. dimension   ....   250
 SOSCF                  CNVSOSCF        .... on
   Start iteration      SOSCFMaxIt      ....   150
   Startup grad/error   SOSCFStart      ....  0.003300
   Hessian update       SOSCFHessUp     .... L-BFGS
 Level Shifting         CNVShift        .... on
   Level shift para.    LevelShift      ....    0.2500
   Turn off err/grad.   ShiftErr        ....    0.0010
 Zerner damping         CNVZerner       .... off
 Static damping         CNVDamp         .... on
   Fraction old density DampFac         ....    0.7000
   Max. Damping (<1)    DampMax         ....    0.9800
   Min. Damping (>=0)   DampMin         ....    0.0000
   Turn off err/grad.   DampErr         ....    0.1000

SCF Procedure:
 Maximum # iterations   MaxIter         ....   125
 SCF integral mode      SCFMode         .... Direct
   Integral package                     .... SHARK and LIBINT hybrid scheme
 Reset frequency        DirectResetFreq ....    20
 Integral Threshold     Thresh          ....  1.000e-10 Eh
 Primitive CutOff       TCut            ....  1.000e-11 Eh

Convergence Tolerance:
 Convergence Check Mode ConvCheckMode   .... Total+1el-Energy
 Convergence forced     ConvForced      .... 0
 Energy Change          TolE            ....  1.000e-06 Eh
 1-El. energy change                    ....  1.000e-03 Eh
 Orbital Gradient       TolG            ....  5.000e-05
 Orbital Rotation angle TolX            ....  5.000e-05
 DIIS Error             TolErr          ....  1.000e-06

------------------------------
INITIAL GUESS: MODEL POTENTIAL
------------------------------
Loading Hartree-Fock densities                     ... done
Calculating cut-offs                               ... done
Initializing the effective Hamiltonian             ... done
Setting up the integral package (SHARK)            ... done
Starting the Coulomb interaction                   ... done (   3.0 sec)
Making the grid                                    ... done (   1.4 sec)
Mapping shells                                     ... done
Starting the XC term evaluation                    ... done (   1.1 sec)
  promolecular density results
     # of electrons  =    227.999871930
     EX              =   -205.045882904
     EC              =     -8.032993787
     EX+EC           =   -213.078876691
Transforming the Hamiltonian                       ... done (   0.0 sec)
Diagonalizing the Hamiltonian                      ... done (   0.0 sec)
Back transforming the eigenvectors                 ... done (   0.0 sec)
Now organizing SCF variables                       ... done
                      ------------------
                      INITIAL GUESS DONE (   5.7 sec)
                      ------------------
             **** ENERGY FILE WAS UPDATED (/home/nmrbox/aojoawo/Documents/ERDOS/inputs/CHEMBL4247268.en.tmp) ****
Finished Guess after   6.1 sec
Maximum memory used throughout the entire GUESS-calculation: 55.3 MB

-------------------------------------------------------------------------------------------
                                      ORCA LEAN-SCF
                              memory conserving SCF solver
-------------------------------------------------------------------------------------------

----------------------------------------D-I-I-S--------------------------------------------
Iteration    Energy (Eh)           Delta-E    RMSDP     MaxDP     DIISErr   Damp  Time(sec)
-------------------------------------------------------------------------------------------
               ***  Starting incremental Fock matrix formation  ***
    1    -1683.0884622152998418     0.00e+00  2.17e-03  1.13e-01  2.74e-01  0.700  60.4
    2    -1683.4244465605261212    -3.36e-01  1.36e-03  6.24e-02  9.78e-02  0.700  26.4
                               ***Turning on AO-DIIS***
    3    -1683.5415677955006686    -1.17e-01  5.38e-04  1.58e-02  3.68e-02  0.700  25.2
    4    -1683.6184895187379880    -7.69e-02  8.98e-04  3.16e-02  2.25e-02  0.000  23.4
    5    -1683.7908938661703360    -1.72e-01  2.07e-04  7.80e-03  6.66e-03  0.000  24.5
                              *** Initializing SOSCF ***
---------------------------------------S-O-S-C-F--------------------------------------
Iteration    Energy (Eh)           Delta-E    RMSDP     MaxDP     MaxGrad    Time(sec)
--------------------------------------------------------------------------------------
    6    -1683.7919767019984647    -1.08e-03  7.02e-05  3.19e-03  3.27e-03    20.9
               *** Restarting incremental Fock matrix formation ***
    7    -1683.7919705183394399     6.18e-06  6.54e-05  5.91e-03  6.05e-04    59.9
    8    -1683.7918929995303188     7.75e-05  4.51e-05  4.43e-03  1.67e-03    35.0
    9    -1683.7919921501234057    -9.92e-05  1.10e-05  6.38e-04  1.29e-04    31.2
   10    -1683.7919902917228683     1.86e-06  7.26e-06  4.35e-04  2.90e-04    25.2
   11    -1683.7919927818347787    -2.49e-06  2.36e-06  9.22e-05  3.15e-05    22.6
   12    -1683.7919926949825822     8.69e-08  1.52e-06  6.75e-05  6.62e-05    19.4
                 **** Energy Check signals convergence ****

               *****************************************************
               *                     SUCCESS                       *
               *           SCF CONVERGED AFTER  12 CYCLES          *
               *****************************************************

Recomputing exchange energy using gridx3       ... done (  105.903 sec)
Old exchange energy                            :    -41.393998042 Eh
New exchange energy                            :    -41.394022019 Eh
Exchange energy change after final integration :     -0.000023977 Eh
Total energy after final integration           :  -1683.792016672 Eh
             **** ENERGY FILE WAS UPDATED (/home/nmrbox/aojoawo/Documents/ERDOS/inputs/CHEMBL4247268.en.tmp) ****

----------------
TOTAL SCF ENERGY
----------------

Total Energy       :      -1683.79201667196571 Eh          -45818.31013 eV

Components:
Nuclear Repulsion  :       3153.94325293959264 Eh           85823.15908 eV
Electronic Energy  :      -4837.73524563457431 Eh         -131641.46856 eV
One Electron Energy:      -8585.01805277386848 Eh         -233610.21773 eV
Two Electron Energy:       3747.28280713929371 Eh          101968.74917 eV

Virial components:
Potential Energy   :      -3357.42959142832660 Eh          -91360.30385 eV
Kinetic Energy     :       1673.63757475636089 Eh           45541.99372 eV
Virial Ratio       :          2.00606728844331

DFT components:
N(Alpha)           :      113.999949269359 electrons
N(Beta)            :      113.999949269359 electrons
N(Total)           :      227.999898538718 electrons
E(X)               :     -164.624169735717 Eh       
E(C)               :       -9.434832438646 Eh       
E(XC)              :     -174.059002174363 Eh       

---------------
SCF CONVERGENCE
---------------

  Last Energy change         ...   -8.6852e-08  Tolerance :   1.0000e-06
  Last MAX-Density change    ...    6.7512e-05  Tolerance :   1.0000e-05
  Last RMS-Density change    ...    1.5154e-06  Tolerance :   1.0000e-06
  Last DIIS Error            ...    3.2655e-03  Tolerance :   1.0000e-06
  Last Orbital Gradient      ...    6.6240e-05  Tolerance :   5.0000e-05
  Last Orbital Rotation      ...    6.2413e-05  Tolerance :   5.0000e-05


----------------
ORBITAL ENERGIES
----------------

  NO   OCC          E(Eh)            E(eV) 
   0   2.0000     -24.730377      -672.9478 
   1   2.0000     -24.728917      -672.9080 
   2   2.0000     -24.724519      -672.7884 
   3   2.0000     -24.712447      -672.4599 
   4   2.0000     -24.712408      -672.4588 
   5   2.0000     -24.709360      -672.3759 
   6   2.0000     -19.124834      -520.4132 
   7   2.0000     -14.365992      -390.9185 
   8   2.0000     -14.353904      -390.5896 
   9   2.0000     -14.340402      -390.2222 
  10   2.0000     -10.448403      -284.3155 
  11   2.0000     -10.427556      -283.7482 
  12   2.0000     -10.304158      -280.3904 
  13   2.0000     -10.265167      -279.3294 
  14   2.0000     -10.255856      -279.0760 
  15   2.0000     -10.246572      -278.8234 
  16   2.0000     -10.246078      -278.8100 
  17   2.0000     -10.239995      -278.6444 
  18   2.0000     -10.231175      -278.4044 
  19   2.0000     -10.229117      -278.3484 
  20   2.0000     -10.226194      -278.2689 
  21   2.0000     -10.221785      -278.1489 
  22   2.0000     -10.220043      -278.1015 
  23   2.0000     -10.219561      -278.0884 
  24   2.0000     -10.216567      -278.0069 
  25   2.0000     -10.214464      -277.9497 
  26   2.0000     -10.211416      -277.8668 
  27   2.0000     -10.206895      -277.7437 
  28   2.0000     -10.196751      -277.4677 
  29   2.0000     -10.196216      -277.4531 
  30   2.0000     -10.194890      -277.4171 
  31   2.0000     -10.193073      -277.3676 
  32   2.0000      -1.290921       -35.1278 
  33   2.0000      -1.272437       -34.6248 
  34   2.0000      -1.215947       -33.0876 
  35   2.0000      -1.212257       -32.9872 
  36   2.0000      -1.197784       -32.5934 
  37   2.0000      -1.196970       -32.5712 
  38   2.0000      -1.023493       -27.8507 
  39   2.0000      -0.961282       -26.1578 
  40   2.0000      -0.920663       -25.0525 
  41   2.0000      -0.914353       -24.8808 
  42   2.0000      -0.885904       -24.1067 
  43   2.0000      -0.865967       -23.5642 
  44   2.0000      -0.835937       -22.7470 
  45   2.0000      -0.816142       -22.2083 
  46   2.0000      -0.798704       -21.7338 
  47   2.0000      -0.785571       -21.3765 
  48   2.0000      -0.777485       -21.1565 
  49   2.0000      -0.754890       -20.5416 
  50   2.0000      -0.735358       -20.0101 
  51   2.0000      -0.710477       -19.3331 
  52   2.0000      -0.686216       -18.6729 
  53   2.0000      -0.672360       -18.2958 
  54   2.0000      -0.650486       -17.7006 
  55   2.0000      -0.640622       -17.4322 
  56   2.0000      -0.635829       -17.3018 
  57   2.0000      -0.619740       -16.8640 
  58   2.0000      -0.609749       -16.5921 
  59   2.0000      -0.583772       -15.8853 
  60   2.0000      -0.581390       -15.8204 
  61   2.0000      -0.576050       -15.6751 
  62   2.0000      -0.574264       -15.6265 
  63   2.0000      -0.569979       -15.5099 
  64   2.0000      -0.563429       -15.3317 
  65   2.0000      -0.560085       -15.2407 
  66   2.0000      -0.555596       -15.1185 
  67   2.0000      -0.545028       -14.8310 
  68   2.0000      -0.524152       -14.2629 
  69   2.0000      -0.515596       -14.0301 
  70   2.0000      -0.495712       -13.4890 
  71   2.0000      -0.489595       -13.3226 
  72   2.0000      -0.478563       -13.0224 
  73   2.0000      -0.474304       -12.9065 
  74   2.0000      -0.464376       -12.6363 
  75   2.0000      -0.462076       -12.5737 
  76   2.0000      -0.458607       -12.4793 
  77   2.0000      -0.456277       -12.4159 
  78   2.0000      -0.451129       -12.2758 
  79   2.0000      -0.446377       -12.1465 
  80   2.0000      -0.441139       -12.0040 
  81   2.0000      -0.438864       -11.9421 
  82   2.0000      -0.436217       -11.8701 
  83   2.0000      -0.431574       -11.7437 
  84   2.0000      -0.429750       -11.6941 
  85   2.0000      -0.425919       -11.5898 
  86   2.0000      -0.423469       -11.5232 
  87   2.0000      -0.416924       -11.3451 
  88   2.0000      -0.415759       -11.3134 
  89   2.0000      -0.413820       -11.2606 
  90   2.0000      -0.411563       -11.1992 
  91   2.0000      -0.405063       -11.0223 
  92   2.0000      -0.402248       -10.9457 
  93   2.0000      -0.399560       -10.8726 
  94   2.0000      -0.394061       -10.7229 
  95   2.0000      -0.391159       -10.6440 
  96   2.0000      -0.382503       -10.4084 
  97   2.0000      -0.381680       -10.3860 
  98   2.0000      -0.376466       -10.2442 
  99   2.0000      -0.364735        -9.9249 
 100   2.0000      -0.361923        -9.8484 
 101   2.0000      -0.354052        -9.6343 
 102   2.0000      -0.351860        -9.5746 
 103   2.0000      -0.344231        -9.3670 
 104   2.0000      -0.337021        -9.1708 
 105   2.0000      -0.308919        -8.4061 
 106   2.0000      -0.291514        -7.9325 
 107   2.0000      -0.282361        -7.6834 
 108   2.0000      -0.278457        -7.5772 
 109   2.0000      -0.272741        -7.4217 
 110   2.0000      -0.265851        -7.2342 
 111   2.0000      -0.257842        -7.0162 
 112   2.0000      -0.254330        -6.9207 
 113   2.0000      -0.242937        -6.6107 
 114   0.0000      -0.079961        -2.1759 
 115   0.0000      -0.056878        -1.5477 
 116   0.0000      -0.051297        -1.3959 
 117   0.0000      -0.033429        -0.9097 
 118   0.0000      -0.025533        -0.6948 
 119   0.0000      -0.008917        -0.2427 
 120   0.0000       0.007341         0.1998 
 121   0.0000       0.033454         0.9103 
 122   0.0000       0.060671         1.6509 
 123   0.0000       0.084707         2.3050 
 124   0.0000       0.085648         2.3306 
*Only the first 10 virtual orbitals were printed.

                    ********************************
                    * MULLIKEN POPULATION ANALYSIS *
                    ********************************

-----------------------
MULLIKEN ATOMIC CHARGES
-----------------------
   0 N :   -0.298309
   1 C :    0.086655
   2 C :    0.130124
   3 C :   -0.140242
   4 C :   -0.152342
   5 C :    0.096886
   6 C :    0.498150
   7 O :   -0.451341
   8 N :   -0.643886
   9 C :   -0.060499
  10 C :    0.178540
  11 C :   -0.152890
  12 C :   -0.156487
  13 C :   -0.006762
  14 C :    0.892521
  15 F :   -0.305706
  16 F :   -0.298142
  17 F :   -0.305469
  18 C :   -0.166357
  19 C :   -0.144936
  20 C :    0.193338
  21 N :   -0.399786
  22 C :    0.027213
  23 C :   -0.132525
  24 C :   -0.130138
  25 C :   -0.081816
  26 C :    0.941233
  27 F :   -0.279682
  28 F :   -0.304827
  29 F :   -0.305651
  30 C :   -0.179009
  31 C :   -0.139462
  32 H :    0.166805
  33 H :    0.178888
  34 H :    0.320478
  35 H :    0.172453
  36 H :    0.131766
  37 H :    0.151034
  38 H :    0.150970
  39 H :    0.131264
  40 H :    0.164020
  41 H :    0.149981
  42 H :    0.171035
  43 H :    0.141148
  44 H :    0.161764
Sum of atomic charges:    0.0000000

--------------------------------
MULLIKEN REDUCED ORBITAL CHARGES
--------------------------------
  0 N s       :     3.728255  s :     3.728255
      pz      :     1.053557  p :     3.529439
      px      :     1.396720
      py      :     1.079162
      dz2     :     0.003270  d :     0.040615
      dxz     :     0.013447
      dyz     :     0.000516
      dx2y2   :     0.010325
      dxy     :     0.013057

  1 C s       :     3.080312  s :     3.080312
      pz      :     0.945758  p :     2.791013
      px      :     0.904253
      py      :     0.941002
      dz2     :     0.003232  d :     0.042020
      dxz     :     0.013023
      dyz     :     0.000555
      dx2y2   :     0.010634
      dxy     :     0.014575

  2 C s       :     3.093903  s :     3.093903
      pz      :     0.885619  p :     2.732955
      px      :     0.844509
      py      :     1.002828
      dz2     :     0.011630  d :     0.043018
      dxz     :     0.012540
      dyz     :     0.006839
      dx2y2   :     0.006736
      dxy     :     0.005275

  3 C s       :     3.204087  s :     3.204087
      pz      :     0.965376  p :     2.900136
      px      :     0.966245
      py      :     0.968515
      dz2     :     0.009275  d :     0.036019
      dxz     :     0.013276
      dyz     :     0.003414
      dx2y2   :     0.005027
      dxy     :     0.005028

  4 C s       :     3.223496  s :     3.223496
      pz      :     1.006568  p :     2.893371
      px      :     0.944559
      py      :     0.942244
      dz2     :     0.009306  d :     0.035475
      dxz     :     0.012540
      dyz     :     0.003819
      dx2y2   :     0.004769
      dxy     :     0.005041

  5 C s       :     3.161277  s :     3.161277
      pz      :     0.848333  p :     2.703040
      px      :     0.879857
      py      :     0.974850
      dz2     :     0.010714  d :     0.038797
      dxz     :     0.011505
      dyz     :     0.006209
      dx2y2   :     0.005942
      dxy     :     0.004427

  6 C s       :     3.032804  s :     3.032804
      pz      :     0.723844  p :     2.369473
      px      :     0.836861
      py      :     0.808768
      dz2     :     0.034216  d :     0.099573
      dxz     :     0.026723
      dyz     :     0.018509
      dx2y2   :     0.011218
      dxy     :     0.008907

  7 O s       :     3.898967  s :     3.898967
      pz      :     1.431196  p :     4.526464
      px      :     1.656173
      py      :     1.439096
      dz2     :     0.007347  d :     0.025910
      dxz     :     0.007326
      dyz     :     0.006212
      dx2y2   :     0.001983
      dxy     :     0.003043

  8 N s       :     3.613504  s :     3.613504
      pz      :     1.249967  p :     4.001448
      px      :     1.188190
      py      :     1.563292
      dz2     :     0.004006  d :     0.028934
      dxz     :     0.010949
      dyz     :     0.005294
      dx2y2   :     0.003324
      dxy     :     0.005360

  9 C s       :     3.196149  s :     3.196149
      pz      :     1.007694  p :     2.805466
      px      :     0.828940
      py      :     0.968832
      dz2     :     0.007332  d :     0.058883
      dxz     :     0.010789
      dyz     :     0.015511
      dx2y2   :     0.012289
      dxy     :     0.012961

 10 C s       :     3.123322  s :     3.123322
      pz      :     0.881947  p :     2.658519
      px      :     0.894060
      py      :     0.882512
      dz2     :     0.005475  d :     0.039619
      dxz     :     0.006804
      dyz     :     0.008631
      dx2y2   :     0.009329
      dxy     :     0.009381

 11 C s       :     3.199360  s :     3.199360
      pz      :     0.985637  p :     2.917777
      px      :     0.981887
      py      :     0.950253
      dz2     :     0.004991  d :     0.035754
      dxz     :     0.006111
      dyz     :     0.007700
      dx2y2   :     0.007664
      dxy     :     0.009287

 12 C s       :     3.200334  s :     3.200334
      pz      :     0.960172  p :     2.920151
      px      :     0.967100
      py      :     0.992878
      dz2     :     0.007257  d :     0.036002
      dxz     :     0.005878
      dyz     :     0.005913
      dx2y2   :     0.009811
      dxy     :     0.007142

 13 C s       :     3.158093  s :     3.158093
      pz      :     0.969366  p :     2.810528
      px      :     0.934832
      py      :     0.906330
      dz2     :     0.004642  d :     0.038140
      dxz     :     0.006586
      dyz     :     0.009002
      dx2y2   :     0.008047
      dxy     :     0.009863

 14 C s       :     2.805577  s :     2.805577
      pz      :     0.749610  p :     2.163927
      px      :     0.713758
      py      :     0.700558
      dz2     :     0.020440  d :     0.137976
      dxz     :     0.031341
      dyz     :     0.032768
      dx2y2   :     0.020588
      dxy     :     0.032839

 15 F s       :     3.980159  s :     3.980159
      pz      :     1.818795  p :     5.309249
      px      :     1.779773
      py      :     1.710682
      dz2     :     0.002146  d :     0.016298
      dxz     :     0.002806
      dyz     :     0.003877
      dx2y2   :     0.002833
      dxy     :     0.004637

 16 F s       :     3.976048  s :     3.976048
      pz      :     1.811306  p :     5.305798
      px      :     1.676133
      py      :     1.818359
      dz2     :     0.002126  d :     0.016296
      dxz     :     0.004639
      dyz     :     0.002395
      dx2y2   :     0.002986
      dxy     :     0.004150

 17 F s       :     3.980111  s :     3.980111
      pz      :     1.705709  p :     5.309059
      px      :     1.845203
      py      :     1.758146
      dz2     :     0.003144  d :     0.016299
      dxz     :     0.003390
      dyz     :     0.005200
      dx2y2   :     0.002034
      dxy     :     0.002531

 18 C s       :     3.204318  s :     3.204318
      pz      :     0.973284  p :     2.926001
      px      :     0.994578
      py      :     0.958140
      dz2     :     0.005420  d :     0.036037
      dxz     :     0.005965
      dyz     :     0.007576
      dx2y2   :     0.007970
      dxy     :     0.009106

 19 C s       :     3.195498  s :     3.195498
      pz      :     0.959634  p :     2.913749
      px      :     0.971442
      py      :     0.982673
      dz2     :     0.006633  d :     0.035689
      dxz     :     0.005957
      dyz     :     0.005968
      dx2y2   :     0.009215
      dxy     :     0.007917

 20 C s       :     3.119080  s :     3.119080
      pz      :     0.852596  p :     2.631362
      px      :     0.873760
      py      :     0.905007
      dz2     :     0.011407  d :     0.056219
      dxz     :     0.008896
      dyz     :     0.016501
      dx2y2   :     0.008745
      dxy     :     0.010671

 21 N s       :     3.687237  s :     3.687237
      pz      :     1.073178  p :     3.677588
      px      :     1.065711
      py      :     1.538699
      dz2     :     0.007155  d :     0.034961
      dxz     :     0.005301
      dyz     :     0.009176
      dx2y2   :     0.005318
      dxy     :     0.008011

 22 C s       :     3.143278  s :     3.143278
      pz      :     0.934554  p :     2.775499
      px      :     0.914867
      py      :     0.926078
      dz2     :     0.010398  d :     0.054011
      dxz     :     0.008692
      dyz     :     0.013083
      dx2y2   :     0.010858
      dxy     :     0.010980

 23 C s       :     3.194876  s :     3.194876
      pz      :     0.964508  p :     2.902487
      px      :     0.983853
      py      :     0.954127
      dz2     :     0.006115  d :     0.035162
      dxz     :     0.005495
      dyz     :     0.010372
      dx2y2   :     0.005840
      dxy     :     0.007342

 24 C s       :     3.203451  s :     3.203451
      pz      :     0.945005  p :     2.890469
      px      :     0.944631
      py      :     1.000833
      dz2     :     0.008384  d :     0.036218
      dxz     :     0.005491
      dyz     :     0.008667
      dx2y2   :     0.008977
      dxy     :     0.004699

 25 C s       :     3.184495  s :     3.184495
      pz      :     0.951207  p :     2.861432
      px      :     1.000401
      py      :     0.909824
      dz2     :     0.006930  d :     0.035889
      dxz     :     0.005595
      dyz     :     0.009722
      dx2y2   :     0.006856
      dxy     :     0.006786

 26 C s       :     2.794899  s :     2.794899
      pz      :     0.811660  p :     2.124760
      px      :     0.681869
      py      :     0.631231
      dz2     :     0.025525  d :     0.139108
      dxz     :     0.024472
      dyz     :     0.030908
      dx2y2   :     0.031900
      dxy     :     0.026303

 27 F s       :     3.987594  s :     3.987594
      pz      :     1.650803  p :     5.274689
      px      :     1.894432
      py      :     1.729454
      dz2     :     0.004316  d :     0.017399
      dxz     :     0.002591
      dyz     :     0.006605
      dx2y2   :     0.002145
      dxy     :     0.001742

 28 F s       :     3.981040  s :     3.981040
      pz      :     1.896666  p :     5.307469
      px      :     1.515042
      py      :     1.895762
      dz2     :     0.001993  d :     0.016318
      dxz     :     0.004369
      dyz     :     0.000498
      dx2y2   :     0.005765
      dxy     :     0.003692

 29 F s       :     3.982317  s :     3.982317
      pz      :     1.869234  p :     5.307070
      px      :     1.844689
      py      :     1.593148
      dz2     :     0.002237  d :     0.016264
      dxz     :     0.001190
      dyz     :     0.004090
      dx2y2   :     0.004145
      dxy     :     0.004603

 30 C s       :     3.209252  s :     3.209252
      pz      :     0.983706  p :     2.934005
      px      :     0.969273
      py      :     0.981026
      dz2     :     0.009664  d :     0.035752
      dxz     :     0.012720
      dyz     :     0.003116
      dx2y2   :     0.005107
      dxy     :     0.005146

 31 C s       :     3.200817  s :     3.200817
      pz      :     0.964327  p :     2.902665
      px      :     0.963317
      py      :     0.975021
      dz2     :     0.009015  d :     0.035981
      dxz     :     0.013000
      dyz     :     0.003981
      dx2y2   :     0.004768
      dxy     :     0.005216

 32 H s       :     0.833195  s :     0.833195

 33 H s       :     0.821112  s :     0.821112

 34 H s       :     0.679522  s :     0.679522

 35 H s       :     0.827547  s :     0.827547

 36 H s       :     0.868234  s :     0.868234

 37 H s       :     0.848966  s :     0.848966

 38 H s       :     0.849030  s :     0.849030

 39 H s       :     0.868736  s :     0.868736

 40 H s       :     0.835980  s :     0.835980

 41 H s       :     0.850019  s :     0.850019

 42 H s       :     0.828965  s :     0.828965

 43 H s       :     0.858852  s :     0.858852

 44 H s       :     0.838236  s :     0.838236



                     *******************************
                     * LOEWDIN POPULATION ANALYSIS *
                     *******************************

----------------------
LOEWDIN ATOMIC CHARGES
----------------------
   0 N :   -0.086445
   1 C :   -0.006546
   2 C :   -0.042777
   3 C :   -0.097970
   4 C :   -0.086167
   5 C :   -0.036977
   6 C :    0.137886
   7 O :   -0.250171
   8 N :   -0.250892
   9 C :   -0.046227
  10 C :    0.005756
  11 C :   -0.114911
  12 C :   -0.109225
  13 C :   -0.065375
  14 C :    0.309917
  15 F :   -0.113866
  16 F :   -0.115372
  17 F :   -0.113699
  18 C :   -0.110292
  19 C :   -0.115796
  20 C :    0.040256
  21 N :   -0.126754
  22 C :   -0.053112
  23 C :   -0.140889
  24 C :   -0.088025
  25 C :   -0.084421
  26 C :    0.309017
  27 F :   -0.086867
  28 F :   -0.114020
  29 F :   -0.111536
  30 C :   -0.119390
  31 C :   -0.100845
  32 H :    0.151882
  33 H :    0.159663
  34 H :    0.248476
  35 H :    0.144352
  36 H :    0.133526
  37 H :    0.143340
  38 H :    0.143139
  39 H :    0.136143
  40 H :    0.142319
  41 H :    0.143516
  42 H :    0.151749
  43 H :    0.138423
  44 H :    0.149208

-------------------------------
LOEWDIN REDUCED ORBITAL CHARGES
-------------------------------
  0 N s       :     3.428582  s :     3.428582
      pz      :     1.053618  p :     3.586485
      px      :     1.454417
      py      :     1.078450
      dz2     :     0.007712  d :     0.071378
      dxz     :     0.019767
      dyz     :     0.000758
      dx2y2   :     0.022680
      dxy     :     0.020462

  1 C s       :     2.927386  s :     2.927386
      pz      :     0.909468  p :     2.976725
      px      :     1.134271
      py      :     0.932986
      dz2     :     0.009836  d :     0.102435
      dxz     :     0.029023
      dyz     :     0.001178
      dx2y2   :     0.029610
      dxy     :     0.032789

  2 C s       :     2.860441  s :     2.860441
      pz      :     1.077855  p :     3.073165
      px      :     1.003127
      py      :     0.992182
      dz2     :     0.032694  d :     0.109170
      dxz     :     0.033686
      dyz     :     0.014847
      dx2y2   :     0.016449
      dxy     :     0.011494

  3 C s       :     2.917403  s :     2.917403
      pz      :     1.065691  p :     3.096533
      px      :     1.064472
      py      :     0.966370
      dz2     :     0.021479  d :     0.084034
      dxz     :     0.032425
      dyz     :     0.006763
      dx2y2   :     0.012421
      dxy     :     0.010946

  4 C s       :     2.921005  s :     2.921005
      pz      :     1.078652  p :     3.082631
      px      :     1.058590
      py      :     0.945389
      dz2     :     0.021787  d :     0.082530
      dxz     :     0.030793
      dyz     :     0.007190
      dx2y2   :     0.012106
      dxy     :     0.010654

  5 C s       :     2.883129  s :     2.883129
      pz      :     1.064830  p :     3.054275
      px      :     1.021407
      py      :     0.968038
      dz2     :     0.030384  d :     0.099573
      dxz     :     0.032052
      dyz     :     0.013656
      dx2y2   :     0.014313
      dxy     :     0.009168

  6 C s       :     2.863766  s :     2.863766
      pz      :     0.940828  p :     2.767140
      px      :     0.992890
      py      :     0.833421
      dz2     :     0.082612  d :     0.231208
      dxz     :     0.064691
      dyz     :     0.040314
      dx2y2   :     0.025864
      dxy     :     0.017726

  7 O s       :     3.591551  s :     3.591551
      pz      :     1.498302  p :     4.607935
      px      :     1.676269
      py      :     1.433365
      dz2     :     0.015065  d :     0.050684
      dxz     :     0.018245
      dyz     :     0.009291
      dx2y2   :     0.003856
      dxy     :     0.004228

  8 N s       :     3.167013  s :     3.167013
      pz      :     1.265181  p :     4.015860
      px      :     1.208736
      py      :     1.541944
      dz2     :     0.011278  d :     0.068018
      dxz     :     0.026222
      dyz     :     0.011411
      dx2y2   :     0.007744
      dxy     :     0.011362

  9 C s       :     2.886144  s :     2.886144
      pz      :     1.050948  p :     3.029904
      px      :     0.942572
      py      :     1.036384
      dz2     :     0.015079  d :     0.130179
      dxz     :     0.024258
      dyz     :     0.033822
      dx2y2   :     0.026501
      dxy     :     0.030519

 10 C s       :     2.878954  s :     2.878954
      pz      :     0.966296  p :     3.017211
      px      :     1.010900
      py      :     1.040015
      dz2     :     0.012478  d :     0.098079
      dxz     :     0.016084
      dyz     :     0.020626
      dx2y2   :     0.024047
      dxy     :     0.024845

 11 C s       :     2.916963  s :     2.916963
      pz      :     1.024709  p :     3.114243
      px      :     1.037750
      py      :     1.051783
      dz2     :     0.011060  d :     0.083704
      dxz     :     0.012429
      dyz     :     0.019592
      dx2y2   :     0.019553
      dxy     :     0.021070

 12 C s       :     2.915666  s :     2.915666
      pz      :     1.012573  p :     3.109261
      px      :     1.024021
      py      :     1.072667
      dz2     :     0.015445  d :     0.084298
      dxz     :     0.015985
      dyz     :     0.014052
      dx2y2   :     0.021675
      dxy     :     0.017141

 13 C s       :     2.887536  s :     2.887536
      pz      :     1.005455  p :     3.081010
      px      :     1.025634
      py      :     1.049921
      dz2     :     0.010769  d :     0.096829
      dxz     :     0.015886
      dyz     :     0.022230
      dx2y2   :     0.021259
      dxy     :     0.026685

 14 C s       :     2.850488  s :     2.850488
      pz      :     0.855707  p :     2.510361
      px      :     0.833015
      py      :     0.821639
      dz2     :     0.041250  d :     0.329234
      dxz     :     0.078567
      dyz     :     0.083152
      dx2y2   :     0.043648
      dxy     :     0.082616

 15 F s       :     3.759241  s :     3.759241
      pz      :     1.819696  p :     5.323669
      px      :     1.783511
      py      :     1.720462
      dz2     :     0.003404  d :     0.030956
      dxz     :     0.005411
      dyz     :     0.007830
      dx2y2   :     0.005076
      dxy     :     0.009236

 16 F s       :     3.761582  s :     3.761582
      pz      :     1.809987  p :     5.322565
      px      :     1.690481
      py      :     1.822097
      dz2     :     0.004034  d :     0.031225
      dxz     :     0.009089
      dyz     :     0.004554
      dx2y2   :     0.004915
      dxy     :     0.008633

 17 F s       :     3.759214  s :     3.759214
      pz      :     1.714340  p :     5.323525
      px      :     1.846426
      py      :     1.762759
      dz2     :     0.005235  d :     0.030960
      dxz     :     0.006700
      dyz     :     0.010584
      dx2y2   :     0.003593
      dxy     :     0.004849

 18 C s       :     2.916159  s :     2.916159
      pz      :     1.018301  p :     3.109814
      px      :     1.043671
      py      :     1.047841
      dz2     :     0.011743  d :     0.084319
      dxz     :     0.012226
      dyz     :     0.019558
      dx2y2   :     0.019883
      dxy     :     0.020909

 19 C s       :     2.917068  s :     2.917068
      pz      :     1.014251  p :     3.115557
      px      :     1.034867
      py      :     1.066439
      dz2     :     0.013990  d :     0.083171
      dxz     :     0.016151
      dyz     :     0.013958
      dx2y2   :     0.020674
      dxy     :     0.018397

 20 C s       :     2.886599  s :     2.886599
      pz      :     0.968284  p :     2.939371
      px      :     0.943583
      py      :     1.027505
      dz2     :     0.025283  d :     0.133774
      dxz     :     0.020642
      dyz     :     0.041683
      dx2y2   :     0.021148
      dxy     :     0.025018

 21 N s       :     3.239215  s :     3.239215
      pz      :     1.147018  p :     3.809227
      px      :     1.111671
      py      :     1.550538
      dz2     :     0.017445  d :     0.078313
      dxz     :     0.015306
      dyz     :     0.020011
      dx2y2   :     0.010394
      dxy     :     0.015157

 22 C s       :     2.915242  s :     2.915242
      pz      :     1.013170  p :     3.013530
      px      :     0.956401
      py      :     1.043959
      dz2     :     0.023214  d :     0.124340
      dxz     :     0.017067
      dyz     :     0.030120
      dx2y2   :     0.028190
      dxy     :     0.025749

 23 C s       :     2.923548  s :     2.923548
      pz      :     1.043956  p :     3.132362
      px      :     1.010025
      py      :     1.078381
      dz2     :     0.015308  d :     0.084979
      dxz     :     0.011764
      dyz     :     0.026110
      dx2y2   :     0.015442
      dxy     :     0.016355

 24 C s       :     2.921896  s :     2.921896
      pz      :     1.026436  p :     3.081252
      px      :     0.972566
      py      :     1.082250
      dz2     :     0.019753  d :     0.084877
      dxz     :     0.014728
      dyz     :     0.021388
      dx2y2   :     0.017994
      dxy     :     0.011013

 25 C s       :     2.901303  s :     2.901303
      pz      :     1.014084  p :     3.091527
      px      :     1.018201
      py      :     1.059243
      dz2     :     0.016806  d :     0.091591
      dxz     :     0.013040
      dyz     :     0.026783
      dx2y2   :     0.017669
      dxy     :     0.017293

 26 C s       :     2.853184  s :     2.853184
      pz      :     0.902875  p :     2.508060
      px      :     0.816673
      py      :     0.788513
      dz2     :     0.057983  d :     0.329739
      dxz     :     0.056656
      dyz     :     0.076100
      dx2y2   :     0.078228
      dxy     :     0.060773

 27 F s       :     3.758979  s :     3.758979
      pz      :     1.665714  p :     5.295088
      px      :     1.891843
      py      :     1.737531
      dz2     :     0.007969  d :     0.032800
      dxz     :     0.003981
      dyz     :     0.013952
      dx2y2   :     0.004030
      dxy     :     0.002868

 28 F s       :     3.760589  s :     3.760589
      pz      :     1.889942  p :     5.322076
      px      :     1.541932
      py      :     1.890202
      dz2     :     0.004433  d :     0.031355
      dxz     :     0.007705
      dyz     :     0.000893
      dx2y2   :     0.012163
      dxy     :     0.006160

 29 F s       :     3.757815  s :     3.757815
      pz      :     1.867431  p :     5.322577
      px      :     1.845232
      py      :     1.609914
      dz2     :     0.004051  d :     0.031144
      dxz     :     0.002133
      dyz     :     0.007912
      dx2y2   :     0.008291
      dxy     :     0.008758

 30 C s       :     2.919384  s :     2.919384
      pz      :     1.070345  p :     3.116348
      px      :     1.065445
      py      :     0.980557
      dz2     :     0.021956  d :     0.083658
      dxz     :     0.031142
      dyz     :     0.006117
      dx2y2   :     0.013042
      dxy     :     0.011402

 31 C s       :     2.916816  s :     2.916816
      pz      :     1.064136  p :     3.099815
      px      :     1.062387
      py      :     0.973292
      dz2     :     0.021344  d :     0.084214
      dxz     :     0.032010
      dyz     :     0.007559
      dx2y2   :     0.012067
      dxy     :     0.011234

 32 H s       :     0.848118  s :     0.848118

 33 H s       :     0.840337  s :     0.840337

 34 H s       :     0.751524  s :     0.751524

 35 H s       :     0.855648  s :     0.855648

 36 H s       :     0.866474  s :     0.866474

 37 H s       :     0.856660  s :     0.856660

 38 H s       :     0.856861  s :     0.856861

 39 H s       :     0.863857  s :     0.863857

 40 H s       :     0.857681  s :     0.857681

 41 H s       :     0.856484  s :     0.856484

 42 H s       :     0.848251  s :     0.848251

 43 H s       :     0.861577  s :     0.861577

 44 H s       :     0.850792  s :     0.850792



                      *****************************
                      * MAYER POPULATION ANALYSIS *
                      *****************************

  NA   - Mulliken gross atomic population
  ZA   - Total nuclear charge
  QA   - Mulliken gross atomic charge
  VA   - Mayer's total valence
  BVA  - Mayer's bonded valence
  FA   - Mayer's free valence

  ATOM       NA         ZA         QA         VA         BVA        FA
  0 N      7.2983     7.0000    -0.2983     3.1185     3.1185    -0.0000
  1 C      5.9133     6.0000     0.0867     4.0443     4.0443    -0.0000
  2 C      5.8699     6.0000     0.1301     3.8831     3.8831     0.0000
  3 C      6.1402     6.0000    -0.1402     3.8988     3.8988     0.0000
  4 C      6.1523     6.0000    -0.1523     3.9072     3.9072     0.0000
  5 C      5.9031     6.0000     0.0969     3.8926     3.8926     0.0000
  6 C      5.5018     6.0000     0.4982     3.9096     3.9096     0.0000
  7 O      8.4513     8.0000    -0.4513     2.0567     2.0567     0.0000
  8 N      7.6439     7.0000    -0.6439     2.8632     2.8632     0.0000
  9 C      6.0605     6.0000    -0.0605     3.8100     3.8100    -0.0000
 10 C      5.8215     6.0000     0.1785     3.9677     3.9677     0.0000
 11 C      6.1529     6.0000    -0.1529     3.9312     3.9312     0.0000
 12 C      6.1565     6.0000    -0.1565     3.9366     3.9366    -0.0000
 13 C      6.0068     6.0000    -0.0068     3.9674     3.9674     0.0000
 14 C      5.1075     6.0000     0.8925     3.9147     3.9147     0.0000
 15 F      9.3057     9.0000    -0.3057     1.0541     1.0541     0.0000
 16 F      9.2981     9.0000    -0.2981     1.0539     1.0539    -0.0000
 17 F      9.3055     9.0000    -0.3055     1.0544     1.0544    -0.0000
 18 C      6.1664     6.0000    -0.1664     3.9358     3.9358     0.0000
 19 C      6.1449     6.0000    -0.1449     3.9433     3.9433     0.0000
 20 C      5.8067     6.0000     0.1933     3.8631     3.8631    -0.0000
 21 N      7.3998     7.0000    -0.3998     2.9921     2.9921    -0.0000
 22 C      5.9728     6.0000     0.0272     3.9074     3.9074     0.0000
 23 C      6.1325     6.0000    -0.1325     3.9102     3.9102    -0.0000
 24 C      6.1301     6.0000    -0.1301     3.9053     3.9053    -0.0000
 25 C      6.0818     6.0000    -0.0818     3.9482     3.9482    -0.0000
 26 C      5.0588     6.0000     0.9412     3.8450     3.8450     0.0000
 27 F      9.2797     9.0000    -0.2797     1.0888     1.0888    -0.0000
 28 F      9.3048     9.0000    -0.3048     1.0491     1.0491    -0.0000
 29 F      9.3057     9.0000    -0.3057     1.0587     1.0587     0.0000
 30 C      6.1790     6.0000    -0.1790     3.8936     3.8936     0.0000
 31 C      6.1395     6.0000    -0.1395     3.9257     3.9257     0.0000
 32 H      0.8332     1.0000     0.1668     0.9305     0.9305    -0.0000
 33 H      0.8211     1.0000     0.1789     0.9392     0.9392     0.0000
 34 H      0.6795     1.0000     0.3205     0.8776     0.8776    -0.0000
 35 H      0.8275     1.0000     0.1725     0.9281     0.9281     0.0000
 36 H      0.8682     1.0000     0.1318     0.9388     0.9388     0.0000
 37 H      0.8490     1.0000     0.1510     0.9408     0.9408     0.0000
 38 H      0.8490     1.0000     0.1510     0.9411     0.9411    -0.0000
 39 H      0.8687     1.0000     0.1313     0.9504     0.9504     0.0000
 40 H      0.8360     1.0000     0.1640     0.9283     0.9283     0.0000
 41 H      0.8500     1.0000     0.1500     0.9353     0.9353     0.0000
 42 H      0.8290     1.0000     0.1710     0.9379     0.9379     0.0000
 43 H      0.8589     1.0000     0.1411     0.9449     0.9449     0.0000
 44 H      0.8382     1.0000     0.1618     0.9316     0.9316    -0.0000

  Mayer bond orders larger than 0.100000
B(  0-N ,  1-C ) :   3.0169 B(  1-C ,  2-C ) :   0.9813 B(  2-C ,  3-C ) :   1.3913 
B(  2-C , 31-C ) :   1.4085 B(  3-C ,  4-C ) :   1.4228 B(  3-C , 32-H ) :   0.9218 
B(  4-C ,  5-C ) :   1.3949 B(  4-C , 33-H ) :   0.9087 B(  5-C ,  6-C ) :   0.9863 
B(  5-C , 30-C ) :   1.3852 B(  6-C ,  7-O ) :   1.8115 B(  6-C ,  8-N ) :   1.0120 
B(  8-N ,  9-C ) :   0.9017 B(  8-N , 34-H ) :   0.8203 B(  9-C , 10-C ) :   0.9756 
B(  9-C , 20-C ) :   0.9486 B(  9-C , 35-H ) :   0.9037 B( 10-C , 11-C ) :   1.4016 
B( 10-C , 19-C ) :   1.4379 B( 11-C , 12-C ) :   1.4359 B( 11-C , 36-H ) :   0.9248 
B( 12-C , 13-C ) :   1.4108 B( 12-C , 37-H ) :   0.9194 B( 13-C , 14-C ) :   0.9793 
B( 13-C , 18-C ) :   1.4122 B( 14-C , 15-F ) :   0.9480 B( 14-C , 16-F ) :   0.9846 
B( 14-C , 17-F ) :   0.9485 B( 18-C , 19-C ) :   1.4277 B( 18-C , 38-H ) :   0.9196 
B( 19-C , 39-H ) :   0.9141 B( 20-C , 21-N ) :   1.3948 B( 20-C , 25-C ) :   1.3482 
B( 21-N , 22-C ) :   1.4194 B( 22-C , 23-C ) :   1.4209 B( 22-C , 40-H ) :   0.9265 
B( 23-C , 24-C ) :   1.4381 B( 23-C , 41-H ) :   0.9227 B( 24-C , 25-C ) :   1.4000 
B( 24-C , 42-H ) :   0.9156 B( 25-C , 26-C ) :   0.9639 B( 26-C , 27-F ) :   0.9485 
B( 26-C , 28-F ) :   0.9493 B( 26-C , 29-F ) :   0.9400 B( 30-C , 31-C ) :   1.4243 
B( 30-C , 43-H ) :   0.9172 B( 31-C , 44-H ) :   0.9218 

-------
TIMINGS
-------

Total SCF time: 0 days 0 hours 8 min 0 sec 

Total time                  ....     480.726 sec
Sum of individual times     ....     480.470 sec  ( 99.9%)

SCF preparation             ....       0.333 sec  (  0.1%)
Fock matrix formation       ....     477.614 sec  ( 99.4%)
  Startup                   ....       0.082 sec  (  0.0% of F)
  Split-RI-J                ....      60.248 sec  ( 12.6% of F)
  Chain of spheres X        ....     374.832 sec  ( 78.5% of F)
  XC integration            ....      41.564 sec  (  8.7% of F)
    XC Preparation          ....       0.000 sec  (  0.0% of XC)
    Basis function eval.    ....      16.326 sec  ( 39.3% of XC)
    Density eval.           ....      10.323 sec  ( 24.8% of XC)
    XC-Functional eval.     ....       2.105 sec  (  5.1% of XC)
    XC-Potential eval.      ....      11.008 sec  ( 26.5% of XC)
Diagonalization             ....       0.000 sec  (  0.0%)
Density matrix formation    ....       0.359 sec  (  0.1%)
Total Energy calculation    ....       0.069 sec  (  0.0%)
Population analysis         ....       0.068 sec  (  0.0%)
Orbital Transformation      ....       0.371 sec  (  0.1%)
Orbital Orthonormalization  ....       0.000 sec  (  0.0%)
DIIS solution               ....       1.046 sec  (  0.2%)
SOSCF solution              ....       0.610 sec  (  0.1%)
Finished LeanSCF after 480.8 sec

Maximum memory used throughout the entire LEANSCF-calculation: 76.0 MB

-------------------------   --------------------
FINAL SINGLE POINT ENERGY     -1683.792016671966
-------------------------   --------------------


------------------------------------------------------------------------------
                              ORCA PROPERTY CALCULATIONS
------------------------------------------------------------------------------

GBWName                                 ... /home/nmrbox/aojoawo/Documents/ERDOS/inputs/CHEMBL4247268.gbw
Number of atoms                         ...     45
Number of basis functions               ...    474
Max core memory                         ...   1024 MB

Electric properties:
Dipole moment                           ... YES
Quadrupole moment                       ...  NO
Static polarizability (Dipole/Dipole)   ...  NO
Static polarizability (Dipole/Quad.)    ...  NO
Static polarizability (Quad./Quad.)     ...  NO
Static polarizability (Velocity)        ...  NO

Atomic electric properties:
Dipole moment                           ...  NO
Quadrupole moment                       ...  NO
Static polarizability                   ...  NO

Choice of electric origin               ... Center of mass
Position of electric origin             ...    -0.340450     0.075133    -0.657567

General magnetic properties:
Magnetizability                         ...  NO

EPR properties:
g-Tensor (aka g-matrix)                 ...  NO
Zero-Field splitting spin-orbit         ...  NO
Zero-field splitting spin-spin          ...  NO
Hyperfine couplings                     ...  NO (   0 nuclei)
Quadrupole couplings                    ...  NO (   0 nuclei)
Contact density                         ...  NO (   0 nuclei)

NMR properties:
Chemical shifts                         ...  NO (   0 nuclei)
Spin-rotation constants                 ...  NO (   0 nuclei)
Spin-spin couplings                     ...  NO (   0 nuclei,    0 pairs)

Choice of magnetic origin               ... GIAO
Position of magnetic origin             ...     0.000000     0.000000     0.000000

Properties with geometric perturbations:
SCF Hessian                             ...  NO
IR spectrum                             ...  NO
VCD spectrum                            ...  NO
X-ray spectroscopy properties:
SCF XES/XAS/RIXS spectra                ...  NO


-------------
DIPOLE MOMENT
-------------

Method             : SCF
Type of density    : Electron Density
Multiplicity       :   1
Irrep              :   0
Energy             : -1683.7920166719657118 Eh
Relativity type    : 
Basis              : AO
                                X                 Y                 Z
Electronic contribution:    -14.966604775       0.355626988     -16.597305183
Nuclear contribution   :     13.974007494      -1.724266651      18.842124921
                        -----------------------------------------
Total Dipole Moment    :     -0.992597280      -1.368639663       2.244819738
                        -----------------------------------------
Magnitude (a.u.)       :      2.810273927
Magnitude (Debye)      :      7.143148648



--------------------
Rotational spectrum 
--------------------
 
Rotational constants in cm-1:             0.004574             0.003021             0.002097 
Rotational constants in MHz :           137.130027            90.572890            62.863521 

Dipole components along the rotational axes: 
x,y,z [a.u.] :    -0.671902    -2.549904     0.971687 
x,y,z [Debye]:    -1.707838    -6.481342     2.469831 

 

Dipole moment calculation done in   0.0 sec 

Maximum memory used throughout the entire PROP-calculation: 37.5 MB

--------------------------------
SUGGESTED CITATIONS FOR THIS RUN
--------------------------------

Below you find a list of papers that are relevant to this ORCA run
We neither can nor want to force you to cite these papers, but we appreciate if you do
You receive ORCA, which is the product of decades of hard work by many enthusiastic individuals, for free
The only thing we kindly ask in return is that you cite our papers,
We deeply appreciate it, if you show your appreciation for ORCA by not just citing the generic ORCA reference.

Please note that relegating all ORCA citations to the supporting information does *not* help us.
SI sections are not indexed - citations you put there will not count into any citation statistics
But we need these citations in order to attract the funding resources that allow us to do what we are doing

Therefore, if you are a happy ORCA user, please consider citing a few of the papers listed below in the main body of your paper

In addition to the list printed below, the program has created the file /home/nmrbox/aojoawo/Documents/ERDOS/inputs/CHEMBL4247268.bibtex that contains the list in bibtex format
You can import this file easily into all common literature databanks and citation aid programs


List of essential papers. We consider these as the minimum necessary citations

  1. Neese,F.
     Software update: the ORCA program system, version 5.0
     WIRES Comput. Molec. Sci., 2022 12(1)e1606
     doi.org/10.1002/wcms.1606

List of papers to cite with high priority. The work reported in these papers was absolutely
necessary for this run to complete.
Our perspective: the developers of density functionals and basis sets usually get cited in chemistry papers
Good! But without the algorithms to do something with them, the functionals or basis sets would not do anything.
Hence, in our opinion, the algorithm design and method developments papers are equally worthy of getting cited

  1. Neese,F.
     An improvement of the resolution of the identity approximation for the formation of the Coulomb matrix
     J. Comp. Chem., 2003 24(14)1740-1747
     doi.org/10.1002/jcc.10318
  2. Neese,F.; Wennmohs,F.; Hansen,A.; Becker,U.
     Efficient, approximate and parallel Hartree-Fock and hybrid DFT calculations. A 'chain-of-spheres' algorithm for the Hartree-Fock exchange
     Chem. Phys., 2009 356(1-3)98-109
     doi.org/10.1016/j.chemphys.2008.10.036
  3. Helmich-Paris,B.; de Souza,B.; Neese,F.; Izsák,R.
     An improved chain of spheres for exchange algorithm
     J. Chem. Phys., 2021 155 104109
     doi.org/doi: 10.1063/5.0058766.
  4. Neese,F.
     The SHARK Integral Generation and Digestion System
     J. Comp. Chem., 2022  1-16
     doi.org/10.1002/jcc.26942

List of suggested additional citations. These are papers that are important in the 'surrounding' of 
of this run, or papers that preceded the highly important papers. If you like your results we are grateful for a citation.

  1. Izsak,R.; Neese,F.
     An overlap fitted chain of spheres exchange method
     J. Chem. Phys., 2011 135 144105
     doi.org/10.1063/1.3646921
  2. Izsak,R.; Hansen,A.; Neese,F.
     The resolution of identity and chain of spheres approximations for the LPNO-CCSD singles Fock term
     Molec. Phys., 2012 110 2413-2417
     doi.org/10.1080/00268976.2012.687466
  3. Neese,F.
     The ORCA program system
     WIRES Comput. Molec. Sci., 2012 2(1)73-78
     doi.org/10.1002/wcms.81
  4. Izsak,R.; Neese,F.; Klopper,W.
     Robust fitting techniques in the chain of spheres approximation to the Fock exchange: The role of the complementary space
     J. Chem. Phys., 2013 139 
     doi.org/10.1063/1.4819264
  5. Neese,F.
     Software update: the ORCA program system, version 4.0
     WIRES Comput. Molec. Sci., 2018 8(1)1-6
     doi.org/10.1002/wcms.1327
  6. Neese,F.; Wennmohs,F.; Becker,U.; Riplinger,C.
     The ORCA quantum chemistry program package
     J. Chem. Phys., 2020 152 Art. No. L224108
     doi.org/10.1063/5.0004608

List of optional additional citations

  1. Neese,F.
     Approximate second-order SCF convergence for spin unrestricted wavefunctions
     Chem. Phys. Lett., 2000 325(1-3)93-98
     doi.org/10.1016/s0009-2614(00)00662-x

Timings for individual modules:

Sum of individual times          ...      499.308 sec (=   8.322 min)
Startup calculation              ...       12.066 sec (=   0.201 min)   2.4 %
SCF iterations                   ...      486.990 sec (=   8.117 min)  97.5 %
Property calculations            ...        0.252 sec (=   0.004 min)   0.1 %
                             ****ORCA TERMINATED NORMALLY****
TOTAL RUN TIME: 0 days 0 hours 8 minutes 20 seconds 343 msec
