
                                 *****************
                                 * O   R   C   A *
                                 *****************

                                            #,                                       
                                            ###                                      
                                            ####                                     
                                            #####                                    
                                            ######                                   
                                           ########,                                 
                                     ,,################,,,,,                         
                               ,,#################################,,                 
                          ,,##########################################,,             
                       ,#########################################, ''#####,          
                    ,#############################################,,   '####,        
                  ,##################################################,,,,####,       
                ,###########''''           ''''###############################       
              ,#####''   ,,,,##########,,,,          '''####'''          '####       
            ,##' ,,,,###########################,,,                        '##       
           ' ,,###''''                  '''############,,,                           
         ,,##''                                '''############,,,,        ,,,,,,###''
      ,#''                                            '''#######################'''  
     '                                                          ''''####''''         
             ,#######,   #######,   ,#######,      ##                                
            ,#'     '#,  ##    ##  ,#'     '#,    #''#        ,####,   ,####,        
            ##       ##  ##   ,#'  ##            #'  '#       #'       #'  '#        
            ##       ##  #######   ##           ,######,      #####,   #    #        
            '#,     ,#'  ##    ##  '#,     ,#' ,#      #,     #,   #   #,  ,#        
             '#######'   ##     ##  '#######'  #'      '#     '####' # '####'        



                #########################################################
                #                        -***-                          #
                #          Department of theory and spectroscopy        #
                #                                                       #
                #                      Frank Neese                      #
                #                                                       #
                #     Directorship, Architecture, Infrastructure        #
                #                    SHARK, DRIVERS                     #
                #        Core code/Algorithms in most modules           #
                #                                                       #
                #        Max Planck Institute fuer Kohlenforschung      #
                #                Kaiser Wilhelm Platz 1                 #
                #                 D-45470 Muelheim/Ruhr                 #
                #                      Germany                          #
                #                                                       #
                #                  All rights reserved                  #
                #                        -***-                          #
                #########################################################


                         Program Version 6.0.0  -   RELEASE  -


 With contributions from (in alphabetic order):
   Daniel Aravena         : Magnetic Suceptibility
   Michael Atanasov       : Ab Initio Ligand Field Theory (pilot matlab implementation)
   Alexander A. Auer      : GIAO ZORA, VPT2 properties, NMR spectrum
   Ute Becker             : All parallelization in ORCA, NUMFREQ, NUMCALC
   Giovanni Bistoni       : ED, misc. LED, open-shell LED, HFLD
   Martin Brehm           : Molecular dynamics
   Dmytro Bykov           : pre 5.0 version of the SCF Hessian
   Marcos Casanova-Páez   : Triplet and SCS-CIS(D). UHF-(DLPNO)-IP/EA/STEOM-CCSD. UHF-CVS-IP/STEOM-CCSD
   Vijay G. Chilkuri      : MRCI spin determinant printing, contributions to CSF-ICE
   Pauline Colinet        : FMM embedding
   Dipayan Datta          : RHF DLPNO-CCSD density
   Achintya Kumar Dutta   : EOM-CC, STEOM-CC
   Nicolas Foglia         : Exact transition moments, OPA infrastructure, MCD improvements
   Dmitry Ganyushin       : Spin-Orbit,Spin-Spin,Magnetic field MRCI
   Miquel Garcia          : C-PCM and meta-GGA Hessian, CCSD/C-PCM, Gaussian charge scheme
   Tiago L. C. Gouveia    : GS-ROHF, GS-ROCIS
   Yang Guo               : DLPNO-NEVPT2, F12-NEVPT2, CIM, IAO-localization
   Andreas Hansen         : Spin unrestricted coupled pair/coupled cluster methods
   Ingolf Harden          : AUTO-CI MPn and infrastructure 
   Benjamin Helmich-Paris : MC-RPA, TRAH-(SCF,CASSCF), AVAS, COSX integrals, SCF dyn. polar.
   Lee Huntington         : MR-EOM, pCC
   Robert Izsak           : Overlap fitted RIJCOSX, COSX-SCS-MP3, EOM
   Riya Kayal             : Wick's Theorem for AUTO-CI, AUTO-CI UHF-CCSDT
   Emily Kempfer          : AUTO-CI, RHF CISDT and CCSDT
   Christian Kollmar      : KDIIS, OOCD, Brueckner-CCSD(T), CCSD density, CASPT2, CASPT2-K, improved NEVPT2
   Axel Koslowski         : Symmetry handling
   Simone Kossmann        : Meta GGA functionals, TD-DFT gradient, OOMP2, (MP2 Hessian; deprecated post 5.0)
   Lucas Lang             : DCDCAS
   Marvin Lechner         : AUTO-CI (C++ implementation), FIC-MRCC
   Spencer Leger          : CASSCF response
   Dagmar Lenk            : GEPOL surface, SMD, ORCA-2-JSON
   Dimitrios Liakos       : Extrapolation schemes; Compound Job, initial MDCI parallelization
   Dimitrios Manganas     : Further ROCIS development; embedding schemes. LFT, Crystal Embedding
   Dimitrios Pantazis     : SARC Basis sets
   Anastasios Papadopoulos: AUTO-CI, single reference methods and gradients
   Taras Petrenko         : pre 6.0 DFT Hessian and TD-DFT gradient, (ASA, deprecated), ECA, 1-Electron XAS/XES, NRVS
   Peter Pinski           : DLPNO-MP2, DLPNO-MP2 Gradient
   Christoph Reimann      : Effective Core Potentials
   Marius Retegan         : Local ZFS, SOC
   Christoph Riplinger    : Optimizer, TS searches, QM/MM, DLPNO-CCSD(T), (RO)-DLPNO pert. Triples
   Michael Roemelt        : Original ROCIS implementation
   Masaaki Saitow         : Open-shell DLPNO-CCSD energy and density
   Barbara Sandhoefer     : DKH picture change effects
   Kantharuban Sivalingam : CASSCF convergence/infrastructure, NEVPT2 and variants, FIC-MRCI
   Bernardo de Souza      : ESD, SOC TD-DFT
   Georgi Stoychev        : AutoAux, RI-MP2 NMR, DLPNO-MP2 response, X2C
   Van Anh Tran           : RI-MP2 g-tensors
   Willem Van den Heuvel  : Paramagnetic NMR
   Zikuan Wang            : NOTCH, Electric field optimization 
   Frank Wennmohs         : Technical directorship and infrastructure
   Hang Xu                : AUTO-CI-Response properties 


 We gratefully acknowledge several colleagues who have allowed us to
 interface, adapt or use parts of their codes:
   Stefan Grimme, W. Hujo, H. Kruse, P. Pracht,  : VdW corrections, initial TS optimization,
                  C. Bannwarth, S. Ehlert,         DFT functionals, gCP, sTDA/sTD-DF
                  L. Wittmann, M. Mueller
   Ed Valeev, F. Pavosevic, A. Kumar             : LibInt (2-el integral package), F12 methods
   Garnet Chan, S. Sharma, J. Yang, R. Olivares  : DMRG
   Ulf Ekstrom                                   : XCFun DFT Library
   Mihaly Kallay                                 : mrcc  (arbitrary order and MRCC methods)
   Frank Weinhold                                : gennbo (NPA and NBO analysis)
   Simon Mueller                                 : openCOSMO-RS
   Christopher J. Cramer and Donald G. Truhlar   : smd solvation model
   Lars Goerigk                                  : TD-DFT with DH, B97 family of functionals
   V. Asgeirsson, H. Jonsson                     : NEB implementation
   FAccTs GmbH                                   : IRC, NEB, NEB-TS, DLPNO-Multilevel, CI-OPT
                                                   MM, QMMM, 2- and 3-layer-ONIOM, Crystal-QMMM,
                                                   LR-CPCM, SF, NACMEs, symmetry and pop. for TD-DFT,
                                                   nearIR, NL-DFT gradient (VV10), updates on ESD,
                                                   ML-optimized integration grids, MBIS, APM,
                                                   GOAT, DOCKER, SOLVATOR, interface openCOSMO-RS
   S Lehtola, MJT Oliveira, MAL Marques          : LibXC Library
   Liviu Ungur et al                             : ANISO software


 Your calculation uses the libint2 library for the computation of 2-el integrals
 For citations please refer to: http://libint.valeyev.net

 Your ORCA version has been built with support for libXC version: 6.2.2
 For citations please refer to: https://libxc.gitlab.io

 This ORCA versions uses:
   CBLAS   interface :  Fast vector & matrix operations
   LAPACKE interface :  Fast linear algebra routines
   SCALAPACK package :  Parallel linear algebra routines
   Shared memory     :  Shared parallel matrices
   BLAS/LAPACK       :  OpenBLAS 0.3.27  USE64BITINT DYNAMIC_ARCH NO_AFFINITY SkylakeX SINGLE_THREADED
        Core in use  :  SkylakeX
   Copyright (c) 2011-2014, The OpenBLAS Project


Warning: RI is on but no J-basis has been assigned. Assigning Def2/J (nothing to worry about!)
================================================================================

----- Orbital basis set information -----
Your calculation utilizes the basis: 6-31G*
   H-He, Li-Ne : W. J. Hehre, R. Ditchfield and J.A. Pople, J. Chem. Phys. 56, 2257 (1972).
                 Note: He and Ne are unpublished basis sets taken from the Gaussian program.
                 Note: Li and B from J. D. Dill and J. A. Pople, J. Chem. Phys. 62, 2921 (1975).
   Na - Ar     : M. M. Francl, W. J. Pietro, W. J. Hehre, J. S. Binkley, M. S. Gordon, 
                 D. J. DeFrees and J. A. Pople, J. Chem. Phys. 77, 3654 (1982).
   K - Zn      : V. A. Rassolov, J. A. Pople, M. A. Ratner, and T. L. Windus, J. Chem. Phys. 109, 1223 (1998).

----- AuxJ basis set information -----
Your calculation utilizes the auxiliary basis: def2/J
   F. Weigend, Phys. Chem. Chem. Phys. 8, 1057 (2006).

================================================================================
                                        WARNINGS
                       Please study these warnings very carefully!
================================================================================


================================================================================
                                       INPUT FILE
================================================================================
NAME = /home/nmrbox/aojoawo/Documents/ERDOS/inputs/CHEMBL3931425.inp
|  1> ! B3LYP 6-31G* SP
|  2> 
|  3> * xyz 0 1
|  4> C -5.7320 2.6609 -0.0397
|  5> N -5.2156 1.2814 -0.0853
|  6> C -4.4093 0.8859 -1.1280
|  7> O -4.1202 1.6827 -2.0620
|  8> C -3.9105 -0.4148 -1.1268
|  9> C -4.2145 -1.2542 -0.0987
| 10> C -3.5607 -2.4530 -0.3213
| 11> C -2.8749 -2.2736 -1.5155
| 12> N -3.0937 -1.0312 -2.0120
| 13> C -2.4642 -0.4802 -3.2138
| 14> C -1.2960 0.3798 -2.8363
| 15> O -1.3128 1.6063 -3.1257
| 16> N -0.1657 -0.2051 -2.1704
| 17> C 0.8951 0.5382 -1.5535
| 18> N 1.9968 -0.0566 -1.0504
| 19> C 2.8546 0.8351 -0.4785
| 20> C 4.1398 0.3926 0.1240
| 21> C 4.6172 -0.9075 -0.1233
| 22> C 5.8263 -1.3396 0.4281
| 23> C 6.5842 -0.4899 1.2398
| 24> O 7.7947 -0.9759 1.7603
| 25> C 8.6860 -0.2414 2.5964
| 26> F 8.0524 0.1107 3.7750
| 27> F 9.7758 -1.0362 2.8965
| 28> F 9.1287 0.8935 1.9405
| 29> C 6.1074 0.8074 1.5029
| 30> C 4.8986 1.2429 0.9510
| 31> C 2.4199 2.1645 -0.5261
| 32> S 0.9277 2.2014 -1.3002
| 33> N -5.0012 -0.8768 0.9473
| 34> C -5.2585 -1.8081 2.0563
| 35> C -5.4812 0.4154 0.9614
| 36> O -6.1653 0.8164 1.9454
| 37> H -5.0330 3.3012 0.5394
| 38> H -5.8546 3.0845 -1.0594
| 39> H -6.7370 2.6953 0.4333
| 40> H -3.5565 -3.3367 0.3020
| 41> H -2.2356 -3.0120 -1.9831
| 42> H -2.1054 -1.3051 -3.8669
| 43> H -3.2083 0.0968 -3.8034
| 44> H -0.1120 -1.2473 -2.1196
| 45> H 4.0613 -1.5916 -0.7520
| 46> H 6.1792 -2.3420 0.2197
| 47> H 6.6588 1.4890 2.1344
| 48> H 4.5608 2.2417 1.1890
| 49> H 2.9403 3.0349 -0.1539
| 50> H -5.4819 -2.8241 1.6656
| 51> H -6.1380 -1.4991 2.6598
| 52> H -4.3671 -1.8564 2.7172
| 53> *
| 54> 
| 55>                          ****END OF INPUT****
================================================================================

                       ****************************
                       * Single Point Calculation *
                       ****************************

---------------------------------
CARTESIAN COORDINATES (ANGSTROEM)
---------------------------------
  C     -5.732000    2.660900   -0.039700
  N     -5.215600    1.281400   -0.085300
  C     -4.409300    0.885900   -1.128000
  O     -4.120200    1.682700   -2.062000
  C     -3.910500   -0.414800   -1.126800
  C     -4.214500   -1.254200   -0.098700
  C     -3.560700   -2.453000   -0.321300
  C     -2.874900   -2.273600   -1.515500
  N     -3.093700   -1.031200   -2.012000
  C     -2.464200   -0.480200   -3.213800
  C     -1.296000    0.379800   -2.836300
  O     -1.312800    1.606300   -3.125700
  N     -0.165700   -0.205100   -2.170400
  C      0.895100    0.538200   -1.553500
  N      1.996800   -0.056600   -1.050400
  C      2.854600    0.835100   -0.478500
  C      4.139800    0.392600    0.124000
  C      4.617200   -0.907500   -0.123300
  C      5.826300   -1.339600    0.428100
  C      6.584200   -0.489900    1.239800
  O      7.794700   -0.975900    1.760300
  C      8.686000   -0.241400    2.596400
  F      8.052400    0.110700    3.775000
  F      9.775800   -1.036200    2.896500
  F      9.128700    0.893500    1.940500
  C      6.107400    0.807400    1.502900
  C      4.898600    1.242900    0.951000
  C      2.419900    2.164500   -0.526100
  S      0.927700    2.201400   -1.300200
  N     -5.001200   -0.876800    0.947300
  C     -5.258500   -1.808100    2.056300
  C     -5.481200    0.415400    0.961400
  O     -6.165300    0.816400    1.945400
  H     -5.033000    3.301200    0.539400
  H     -5.854600    3.084500   -1.059400
  H     -6.737000    2.695300    0.433300
  H     -3.556500   -3.336700    0.302000
  H     -2.235600   -3.012000   -1.983100
  H     -2.105400   -1.305100   -3.866900
  H     -3.208300    0.096800   -3.803400
  H     -0.112000   -1.247300   -2.119600
  H      4.061300   -1.591600   -0.752000
  H      6.179200   -2.342000    0.219700
  H      6.658800    1.489000    2.134400
  H      4.560800    2.241700    1.189000
  H      2.940300    3.034900   -0.153900
  H     -5.481900   -2.824100    1.665600
  H     -6.138000   -1.499100    2.659800
  H     -4.367100   -1.856400    2.717200

----------------------------
CARTESIAN COORDINATES (A.U.)
----------------------------
  NO LB      ZA    FRAG     MASS         X           Y           Z
   0 C     6.0000    0    12.011  -10.831910    5.028372   -0.075022
   1 N     7.0000    0    14.007   -9.856056    2.421495   -0.161194
   2 C     6.0000    0    12.011   -8.332369    1.674108   -2.131611
   3 O     8.0000    0    15.999   -7.786050    3.179842   -3.896615
   4 C     6.0000    0    12.011   -7.389774   -0.783858   -2.129343
   5 C     6.0000    0    12.011   -7.964251   -2.370095   -0.186516
   6 C     6.0000    0    12.011   -6.728748   -4.635498   -0.607169
   7 C     6.0000    0    12.011   -5.432774   -4.296481   -2.863880
   8 N     7.0000    0    14.007   -5.846246   -1.948686   -3.802129
   9 C     6.0000    0    12.011   -4.656663   -0.907446   -6.073202
  10 C     6.0000    0    12.011   -2.449085    0.717718   -5.359830
  11 O     8.0000    0    15.999   -2.480832    3.035467   -5.906717
  12 N     7.0000    0    14.007   -0.313128   -0.387583   -4.101462
  13 C     6.0000    0    12.011    1.691494    1.017051   -2.935690
  14 N     7.0000    0    14.007    3.773405   -0.106958   -1.984968
  15 C     6.0000    0    12.011    5.394412    1.578110   -0.904234
  16 C     6.0000    0    12.011    7.823088    0.741906    0.234326
  17 C     6.0000    0    12.011    8.725244   -1.714926   -0.233003
  18 C     6.0000    0    12.011   11.010111   -2.531477    0.808992
  19 C     6.0000    0    12.011   12.442335   -0.925777    2.342882
  20 O     8.0000    0    15.999   14.729848   -1.844184    3.326485
  21 C     6.0000    0    12.011   16.414161   -0.456180    4.906485
  22 F     9.0000    0    18.998   15.216831    0.209193    7.133716
  23 F     9.0000    0    18.998   18.473585   -1.958134    5.473592
  24 F     9.0000    0    18.998   17.250743    1.688470    3.667014
  25 C     6.0000    0    12.011   11.541313    1.525765    2.840069
  26 C     6.0000    0    12.011    9.257012    2.348741    1.797130
  27 C     6.0000    0    12.011    4.572948    4.090312   -0.994185
  28 S    16.0000    0    32.060    1.753099    4.160043   -2.457022
  29 N     7.0000    0    14.007   -9.450898   -1.656912    1.790138
  30 C     6.0000    0    12.011   -9.937125   -3.416814    3.885844
  31 C     6.0000    0    12.011  -10.357967    0.784992    1.816783
  32 O     8.0000    0    15.999  -11.650729    1.542772    3.676273
  33 H     1.0000    0     1.008   -9.510992    6.238364    1.019318
  34 H     1.0000    0     1.008  -11.063591    5.828860   -2.001976
  35 H     1.0000    0     1.008  -12.731085    5.093379    0.818818
  36 H     1.0000    0     1.008   -6.720811   -6.305449    0.570697
  37 H     1.0000    0     1.008   -4.224672   -5.691855   -3.747516
  38 H     1.0000    0     1.008   -3.978629   -2.466282   -7.307382
  39 H     1.0000    0     1.008   -6.062808    0.182925   -7.187384
  40 H     1.0000    0     1.008   -0.211649   -2.357055   -4.005464
  41 H     1.0000    0     1.008    7.674745   -3.007688   -1.421074
  42 H     1.0000    0     1.008   11.676996   -4.425739    0.415173
  43 H     1.0000    0     1.008   12.583308    2.813802    4.033431
  44 H     1.0000    0     1.008    8.618663    4.236199    2.246884
  45 H     1.0000    0     1.008    5.556362    5.735130   -0.290829
  46 H     1.0000    0     1.008  -10.359290   -5.336776    3.147528
  47 H     1.0000    0     1.008  -11.599139   -2.832888    5.026294
  48 H     1.0000    0     1.008   -8.252623   -3.508088    5.134764

--------------------------------
INTERNAL COORDINATES (ANGSTROEM)
--------------------------------
 C      0   0   0     0.000000000000     0.00000000     0.00000000
 N      1   0   0     1.473692155777     0.00000000     0.00000000
 C      2   1   0     1.376140701382   119.85359231     0.00000000
 O      3   2   1     1.261279132468   120.91910011   358.86336754
 C      3   2   1     1.393062586534   118.52111437   178.48202828
 C      5   3   2     1.361615940712   119.75607433   359.26385292
 C      6   5   3     1.383519656528   107.88904298   182.04092879
 C      7   6   5     1.388747507649   105.05730114   359.79131866
 N      5   3   2     1.353030021840   129.86312863   181.08909110
 C      9   5   3     1.464306829186   128.68554470     2.14120492
 C     10   9   5     1.498932116542   110.13516525    76.52097446
 O     11  10   9     1.260292366874   119.34963909   242.31632049
 N     11  10   9     1.436352641241   119.76312017    63.29192317
 C     13  11  10     1.434697577889   124.76520886   191.53601023
 N     14  13  11     1.349310764798   122.38769903   186.35189321
 C     15  14  13     1.363091831096   112.45055793   181.76688688
 C     16  15  14     1.486792366136   121.28549878   180.70588525
 C     17  16  15     1.406885944204   119.80967677    12.86982286
 C     18  17  16     1.397381544175   120.66378024   179.65997014
 C     19  18  17     1.398305900009   120.67302758     0.18201829
 O     20  19  18     1.404431023582   118.16580722   180.34800925
 C     21  20  19     1.425822271533   125.29998956   179.72150510
 F     22  21  20     1.383662289000   110.14101162    61.46449029
 F     22  21  20     1.381821656365   108.90858401   180.72314988
 F     22  21  20     1.383541148647   110.15669143   299.98365211
 C     20  19  18     1.406963801951   119.02362766     0.44427541
 C     26  20  19     1.398374520649   120.41765091   359.47609066
 C     16  15  14     1.399476405660   114.31011680     0.20997192
 S     28  16  15     1.681443802213   108.18957571     0.15174089
 N      6   5   3     1.362146706489   122.54466633     0.18159776
 C     30   6   5     1.470851447292   120.30431919   182.21458809
 C     30   6   5     1.378542581860   117.94741151   358.87201770
 O     32  30   6     1.263744361016   119.59644155   183.07954605
 H      1   2   3     1.110829374837   109.58499475   268.23876052
 H      1   2   3     1.110970661179   111.54221425    29.23048693
 H      1   2   3     1.111277355119   111.04172743   147.48068924
 H      7   6   5     1.081409367446   128.10973475   178.46047993
 H      8   7   6     1.082861399257   125.08444229   178.68661343
 H     10   9   5     1.111637108053   109.98155241   196.41691494
 H     10   9   5     1.110964432374   110.06378295   313.87310281
 H     13  11  10     1.044818247352   117.98092199    10.84805670
 H     18  17  16     1.082719405017   120.77869663     0.24444778
 H     19  18  17     1.082947242482   119.48855018   180.42061157
 H     26  20  19     1.080468773265   121.19935122   179.29080780
 H     27  26  20     1.080904380600   118.10081965   179.15401409
 H     28  16  15     1.080252359405   127.15955122   181.14362442
 H     31  30   6     1.111220072713   110.42526064   316.13249143
 H     31  30   6     1.110501463304   111.84607448   197.55167628
 H     31  30   6     1.110727536347   109.61974468    76.62908536

---------------------------
INTERNAL COORDINATES (A.U.)
---------------------------
 C      0   0   0     0.000000000000     0.00000000     0.00000000
 N      1   0   0     2.784874580127     0.00000000     0.00000000
 C      2   1   0     2.600529047354   119.85359231     0.00000000
 O      3   2   1     2.383472138795   120.91910011   358.86336754
 C      3   2   1     2.632506775961   118.52111437   178.48202828
 C      5   3   2     2.573081227527   119.75607433   359.26385292
 C      6   5   3     2.614473251735   107.88904298   182.04092879
 C      7   6   5     2.624352458621   105.05730114   359.79131866
 N      5   3   2     2.556856192251   129.86312863   181.08909110
 C      9   5   3     2.767138883192   128.68554470     2.14120492
 C     10   9   5     2.832571193603   110.13516525    76.52097446
 O     11  10   9     2.381607422063   119.34963909   242.31632049
 N     11  10   9     2.714313123680   119.76312017    63.29192317
 C     13  11  10     2.711185507210   124.76520886   191.53601023
 N     14  13  11     2.549827815020   122.38769903   186.35189321
 C     15  14  13     2.575870256156   112.45055793   181.76688688
 C     16  15  14     2.809630390002   121.28549878   180.70588525
 C     17  16  15     2.658629136210   119.80967677    12.86982286
 C     18  17  16     2.640668423086   120.66378024   179.65997014
 C     19  18  17     2.642415202463   120.67302758     0.18201829
 O     20  19  18     2.653990008553   118.16580722   180.34800925
 C     21  20  19     2.694413608843   125.29998956   179.72150510
 F     22  21  20     2.614742788044   110.14101162    61.46449029
 F     22  21  20     2.611264496452   108.90858401   180.72314988
 F     22  21  20     2.614513865954   110.15669143   299.98365211
 C     20  19  18     2.658776266028   119.02362766     0.44427541
 C     26  20  19     2.642544876680   120.41765091   359.47609066
 C     16  15  14     2.644627137583   114.31011680     0.20997192
 S     28  16  15     3.177468295762   108.18957571     0.15174089
 N      6   5   3     2.574084229488   122.54466633     0.18159776
 C     30   6   5     2.779506419063   120.30431919   182.21458809
 C     30   6   5     2.605067943663   117.94741151   358.87201770
 O     32  30   6     2.388130745608   119.59644155   183.07954605
 H      1   2   3     2.099163299956   109.58499475   268.23876052
 H      1   2   3     2.099430292449   111.54221425    29.23048693
 H      1   2   3     2.100009860003   111.04172743   147.48068924
 H      7   6   5     2.043567543130   128.10973475   178.46047993
 H      8   7   6     2.046311485590   125.08444229   178.68661343
 H     10   9   5     2.100689694524   109.98155241   196.41691494
 H     10   9   5     2.099418521714   110.06378295   313.87310281
 H     13  11  10     1.974420347219   117.98092199    10.84805670
 H     18  17  16     2.046043155364   120.77869663     0.24444778
 H     19  18  17     2.046473705777   119.48855018   180.42061157
 H     26  20  19     2.041790077724   121.19935122   179.29080780
 H     27  26  20     2.042613256290   118.10081965   179.15401409
 H     28  16  15     2.041381114798   127.15955122   181.14362442
 H     31  30   6     2.099901611943   110.42526064   316.13249143
 H     31  30   6     2.098543636963   111.84607448   197.55167628
 H     31  30   6     2.098970853101   109.61974468    76.62908536

---------------------
BASIS SET INFORMATION
---------------------
There are 6 groups of distinct atoms

 Group   1 Type C   : 10s4p1d contracted to 3s2p1d pattern {631/31/1}
 Group   2 Type N   : 10s4p1d contracted to 3s2p1d pattern {631/31/1}
 Group   3 Type O   : 10s4p1d contracted to 3s2p1d pattern {631/31/1}
 Group   4 Type F   : 10s4p1d contracted to 3s2p1d pattern {631/31/1}
 Group   5 Type S   : 16s10p1d contracted to 4s3p1d pattern {6631/631/1}
 Group   6 Type H   : 4s contracted to 2s pattern {31}

Atom   0C    basis set group =>   1
Atom   1N    basis set group =>   2
Atom   2C    basis set group =>   1
Atom   3O    basis set group =>   3
Atom   4C    basis set group =>   1
Atom   5C    basis set group =>   1
Atom   6C    basis set group =>   1
Atom   7C    basis set group =>   1
Atom   8N    basis set group =>   2
Atom   9C    basis set group =>   1
Atom  10C    basis set group =>   1
Atom  11O    basis set group =>   3
Atom  12N    basis set group =>   2
Atom  13C    basis set group =>   1
Atom  14N    basis set group =>   2
Atom  15C    basis set group =>   1
Atom  16C    basis set group =>   1
Atom  17C    basis set group =>   1
Atom  18C    basis set group =>   1
Atom  19C    basis set group =>   1
Atom  20O    basis set group =>   3
Atom  21C    basis set group =>   1
Atom  22F    basis set group =>   4
Atom  23F    basis set group =>   4
Atom  24F    basis set group =>   4
Atom  25C    basis set group =>   1
Atom  26C    basis set group =>   1
Atom  27C    basis set group =>   1
Atom  28S    basis set group =>   5
Atom  29N    basis set group =>   2
Atom  30C    basis set group =>   1
Atom  31C    basis set group =>   1
Atom  32O    basis set group =>   3
Atom  33H    basis set group =>   6
Atom  34H    basis set group =>   6
Atom  35H    basis set group =>   6
Atom  36H    basis set group =>   6
Atom  37H    basis set group =>   6
Atom  38H    basis set group =>   6
Atom  39H    basis set group =>   6
Atom  40H    basis set group =>   6
Atom  41H    basis set group =>   6
Atom  42H    basis set group =>   6
Atom  43H    basis set group =>   6
Atom  44H    basis set group =>   6
Atom  45H    basis set group =>   6
Atom  46H    basis set group =>   6
Atom  47H    basis set group =>   6
Atom  48H    basis set group =>   6
---------------------------------
AUXILIARY/J BASIS SET INFORMATION
---------------------------------
There are 6 groups of distinct atoms

 Group   1 Type C   : 12s5p4d2f1g contracted to 6s4p3d1f1g pattern {711111/2111/211/2/1}
 Group   2 Type N   : 12s5p4d2f1g contracted to 6s4p3d1f1g pattern {711111/2111/211/2/1}
 Group   3 Type O   : 12s5p4d2f1g contracted to 6s4p3d1f1g pattern {711111/2111/211/2/1}
 Group   4 Type F   : 12s5p4d2f1g contracted to 6s4p3d1f1g pattern {711111/2111/211/2/1}
 Group   5 Type S   : 14s5p5d2f1g contracted to 8s4p3d1f1g pattern {71111111/2111/311/2/1}
 Group   6 Type H   : 5s2p1d contracted to 3s1p1d pattern {311/2/1}

Atom   0C    basis set group =>   1
Atom   1N    basis set group =>   2
Atom   2C    basis set group =>   1
Atom   3O    basis set group =>   3
Atom   4C    basis set group =>   1
Atom   5C    basis set group =>   1
Atom   6C    basis set group =>   1
Atom   7C    basis set group =>   1
Atom   8N    basis set group =>   2
Atom   9C    basis set group =>   1
Atom  10C    basis set group =>   1
Atom  11O    basis set group =>   3
Atom  12N    basis set group =>   2
Atom  13C    basis set group =>   1
Atom  14N    basis set group =>   2
Atom  15C    basis set group =>   1
Atom  16C    basis set group =>   1
Atom  17C    basis set group =>   1
Atom  18C    basis set group =>   1
Atom  19C    basis set group =>   1
Atom  20O    basis set group =>   3
Atom  21C    basis set group =>   1
Atom  22F    basis set group =>   4
Atom  23F    basis set group =>   4
Atom  24F    basis set group =>   4
Atom  25C    basis set group =>   1
Atom  26C    basis set group =>   1
Atom  27C    basis set group =>   1
Atom  28S    basis set group =>   5
Atom  29N    basis set group =>   2
Atom  30C    basis set group =>   1
Atom  31C    basis set group =>   1
Atom  32O    basis set group =>   3
Atom  33H    basis set group =>   6
Atom  34H    basis set group =>   6
Atom  35H    basis set group =>   6
Atom  36H    basis set group =>   6
Atom  37H    basis set group =>   6
Atom  38H    basis set group =>   6
Atom  39H    basis set group =>   6
Atom  40H    basis set group =>   6
Atom  41H    basis set group =>   6
Atom  42H    basis set group =>   6
Atom  43H    basis set group =>   6
Atom  44H    basis set group =>   6
Atom  45H    basis set group =>   6
Atom  46H    basis set group =>   6
Atom  47H    basis set group =>   6
Atom  48H    basis set group =>   6
------------------------------------------------------------------------------
                             ORCA STARTUP CALCULATIONS
                           -- RI-GTO INTEGRALS CHOSEN --
------------------------------------------------------------------------------
------------------------------------------------------------------------------
                   ___                                                        
                  /   \      - P O W E R E D   B Y -                         
                 /     \                                                     
                 |  |  |   _    _      __       _____    __    __             
                 |  |  |  | |  | |    /  \     |  _  \  |  |  /  |          
                  \  \/   | |  | |   /    \    | | | |  |  | /  /          
                 / \  \   | |__| |  /  /\  \   | |_| |  |  |/  /          
                |  |  |   |  __  | /  /__\  \  |    /   |      \           
                |  |  |   | |  | | |   __   |  |    \   |  |\   \          
                \     /   | |  | | |  |  |  |  | |\  \  |  | \   \       
                 \___/    |_|  |_| |__|  |__|  |_| \__\ |__|  \__/        
                                                                              
                      - O R C A' S   B I G   F R I E N D -                    
                                      &                                       
                       - I N T E G R A L  F E E D E R -                       
                                                                              
 v1 FN, 2020, v2 2021, v3 2022-2024                                           
------------------------------------------------------------------------------


----------------------
SHARK INTEGRAL PACKAGE
----------------------

Number of atoms                             ...     49
Number of basis functions                   ...    498
Number of shells                            ...    232
Maximum angular momentum                    ...      2
Integral batch strategy                     ... SHARK/LIBINT Hybrid
RI-J (if used) integral strategy            ... SPLIT-RIJ (Revised 2003 algorithm where possible)
Printlevel                                  ...      1
Contraction scheme used                     ... SEGMENTED contraction
Prescreening option                         ... SCHWARTZ
   Thresh                                   ... 1.000e-10
   Tcut                                     ... 1.000e-11
   Tpresel                                  ... 1.000e-11 
Coulomb Range Separation                    ... NOT USED
Exchange Range Separation                   ... NOT USED
Multipole approximations                    ... NOT USED
Finite Nucleus Model                        ... NOT USED
CABS basis                                  ... NOT available
Auxiliary Coulomb fitting basis             ... AVAILABLE
   # of basis functions in Aux-J            ...   1795
   # of shells in Aux-J                     ...    577
   Maximum angular momentum in Aux-J        ...      4
Auxiliary J/K fitting basis                 ... NOT available
Auxiliary Correlation fitting basis         ... NOT available
Auxiliary 'external' fitting basis          ... NOT available

Checking pre-screening integrals            ... done (  0.0 sec) Dimension = 232
Check shell pair data                       ... done (  0.0 sec)
Shell pair information
Shell pair cut-off parameter TPreSel        ...   1.0e-11
Total number of shell pairs                 ...     27028
Shell pairs after pre-screening             ...     13014
Total number of primitive shell pairs       ...    164077
Primitive shell pairs kept                  ...     42049
          la=0 lb=0:   3961 shell pairs
          la=1 lb=0:   4593 shell pairs
          la=1 lb=1:   1340 shell pairs
          la=2 lb=0:   1803 shell pairs
          la=2 lb=1:   1090 shell pairs
          la=2 lb=2:    227 shell pairs

Calculating one electron integrals          ... done (  0.1 sec)
Calculating RI/J V-Matrix + Cholesky decomp.... done (  0.3 sec)
Calculating Nuclear repulsion               ... done (  0.0 sec) ENN=   3336.411447755797 Eh

Diagonalization of the overlap matrix:
Smallest eigenvalue                        ... 4.531e-04
Time for diagonalization                   ...    0.034 sec
Threshold for overlap eigenvalues          ... 1.000e-07
Number of eigenvalues below threshold      ... 0
Time for construction of square roots      ...    0.030 sec
Total time needed                          ...    0.076 sec

-------------------
DFT GRID GENERATION
-------------------

General Integration Accuracy     IntAcc      ... 4.388
Radial Grid Type                 RadialGrid  ... OptM3 with GC (2021)
Angular Grid (max. ang.)         AngularGrid ... 4 (Lebedev-302)
Angular grid pruning method      GridPruning ... 4 (adaptive)
Weight generation scheme         WeightScheme... mBecke (2022)
Basis function cutoff            BFCut       ... 1.0000e-10
Integration weight cutoff        WCut        ... 1.0000e-14
Partially contracted basis set               ... off
Rotationally invariant grid construction     ... off
Angular grids for H and He will be reduced by one unit

Total number of grid points                  ...   250476
Total number of batches                      ...     3938
Average number of points per batch           ...       63
Average number of grid points per atom       ...     5112

--------------------
COSX GRID GENERATION
--------------------

GRIDX 1
-------
General Integration Accuracy     IntAcc      ... 3.816
Radial Grid Type                 RadialGrid  ... OptM3 with GC (2021)
Angular Grid (max. ang.)         AngularGrid ... 1 (Lebedev-50)
Angular grid pruning method      GridPruning ... 4 (adaptive)
Weight generation scheme         WeightScheme... mBecke (2022)
Basis function cutoff            BFCut       ... 1.0000e-10
Integration weight cutoff        WCut        ... 1.0000e-14
Partially contracted basis set               ... on
Rotationally invariant grid construction     ... off
Angular grids for H and He will be reduced by one unit

Total number of grid points                  ...    32682
Total number of batches                      ...      281
Average number of points per batch           ...      116
Average number of grid points per atom       ...      667
UseSFitting                                  ... on

GRIDX 2
-------
General Integration Accuracy     IntAcc      ... 4.020
Radial Grid Type                 RadialGrid  ... OptM3 with GC (2021)
Angular Grid (max. ang.)         AngularGrid ... 2 (Lebedev-110)
Angular grid pruning method      GridPruning ... 4 (adaptive)
Weight generation scheme         WeightScheme... mBecke (2022)
Basis function cutoff            BFCut       ... 1.0000e-10
Integration weight cutoff        WCut        ... 1.0000e-14
Partially contracted basis set               ... on
Rotationally invariant grid construction     ... off
Angular grids for H and He will be reduced by one unit

Total number of grid points                  ...    70343
Total number of batches                      ...      576
Average number of points per batch           ...      122
Average number of grid points per atom       ...     1436
UseSFitting                                  ... on

GRIDX 3
-------
General Integration Accuracy     IntAcc      ... 4.338
Radial Grid Type                 RadialGrid  ... OptM3 with GC (2021)
Angular Grid (max. ang.)         AngularGrid ... 3 (Lebedev-194)
Angular grid pruning method      GridPruning ... 4 (adaptive)
Weight generation scheme         WeightScheme... mBecke (2022)
Basis function cutoff            BFCut       ... 1.0000e-10
Integration weight cutoff        WCut        ... 1.0000e-14
Partially contracted basis set               ... on
Rotationally invariant grid construction     ... off
Angular grids for H and He will be reduced by one unit

Total number of grid points                  ...   154965
Total number of batches                      ...     1234
Average number of points per batch           ...      125
Average number of grid points per atom       ...     3163
UseSFitting                                  ... on
Initializing property integral containers    ... done (  0.0 sec)

SHARK setup successfully completed in   8.7 seconds

Maximum memory used throughout the entire STARTUP-calculation: 104.6 MB
-------------------------------------------------------------------------------
                                 ORCA GUESS
                   Start orbitals & Density for SCF / CASSCF
-------------------------------------------------------------------------------

------------
SCF SETTINGS
------------
Hamiltonian:
 Density Functional     Method          .... DFT(GTOs)
 Exchange Functional    Exchange        .... B88
   X-Alpha parameter    XAlpha          ....  0.666667
   Becke's b parameter  XBeta           ....  0.004200
 Correlation Functional Correlation     .... LYP
 LDA part of GGA corr.  LDAOpt          .... VWN-5
 Gradients option       PostSCFGGA      .... off
 Hybrid DFT is turned on
   Fraction HF Exchange ScalHFX         ....  0.200000
   Scaling of DF-GGA-X  ScalDFX         ....  0.720000
   Scaling of DF-GGA-C  ScalDFC         ....  0.810000
   Scaling of DF-LDA-C  ScalLDAC        ....  1.000000
   Perturbative correction              ....  0.000000
   NL short-range parameter             ....  4.800000
 RI-approximation to the Coulomb term is turned on
   Number of AuxJ basis functions       .... 1795
   RIJ-COSX (HFX calculated with COS-X)).... on


General Settings:
 Integral files         IntName         .... /home/nmrbox/aojoawo/Documents/ERDOS/inputs/CHEMBL3931425
 Hartree-Fock type      HFTyp           .... RHF
 Total Charge           Charge          ....    0
 Multiplicity           Mult            ....    1
 Number of Electrons    NEL             ....  246
 Basis Dimension        Dim             ....  498
 Nuclear Repulsion      ENuc            ....   3336.4114477558 Eh

Convergence Acceleration:
 AO-DIIS                CNVDIIS         .... on
   Start iteration      DIISMaxIt       ....    12
   Startup error        DIISStart       ....  0.200000
   # of expansion vecs  DIISMaxEq       ....     5
   Bias factor          DIISBfac        ....   1.050
   Max. coefficient     DIISMaxC        ....  10.000
 MO-DIIS                CNVKDIIS        .... off
 Trust-Rad. Augm. Hess. CNVTRAH         .... auto
   Auto Start mean grad. ratio tolernc. ....  1.125000
   Auto Start start iteration           ....    50
   Auto Start num. interpolation iter.  ....    10
   Max. Number of Micro iterations      ....    24
   Max. Number of Macro iterations      .... Maxiter - #DIIS iter
   Number of Davidson start vectors     ....     2
   Converg. threshold    (grad. norm)   ....   5.000e-05
   Grad. Scal. Fac. for Micro threshold ....   0.100
   Minimum threshold for Micro iter.    ....   1.000e-02
   NR start threshold (gradient norm)   ....   1.000e-04
   Initial trust radius                 ....   0.400
   Minimum AH scaling param. (alpha)    ....   1.000
   Maximum AH scaling param. (alpha)    .... 1000.000
   Quad. conv. algorithm                .... NR
   White noise on init. David. guess    .... on
   Maximum white noise                  ....   0.010
   Pseudo random numbers                .... off
   Inactive MOs                         .... canonical
   Orbital update algorithm             .... Taylor
   Preconditioner                       .... Diag
   Full preconditioner red. dimension   ....   250
 SOSCF                  CNVSOSCF        .... on
   Start iteration      SOSCFMaxIt      ....   150
   Startup grad/error   SOSCFStart      ....  0.003300
   Hessian update       SOSCFHessUp     .... L-BFGS
 Level Shifting         CNVShift        .... on
   Level shift para.    LevelShift      ....    0.2500
   Turn off err/grad.   ShiftErr        ....    0.0010
 Zerner damping         CNVZerner       .... off
 Static damping         CNVDamp         .... on
   Fraction old density DampFac         ....    0.7000
   Max. Damping (<1)    DampMax         ....    0.9800
   Min. Damping (>=0)   DampMin         ....    0.0000
   Turn off err/grad.   DampErr         ....    0.1000

SCF Procedure:
 Maximum # iterations   MaxIter         ....   125
 SCF integral mode      SCFMode         .... Direct
   Integral package                     .... SHARK and LIBINT hybrid scheme
 Reset frequency        DirectResetFreq ....    20
 Integral Threshold     Thresh          ....  1.000e-10 Eh
 Primitive CutOff       TCut            ....  1.000e-11 Eh

Convergence Tolerance:
 Convergence Check Mode ConvCheckMode   .... Total+1el-Energy
 Convergence forced     ConvForced      .... 0
 Energy Change          TolE            ....  1.000e-06 Eh
 1-El. energy change                    ....  1.000e-03 Eh
 Orbital Gradient       TolG            ....  5.000e-05
 Orbital Rotation angle TolX            ....  5.000e-05
 DIIS Error             TolErr          ....  1.000e-06

------------------------------
INITIAL GUESS: MODEL POTENTIAL
------------------------------
Loading Hartree-Fock densities                     ... done
Calculating cut-offs                               ... done
Initializing the effective Hamiltonian             ... done
Setting up the integral package (SHARK)            ... done
Starting the Coulomb interaction                   ... done (   1.9 sec)
Making the grid                                    ... done (   1.0 sec)
Mapping shells                                     ... done
Starting the XC term evaluation                    ... done (   0.8 sec)
  promolecular density results
     # of electrons  =    246.001507837
     EX              =   -228.519106553
     EC              =     -8.752355012
     EX+EC           =   -237.271461565
Transforming the Hamiltonian                       ... done (   0.0 sec)
Diagonalizing the Hamiltonian                      ... done (   0.0 sec)
Back transforming the eigenvectors                 ... done (   0.0 sec)
Now organizing SCF variables                       ... done
                      ------------------
                      INITIAL GUESS DONE (   3.8 sec)
                      ------------------
             **** ENERGY FILE WAS UPDATED (/home/nmrbox/aojoawo/Documents/ERDOS/inputs/CHEMBL3931425.en.tmp) ****
Finished Guess after   4.1 sec
Maximum memory used throughout the entire GUESS-calculation: 56.4 MB

-------------------------------------------------------------------------------------------
                                      ORCA LEAN-SCF
                              memory conserving SCF solver
-------------------------------------------------------------------------------------------

----------------------------------------D-I-I-S--------------------------------------------
Iteration    Energy (Eh)           Delta-E    RMSDP     MaxDP     DIISErr   Damp  Time(sec)
-------------------------------------------------------------------------------------------
               ***  Starting incremental Fock matrix formation  ***
    1    -2042.2874700999400375     0.00e+00  2.45e-03  1.20e-01  2.88e-01  0.700  38.3
    2    -2042.7234591644219108    -4.36e-01  1.47e-03  5.99e-02  1.01e-01  0.700  17.2
                               ***Turning on AO-DIIS***
    3    -2042.8664677985543676    -1.43e-01  5.52e-04  1.82e-02  4.20e-02  0.700  16.4
    4    -2042.9621201005011244    -9.57e-02  9.45e-04  5.13e-02  1.77e-02  0.000  15.2
    5    -2043.1802416898271986    -2.18e-01  2.42e-04  9.95e-03  1.01e-02  0.000  16.2
    6    -2043.1819644310244257    -1.72e-03  8.61e-05  4.03e-03  3.35e-03  0.000  13.8
                              *** Initializing SOSCF ***
---------------------------------------S-O-S-C-F--------------------------------------
Iteration    Energy (Eh)           Delta-E    RMSDP     MaxDP     MaxGrad    Time(sec)
--------------------------------------------------------------------------------------
    7    -2043.1820926468335529    -1.28e-04  2.90e-05  1.22e-03  1.96e-03    12.7
               *** Restarting incremental Fock matrix formation ***
    8    -2043.1820785824565974     1.41e-05  2.58e-05  1.21e-03  1.88e-04    37.7
    9    -2043.1820768730158306     1.71e-06  1.36e-05  7.07e-04  4.17e-04    19.8
   10    -2043.1820828365425768    -5.96e-06  6.50e-06  2.24e-04  5.25e-05    17.0
   11    -2043.1820826071043484     2.29e-07  3.02e-06  1.75e-04  6.86e-05    15.6
                 **** Energy Check signals convergence ****

               *****************************************************
               *                     SUCCESS                       *
               *           SCF CONVERGED AFTER  11 CYCLES          *
               *****************************************************

Recomputing exchange energy using gridx3       ... done (   66.322 sec)
Old exchange energy                            :    -46.115266663 Eh
New exchange energy                            :    -46.115291926 Eh
Exchange energy change after final integration :     -0.000025263 Eh
Total energy after final integration           :  -2043.182107870 Eh
             **** ENERGY FILE WAS UPDATED (/home/nmrbox/aojoawo/Documents/ERDOS/inputs/CHEMBL3931425.en.tmp) ****

----------------
TOTAL SCF ENERGY
----------------

Total Energy       :      -2043.18210787018666 Eh          -55597.81169 eV

Components:
Nuclear Repulsion  :       3336.41144775579687 Eh           90788.37109 eV
Electronic Energy  :      -5379.59353036290122 Eh         -146386.18209 eV
One Electron Energy:      -9438.75658418496278 Eh         -256841.62423 eV
Two Electron Energy:       4059.16305382206156 Eh          110455.44214 eV

Virial components:
Potential Energy   :      -4075.45322821994523 Eh         -110898.72032 eV
Kinetic Energy     :       2032.27112034975835 Eh           55300.90863 eV
Virial Ratio       :          2.00536886412997

DFT components:
N(Alpha)           :      122.999938935872 electrons
N(Beta)            :      122.999938935872 electrons
N(Total)           :      245.999877871744 electrons
E(X)               :     -183.396173136141 Eh       
E(C)               :      -10.267581833126 Eh       
E(XC)              :     -193.663754969268 Eh       

---------------
SCF CONVERGENCE
---------------

  Last Energy change         ...   -2.2944e-07  Tolerance :   1.0000e-06
  Last MAX-Density change    ...    1.7527e-04  Tolerance :   1.0000e-05
  Last RMS-Density change    ...    3.0168e-06  Tolerance :   1.0000e-06
  Last DIIS Error            ...    1.9612e-03  Tolerance :   1.0000e-06
  Last Orbital Gradient      ...    6.8603e-05  Tolerance :   5.0000e-05
  Last Orbital Rotation      ...    1.0251e-04  Tolerance :   5.0000e-05


----------------
ORBITAL ENERGIES
----------------

  NO   OCC          E(Eh)            E(eV) 
   0   2.0000     -88.903946     -2419.1994 
   1   2.0000     -24.739761      -673.2031 
   2   2.0000     -24.737506      -673.1418 
   3   2.0000     -24.737433      -673.1398 
   4   2.0000     -19.210588      -522.7467 
   5   2.0000     -19.139393      -520.8094 
   6   2.0000     -19.101902      -519.7892 
   7   2.0000     -19.100676      -519.7558 
   8   2.0000     -14.415397      -392.2629 
   9   2.0000     -14.402557      -391.9135 
  10   2.0000     -14.393910      -391.6782 
  11   2.0000     -14.388446      -391.5295 
  12   2.0000     -14.333313      -390.0293 
  13   2.0000     -10.502467      -285.7867 
  14   2.0000     -10.318636      -280.7843 
  15   2.0000     -10.318154      -280.7713 
  16   2.0000     -10.292535      -280.0741 
  17   2.0000     -10.285496      -279.8826 
  18   2.0000     -10.265452      -279.3371 
  19   2.0000     -10.261108      -279.2189 
  20   2.0000     -10.236738      -278.5558 
  21   2.0000     -10.232642      -278.4444 
  22   2.0000     -10.231565      -278.4150 
  23   2.0000     -10.226638      -278.2810 
  24   2.0000     -10.216482      -278.0046 
  25   2.0000     -10.212592      -277.8988 
  26   2.0000     -10.206017      -277.7198 
  27   2.0000     -10.201266      -277.5906 
  28   2.0000     -10.195984      -277.4468 
  29   2.0000     -10.194771      -277.4138 
  30   2.0000     -10.193422      -277.3771 
  31   2.0000     -10.191223      -277.3173 
  32   2.0000     -10.191066      -277.3130 
  33   2.0000      -7.980034      -217.1478 
  34   2.0000      -5.943174      -161.7220 
  35   2.0000      -5.938876      -161.6050 
  36   2.0000      -5.937045      -161.5552 
  37   2.0000      -1.302525       -35.4435 
  38   2.0000      -1.223359       -33.2893 
  39   2.0000      -1.222892       -33.2766 
  40   2.0000      -1.080575       -29.4039 
  41   2.0000      -1.061559       -28.8865 
  42   2.0000      -1.042380       -28.3646 
  43   2.0000      -1.026494       -27.9323 
  44   2.0000      -1.008631       -27.4463 
  45   2.0000      -0.980026       -26.6679 
  46   2.0000      -0.961730       -26.1700 
  47   2.0000      -0.930247       -25.3133 
  48   2.0000      -0.922045       -25.0901 
  49   2.0000      -0.862595       -23.4724 
  50   2.0000      -0.842306       -22.9203 
  51   2.0000      -0.810282       -22.0489 
  52   2.0000      -0.785237       -21.3674 
  53   2.0000      -0.784436       -21.3456 
  54   2.0000      -0.756581       -20.5876 
  55   2.0000      -0.753068       -20.4920 
  56   2.0000      -0.733207       -19.9516 
  57   2.0000      -0.731353       -19.9011 
  58   2.0000      -0.707458       -19.2509 
  59   2.0000      -0.695506       -18.9257 
  60   2.0000      -0.650973       -17.7139 
  61   2.0000      -0.646195       -17.5839 
  62   2.0000      -0.635540       -17.2939 
  63   2.0000      -0.631871       -17.1941 
  64   2.0000      -0.621798       -16.9200 
  65   2.0000      -0.601711       -16.3734 
  66   2.0000      -0.596640       -16.2354 
  67   2.0000      -0.594718       -16.1831 
  68   2.0000      -0.591088       -16.0843 
  69   2.0000      -0.587918       -15.9981 
  70   2.0000      -0.570601       -15.5268 
  71   2.0000      -0.565243       -15.3810 
  72   2.0000      -0.540640       -14.7116 
  73   2.0000      -0.523559       -14.2468 
  74   2.0000      -0.514963       -14.0129 
  75   2.0000      -0.505426       -13.7533 
  76   2.0000      -0.500562       -13.6210 
  77   2.0000      -0.493862       -13.4387 
  78   2.0000      -0.488329       -13.2881 
  79   2.0000      -0.476062       -12.9543 
  80   2.0000      -0.468420       -12.7463 
  81   2.0000      -0.467357       -12.7174 
  82   2.0000      -0.461094       -12.5470 
  83   2.0000      -0.458884       -12.4869 
  84   2.0000      -0.458377       -12.4731 
  85   2.0000      -0.454786       -12.3754 
  86   2.0000      -0.449894       -12.2422 
  87   2.0000      -0.444085       -12.0842 
  88   2.0000      -0.443494       -12.0681 
  89   2.0000      -0.439414       -11.9571 
  90   2.0000      -0.436379       -11.8745 
  91   2.0000      -0.432348       -11.7648 
  92   2.0000      -0.428405       -11.6575 
  93   2.0000      -0.423065       -11.5122 
  94   2.0000      -0.421302       -11.4642 
  95   2.0000      -0.419087       -11.4039 
  96   2.0000      -0.415044       -11.2939 
  97   2.0000      -0.410508       -11.1705 
  98   2.0000      -0.405824       -11.0430 
  99   2.0000      -0.399984       -10.8841 
 100   2.0000      -0.396710       -10.7950 
 101   2.0000      -0.392020       -10.6674 
 102   2.0000      -0.389709       -10.6045 
 103   2.0000      -0.388072       -10.5600 
 104   2.0000      -0.379119       -10.3163 
 105   2.0000      -0.374916       -10.2020 
 106   2.0000      -0.369723       -10.0607 
 107   2.0000      -0.354767        -9.6537 
 108   2.0000      -0.352555        -9.5935 
 109   2.0000      -0.345136        -9.3916 
 110   2.0000      -0.322769        -8.7830 
 111   2.0000      -0.315817        -8.5938 
 112   2.0000      -0.289892        -7.8884 
 113   2.0000      -0.278413        -7.5760 
 114   2.0000      -0.270888        -7.3712 
 115   2.0000      -0.265603        -7.2274 
 116   2.0000      -0.259268        -7.0550 
 117   2.0000      -0.257643        -7.0108 
 118   2.0000      -0.250875        -6.8267 
 119   2.0000      -0.248634        -6.7657 
 120   2.0000      -0.240695        -6.5497 
 121   2.0000      -0.216446        -5.8898 
 122   2.0000      -0.209539        -5.7019 
 123   0.0000      -0.044425        -1.2089 
 124   0.0000      -0.030486        -0.8296 
 125   0.0000      -0.024557        -0.6682 
 126   0.0000      -0.009874        -0.2687 
 127   0.0000       0.015108         0.4111 
 128   0.0000       0.023116         0.6290 
 129   0.0000       0.036274         0.9871 
 130   0.0000       0.051605         1.4043 
 131   0.0000       0.056106         1.5267 
 132   0.0000       0.071982         1.9587 
 133   0.0000       0.077009         2.0955 
*Only the first 10 virtual orbitals were printed.

                    ********************************
                    * MULLIKEN POPULATION ANALYSIS *
                    ********************************

-----------------------
MULLIKEN ATOMIC CHARGES
-----------------------
   0 C :   -0.312298
   1 N :   -0.489019
   2 C :    0.546921
   3 O :   -0.506729
   4 C :    0.205989
   5 C :    0.286720
   6 C :   -0.210265
   7 C :   -0.004392
   8 N :   -0.428698
   9 C :   -0.254126
  10 C :    0.574443
  11 O :   -0.418840
  12 N :   -0.644576
  13 C :    0.259582
  14 N :   -0.438758
  15 C :    0.213142
  16 C :    0.117970
  17 C :   -0.163398
  18 C :   -0.173319
  19 C :    0.356230
  20 O :   -0.546290
  21 C :    1.085749
  22 F :   -0.291662
  23 F :   -0.279711
  24 F :   -0.291568
  25 C :   -0.195244
  26 C :   -0.178525
  27 C :   -0.404934
  28 S :    0.325894
  29 N :   -0.506611
  30 C :   -0.328302
  31 C :    0.667166
  32 O :   -0.515573
  33 H :    0.176473
  34 H :    0.195406
  35 H :    0.189666
  36 H :    0.144190
  37 H :    0.152084
  38 H :    0.175754
  39 H :    0.240019
  40 H :    0.348640
  41 H :    0.155177
  42 H :    0.146661
  43 H :    0.151652
  44 H :    0.134735
  45 H :    0.181943
  46 H :    0.164486
  47 H :    0.212974
  48 H :    0.173173
Sum of atomic charges:   -0.0000000

--------------------------------
MULLIKEN REDUCED ORBITAL CHARGES
--------------------------------
  0 C s       :     3.267481  s :     3.267481
      pz      :     1.120733  p :     2.999502
      px      :     1.076964
      py      :     0.801805
      dz2     :     0.008369  d :     0.045314
      dxz     :     0.006266
      dyz     :     0.008056
      dx2y2   :     0.011892
      dxy     :     0.010732

  1 N s       :     3.609881  s :     3.609881
      pz      :     1.221392  p :     3.841907
      px      :     1.436718
      py      :     1.183797
      dz2     :     0.006998  d :     0.037231
      dxz     :     0.006022
      dyz     :     0.010829
      dx2y2   :     0.006607
      dxy     :     0.006775

  2 C s       :     2.940178  s :     2.940178
      pz      :     0.730983  p :     2.404131
      px      :     0.816871
      py      :     0.856277
      dz2     :     0.029401  d :     0.108770
      dxz     :     0.021952
      dyz     :     0.022149
      dx2y2   :     0.020045
      dxy     :     0.015223

  3 O s       :     3.889837  s :     3.889837
      pz      :     1.451033  p :     4.591190
      px      :     1.550244
      py      :     1.589913
      dz2     :     0.006719  d :     0.025703
      dxz     :     0.004333
      dyz     :     0.007397
      dx2y2   :     0.003035
      dxy     :     0.004219

  4 C s       :     3.023204  s :     3.023204
      pz      :     0.887216  p :     2.713515
      px      :     1.002786
      py      :     0.823513
      dz2     :     0.012973  d :     0.057293
      dxz     :     0.009161
      dyz     :     0.014043
      dx2y2   :     0.010688
      dxy     :     0.010428

  5 C s       :     3.009894  s :     3.009894
      pz      :     0.859308  p :     2.639616
      px      :     0.892792
      py      :     0.887516
      dz2     :     0.014765  d :     0.063770
      dxz     :     0.011847
      dyz     :     0.015342
      dx2y2   :     0.011176
      dxy     :     0.010640

  6 C s       :     3.169742  s :     3.169742
      pz      :     0.971883  p :     3.004262
      px      :     1.047778
      py      :     0.984601
      dz2     :     0.007474  d :     0.036261
      dxz     :     0.004669
      dyz     :     0.010149
      dx2y2   :     0.008030
      dxy     :     0.005939

  7 C s       :     3.113062  s :     3.113062
      pz      :     0.990214  p :     2.837354
      px      :     1.027518
      py      :     0.819622
      dz2     :     0.010783  d :     0.053975
      dxz     :     0.008303
      dyz     :     0.013269
      dx2y2   :     0.009616
      dxy     :     0.012004

  8 N s       :     3.586184  s :     3.586184
      pz      :     1.219690  p :     3.794366
      px      :     1.382080
      py      :     1.192596
      dz2     :     0.009275  d :     0.048147
      dxz     :     0.007936
      dyz     :     0.012713
      dx2y2   :     0.009617
      dxy     :     0.008606

  9 C s       :     3.264659  s :     3.264659
      pz      :     0.892117  p :     2.937726
      px      :     1.001144
      py      :     1.044464
      dz2     :     0.009502  d :     0.051741
      dxz     :     0.012411
      dyz     :     0.012498
      dx2y2   :     0.005145
      dxy     :     0.012186

 10 C s       :     3.001346  s :     3.001346
      pz      :     0.796764  p :     2.326065
      px      :     0.780163
      py      :     0.749138
      dz2     :     0.010438  d :     0.098145
      dxz     :     0.008861
      dyz     :     0.021068
      dx2y2   :     0.022085
      dxy     :     0.035693

 11 O s       :     3.905157  s :     3.905157
      pz      :     1.436104  p :     4.487291
      px      :     1.728245
      py      :     1.322941
      dz2     :     0.003110  d :     0.026392
      dxz     :     0.000497
      dyz     :     0.009007
      dx2y2   :     0.007327
      dxy     :     0.006452

 12 N s       :     3.624482  s :     3.624482
      pz      :     1.531779  p :     3.991732
      px      :     1.265749
      py      :     1.194204
      dz2     :     0.005331  d :     0.028361
      dxz     :     0.005313
      dyz     :     0.002639
      dx2y2   :     0.009883
      dxy     :     0.005195

 13 C s       :     3.042764  s :     3.042764
      pz      :     0.974815  p :     2.625066
      px      :     0.829450
      py      :     0.820800
      dz2     :     0.009800  d :     0.072589
      dxz     :     0.012715
      dyz     :     0.011372
      dx2y2   :     0.020283
      dxy     :     0.018419

 14 N s       :     3.696832  s :     3.696832
      pz      :     1.177611  p :     3.703742
      px      :     1.033686
      py      :     1.492444
      dz2     :     0.005881  d :     0.038184
      dxz     :     0.005042
      dyz     :     0.008233
      dx2y2   :     0.007009
      dxy     :     0.012019

 15 C s       :     3.064066  s :     3.064066
      pz      :     0.951438  p :     2.663502
      px      :     0.894275
      py      :     0.817789
      dz2     :     0.006786  d :     0.059290
      dxz     :     0.008502
      dyz     :     0.011318
      dx2y2   :     0.016484
      dxy     :     0.016199

 16 C s       :     3.137568  s :     3.137568
      pz      :     0.936658  p :     2.704817
      px      :     0.921898
      py      :     0.846261
      dz2     :     0.005922  d :     0.039646
      dxz     :     0.006549
      dyz     :     0.007258
      dx2y2   :     0.010214
      dxy     :     0.009702

 17 C s       :     3.209515  s :     3.209515
      pz      :     0.978513  p :     2.917901
      px      :     0.948113
      py      :     0.991275
      dz2     :     0.003364  d :     0.035982
      dxz     :     0.006236
      dyz     :     0.007722
      dx2y2   :     0.008884
      dxy     :     0.009776

 18 C s       :     3.198021  s :     3.198021
      pz      :     0.993321  p :     2.940546
      px      :     0.976516
      py      :     0.970709
      dz2     :     0.006234  d :     0.034752
      dxz     :     0.005752
      dyz     :     0.004739
      dx2y2   :     0.008276
      dxy     :     0.009750

 19 C s       :     3.071502  s :     3.071502
      pz      :     0.919898  p :     2.506930
      px      :     0.700119
      py      :     0.886914
      dz2     :     0.009310  d :     0.065338
      dxz     :     0.012159
      dyz     :     0.010113
      dx2y2   :     0.017672
      dxy     :     0.016083

 20 O s       :     3.885332  s :     3.885332
      pz      :     1.611878  p :     4.634962
      px      :     1.376545
      py      :     1.646538
      dz2     :     0.004126  d :     0.025996
      dxz     :     0.004589
      dyz     :     0.005383
      dx2y2   :     0.004027
      dxy     :     0.007872

 21 C s       :     2.716131  s :     2.716131
      pz      :     0.690341  p :     2.033466
      px      :     0.681752
      py      :     0.661373
      dz2     :     0.031219  d :     0.164654
      dxz     :     0.035386
      dyz     :     0.033976
      dx2y2   :     0.026028
      dxy     :     0.038045

 22 F s       :     3.982076  s :     3.982076
      pz      :     1.595617  p :     5.293350
      px      :     1.816896
      py      :     1.880836
      dz2     :     0.005178  d :     0.016236
      dxz     :     0.005256
      dyz     :     0.003396
      dx2y2   :     0.001076
      dxy     :     0.001330

 23 F s       :     3.979071  s :     3.979071
      pz      :     1.888685  p :     5.284475
      px      :     1.630191
      py      :     1.765598
      dz2     :     0.002226  d :     0.016165
      dxz     :     0.002705
      dyz     :     0.001732
      dx2y2   :     0.003545
      dxy     :     0.005957

 24 F s       :     3.982096  s :     3.982096
      pz      :     1.807969  p :     5.293218
      px      :     1.868149
      py      :     1.617100
      dz2     :     0.002137  d :     0.016254
      dxz     :     0.001707
      dyz     :     0.005030
      dx2y2   :     0.003735
      dxy     :     0.003645

 25 C s       :     3.182528  s :     3.182528
      pz      :     1.026185  p :     2.978033
      px      :     1.008398
      py      :     0.943449
      dz2     :     0.003406  d :     0.034684
      dxz     :     0.006327
      dyz     :     0.007154
      dx2y2   :     0.008206
      dxy     :     0.009591

 26 C s       :     3.196916  s :     3.196916
      pz      :     0.989307  p :     2.945491
      px      :     0.975280
      py      :     0.980905
      dz2     :     0.006209  d :     0.036118
      dxz     :     0.006114
      dyz     :     0.005040
      dx2y2   :     0.009901
      dxy     :     0.008855

 27 C s       :     3.271233  s :     3.271233
      pz      :     1.105097  p :     3.099904
      px      :     0.936967
      py      :     1.057840
      dz2     :     0.004234  d :     0.033798
      dxz     :     0.005484
      dyz     :     0.005663
      dx2y2   :     0.010705
      dxy     :     0.007712

 28 S s       :     5.813601  s :     5.813601
      pz      :     3.446067  p :     9.750420
      px      :     3.191940
      py      :     3.112413
      dz2     :     0.017863  d :     0.110085
      dxz     :     0.020963
      dyz     :     0.014318
      dx2y2   :     0.043568
      dxy     :     0.013373

 29 N s       :     3.615741  s :     3.615741
      pz      :     1.245353  p :     3.850711
      px      :     1.450740
      py      :     1.154618
      dz2     :     0.009432  d :     0.040159
      dxz     :     0.007220
      dyz     :     0.008837
      dx2y2   :     0.007988
      dxy     :     0.006682

 30 C s       :     3.273593  s :     3.273593
      pz      :     0.926293  p :     3.008462
      px      :     1.122527
      py      :     0.959642
      dz2     :     0.006030  d :     0.046247
      dxz     :     0.013111
      dyz     :     0.012362
      dx2y2   :     0.010151
      dxy     :     0.004593

 31 C s       :     2.852426  s :     2.852426
      pz      :     0.762164  p :     2.358436
      px      :     0.825924
      py      :     0.770348
      dz2     :     0.031706  d :     0.121973
      dxz     :     0.017190
      dyz     :     0.030803
      dx2y2   :     0.019417
      dxy     :     0.022857

 32 O s       :     3.884024  s :     3.884024
      pz      :     1.441710  p :     4.606206
      px      :     1.451800
      py      :     1.712697
      dz2     :     0.007075  d :     0.025343
      dxz     :     0.007146
      dyz     :     0.005178
      dx2y2   :     0.003420
      dxy     :     0.002525

 33 H s       :     0.823527  s :     0.823527

 34 H s       :     0.804594  s :     0.804594

 35 H s       :     0.810334  s :     0.810334

 36 H s       :     0.855810  s :     0.855810

 37 H s       :     0.847916  s :     0.847916

 38 H s       :     0.824246  s :     0.824246

 39 H s       :     0.759981  s :     0.759981

 40 H s       :     0.651360  s :     0.651360

 41 H s       :     0.844823  s :     0.844823

 42 H s       :     0.853339  s :     0.853339

 43 H s       :     0.848348  s :     0.848348

 44 H s       :     0.865265  s :     0.865265

 45 H s       :     0.818057  s :     0.818057

 46 H s       :     0.835514  s :     0.835514

 47 H s       :     0.787026  s :     0.787026

 48 H s       :     0.826827  s :     0.826827



                     *******************************
                     * LOEWDIN POPULATION ANALYSIS *
                     *******************************

----------------------
LOEWDIN ATOMIC CHARGES
----------------------
   0 C :   -0.258542
   1 N :   -0.031075
   2 C :    0.100229
   3 O :   -0.304026
   4 C :   -0.069036
   5 C :    0.012356
   6 C :   -0.205120
   7 C :   -0.100277
   8 N :    0.050012
   9 C :   -0.159856
  10 C :    0.138570
  11 O :   -0.225350
  12 N :   -0.201218
  13 C :   -0.081378
  14 N :   -0.189116
  15 C :   -0.006476
  16 C :   -0.024627
  17 C :   -0.107581
  18 C :   -0.141202
  19 C :    0.084982
  20 O :   -0.159922
  21 C :    0.359308
  22 F :   -0.105372
  23 F :   -0.088215
  24 F :   -0.105106
  25 C :   -0.159311
  26 C :   -0.116355
  27 C :   -0.350566
  28 S :    0.433663
  29 N :   -0.027051
  30 C :   -0.259673
  31 C :    0.141566
  32 O :   -0.324708
  33 H :    0.139513
  34 H :    0.152863
  35 H :    0.149569
  36 H :    0.142016
  37 H :    0.136841
  38 H :    0.145509
  39 H :    0.181832
  40 H :    0.270297
  41 H :    0.148124
  42 H :    0.144298
  43 H :    0.141841
  44 H :    0.135612
  45 H :    0.161045
  46 H :    0.133434
  47 H :    0.162792
  48 H :    0.134890

-------------------------------
LOEWDIN REDUCED ORBITAL CHARGES
-------------------------------
  0 C s       :     2.970890  s :     2.970890
      pz      :     1.161105  p :     3.198077
      px      :     1.124905
      py      :     0.912067
      dz2     :     0.015863  d :     0.089575
      dxz     :     0.010846
      dyz     :     0.016233
      dx2y2   :     0.024172
      dxy     :     0.022460

  1 N s       :     3.083669  s :     3.083669
      pz      :     1.244000  p :     3.850370
      px      :     1.405476
      py      :     1.200893
      dz2     :     0.019952  d :     0.097037
      dxz     :     0.016387
      dyz     :     0.028901
      dx2y2   :     0.015836
      dxy     :     0.015961

  2 C s       :     2.819787  s :     2.819787
      pz      :     0.929447  p :     2.820117
      px      :     0.890898
      py      :     0.999772
      dz2     :     0.068435  d :     0.259867
      dxz     :     0.053220
      dyz     :     0.056371
      dx2y2   :     0.047293
      dxy     :     0.034548

  3 O s       :     3.583027  s :     3.583027
      pz      :     1.497474  p :     4.669937
      px      :     1.552501
      py      :     1.619962
      dz2     :     0.011709  d :     0.051061
      dxz     :     0.007950
      dyz     :     0.018279
      dx2y2   :     0.006244
      dxy     :     0.006879

  4 C s       :     2.816620  s :     2.816620
      pz      :     1.007167  p :     3.105449
      px      :     1.058124
      py      :     1.040158
      dz2     :     0.032017  d :     0.146966
      dxz     :     0.023792
      dyz     :     0.039260
      dx2y2   :     0.025893
      dxy     :     0.026003

  5 C s       :     2.817811  s :     2.817811
      pz      :     0.977101  p :     3.010671
      px      :     0.979538
      py      :     1.054032
      dz2     :     0.037033  d :     0.159162
      dxz     :     0.028879
      dyz     :     0.039739
      dx2y2   :     0.026284
      dxy     :     0.027227

  6 C s       :     2.903399  s :     2.903399
      pz      :     1.069798  p :     3.215708
      px      :     1.084256
      py      :     1.061654
      dz2     :     0.019240  d :     0.086013
      dxz     :     0.012705
      dyz     :     0.022357
      dx2y2   :     0.017852
      dxy     :     0.013860

  7 C s       :     2.901384  s :     2.901384
      pz      :     1.048326  p :     3.077559
      px      :     1.063435
      py      :     0.965798
      dz2     :     0.025467  d :     0.121334
      dxz     :     0.018326
      dyz     :     0.030924
      dx2y2   :     0.021810
      dxy     :     0.024806

  8 N s       :     3.044402  s :     3.044402
      pz      :     1.238194  p :     3.787785
      px      :     1.341804
      py      :     1.207787
      dz2     :     0.022032  d :     0.117800
      dxz     :     0.018108
      dyz     :     0.032109
      dx2y2   :     0.024591
      dxy     :     0.020960

  9 C s       :     2.931726  s :     2.931726
      pz      :     0.978125  p :     3.118600
      px      :     1.057098
      py      :     1.083377
      dz2     :     0.020595  d :     0.109530
      dxz     :     0.025613
      dyz     :     0.026190
      dx2y2   :     0.009989
      dxy     :     0.027142

 10 C s       :     2.869784  s :     2.869784
      pz      :     0.846513  p :     2.764480
      px      :     0.929426
      py      :     0.988541
      dz2     :     0.023236  d :     0.227166
      dxz     :     0.019874
      dyz     :     0.046268
      dx2y2   :     0.052399
      dxy     :     0.085389

 11 O s       :     3.592818  s :     3.592818
      pz      :     1.434876  p :     4.580888
      px      :     1.719229
      py      :     1.426783
      dz2     :     0.006697  d :     0.051644
      dxz     :     0.000778
      dyz     :     0.014512
      dx2y2   :     0.018774
      dxy     :     0.010884

 12 N s       :     3.152265  s :     3.152265
      pz      :     1.510713  p :     3.979725
      px      :     1.272056
      py      :     1.196956
      dz2     :     0.010126  d :     0.069228
      dxz     :     0.012826
      dyz     :     0.007237
      dx2y2   :     0.023156
      dxy     :     0.015882

 13 C s       :     2.895294  s :     2.895294
      pz      :     1.014380  p :     3.018217
      px      :     0.977573
      py      :     1.026264
      dz2     :     0.020031  d :     0.167867
      dxz     :     0.027240
      dyz     :     0.024904
      dx2y2   :     0.050213
      dxy     :     0.045479

 14 N s       :     3.245429  s :     3.245429
      pz      :     1.191980  p :     3.860147
      px      :     1.128426
      py      :     1.539741
      dz2     :     0.012320  d :     0.083541
      dxz     :     0.013704
      dyz     :     0.013739
      dx2y2   :     0.015393
      dxy     :     0.028385

 15 C s       :     2.861201  s :     2.861201
      pz      :     0.983186  p :     3.002291
      px      :     0.998919
      py      :     1.020186
      dz2     :     0.014097  d :     0.142984
      dxz     :     0.018307
      dyz     :     0.026181
      dx2y2   :     0.042825
      dxy     :     0.041574

 16 C s       :     2.868912  s :     2.868912
      pz      :     1.001048  p :     3.055429
      px      :     1.006548
      py      :     1.047833
      dz2     :     0.013090  d :     0.100286
      dxz     :     0.015270
      dyz     :     0.018530
      dx2y2   :     0.027294
      dxy     :     0.026101

 17 C s       :     2.916310  s :     2.916310
      pz      :     1.010904  p :     3.107582
      px      :     1.039400
      py      :     1.057277
      dz2     :     0.007435  d :     0.083689
      dxz     :     0.013236
      dyz     :     0.015920
      dx2y2   :     0.022348
      dxy     :     0.024750

 18 C s       :     2.915966  s :     2.915966
      pz      :     1.025637  p :     3.143186
      px      :     1.052700
      py      :     1.064850
      dz2     :     0.012648  d :     0.082050
      dxz     :     0.015184
      dyz     :     0.011044
      dx2y2   :     0.019881
      dxy     :     0.023292

 19 C s       :     2.858045  s :     2.858045
      pz      :     0.981970  p :     2.901626
      px      :     0.861930
      py      :     1.057726
      dz2     :     0.020553  d :     0.155347
      dxz     :     0.027991
      dyz     :     0.023230
      dx2y2   :     0.042212
      dxy     :     0.041360

 20 O s       :     3.470992  s :     3.470992
      pz      :     1.604092  p :     4.631523
      px      :     1.383533
      py      :     1.643898
      dz2     :     0.007672  d :     0.057407
      dxz     :     0.013051
      dyz     :     0.010300
      dx2y2   :     0.009195
      dxy     :     0.017188

 21 C s       :     2.819546  s :     2.819546
      pz      :     0.818848  p :     2.442740
      px      :     0.816745
      py      :     0.807147
      dz2     :     0.068456  d :     0.378407
      dxz     :     0.083586
      dyz     :     0.080252
      dx2y2   :     0.055679
      dxy     :     0.090433

 22 F s       :     3.765242  s :     3.765242
      pz      :     1.613320  p :     5.308848
      px      :     1.817653
      py      :     1.877875
      dz2     :     0.010145  d :     0.031282
      dxz     :     0.010687
      dyz     :     0.006360
      dx2y2   :     0.001770
      dxy     :     0.002320

 23 F s       :     3.760568  s :     3.760568
      pz      :     1.883303  p :     5.297039
      px      :     1.643571
      py      :     1.770165
      dz2     :     0.004407  d :     0.030608
      dxz     :     0.004726
      dyz     :     0.002958
      dx2y2   :     0.005849
      dxy     :     0.012668

 24 F s       :     3.765150  s :     3.765150
      pz      :     1.810627  p :     5.308645
      px      :     1.861817
      py      :     1.636202
      dz2     :     0.003698  d :     0.031311
      dxz     :     0.002954
      dyz     :     0.010287
      dx2y2   :     0.007103
      dxy     :     0.007269

 25 C s       :     2.917886  s :     2.917886
      pz      :     1.045394  p :     3.159540
      px      :     1.064347
      py      :     1.049798
      dz2     :     0.007678  d :     0.081886
      dxz     :     0.013467
      dyz     :     0.014900
      dx2y2   :     0.021427
      dxy     :     0.024414

 26 C s       :     2.914121  s :     2.914121
      pz      :     1.014223  p :     3.118302
      px      :     1.042822
      py      :     1.061257
      dz2     :     0.012721  d :     0.083932
      dxz     :     0.015687
      dyz     :     0.011101
      dx2y2   :     0.023158
      dxy     :     0.021266

 27 C s       :     2.982447  s :     2.982447
      pz      :     1.129487  p :     3.289113
      px      :     1.057825
      py      :     1.101801
      dz2     :     0.008360  d :     0.079006
      dxz     :     0.013114
      dyz     :     0.011048
      dx2y2   :     0.028072
      dxy     :     0.018412

 28 S s       :     5.530819  s :     5.530819
      pz      :     3.446374  p :     9.904450
      px      :     3.263672
      py      :     3.194404
      dz2     :     0.021198  d :     0.131069
      dxz     :     0.025080
      dyz     :     0.015922
      dx2y2   :     0.053935
      dxy     :     0.014934

 29 N s       :     3.059090  s :     3.059090
      pz      :     1.249327  p :     3.865079
      px      :     1.422437
      py      :     1.193315
      dz2     :     0.023773  d :     0.102882
      dxz     :     0.016259
      dyz     :     0.025182
      dx2y2   :     0.020040
      dxy     :     0.017628

 30 C s       :     2.971029  s :     2.971029
      pz      :     1.007270  p :     3.197701
      px      :     1.155453
      py      :     1.034978
      dz2     :     0.012609  d :     0.090943
      dxz     :     0.025559
      dyz     :     0.025089
      dx2y2   :     0.018756
      dxy     :     0.008930

 31 C s       :     2.805584  s :     2.805584
      pz      :     0.944758  p :     2.769870
      px      :     0.898920
      py      :     0.926193
      dz2     :     0.072892  d :     0.282980
      dxz     :     0.040475
      dyz     :     0.073579
      dx2y2   :     0.043050
      dxy     :     0.052984

 32 O s       :     3.585478  s :     3.585478
      pz      :     1.494060  p :     4.689102
      px      :     1.475068
      py      :     1.719975
      dz2     :     0.012800  d :     0.050127
      dxz     :     0.016475
      dyz     :     0.010279
      dx2y2   :     0.005423
      dxy     :     0.005150

 33 H s       :     0.860487  s :     0.860487

 34 H s       :     0.847137  s :     0.847137

 35 H s       :     0.850431  s :     0.850431

 36 H s       :     0.857984  s :     0.857984

 37 H s       :     0.863159  s :     0.863159

 38 H s       :     0.854491  s :     0.854491

 39 H s       :     0.818168  s :     0.818168

 40 H s       :     0.729703  s :     0.729703

 41 H s       :     0.851876  s :     0.851876

 42 H s       :     0.855702  s :     0.855702

 43 H s       :     0.858159  s :     0.858159

 44 H s       :     0.864388  s :     0.864388

 45 H s       :     0.838955  s :     0.838955

 46 H s       :     0.866566  s :     0.866566

 47 H s       :     0.837208  s :     0.837208

 48 H s       :     0.865110  s :     0.865110



                      *****************************
                      * MAYER POPULATION ANALYSIS *
                      *****************************

  NA   - Mulliken gross atomic population
  ZA   - Total nuclear charge
  QA   - Mulliken gross atomic charge
  VA   - Mayer's total valence
  BVA  - Mayer's bonded valence
  FA   - Mayer's free valence

  ATOM       NA         ZA         QA         VA         BVA        FA
  0 C      6.3123     6.0000    -0.3123     3.7752     3.7752    -0.0000
  1 N      7.4890     7.0000    -0.4890     3.0491     3.0491    -0.0000
  2 C      5.4531     6.0000     0.5469     3.8695     3.8695     0.0000
  3 O      8.5067     8.0000    -0.5067     2.0279     2.0279    -0.0000
  4 C      5.7940     6.0000     0.2060     3.7051     3.7051    -0.0000
  5 C      5.7133     6.0000     0.2867     3.8554     3.8554    -0.0000
  6 C      6.2103     6.0000    -0.2103     3.8875     3.8875    -0.0000
  7 C      6.0044     6.0000    -0.0044     3.8268     3.8268    -0.0000
  8 N      7.4287     7.0000    -0.4287     3.3305     3.3305     0.0000
  9 C      6.2541     6.0000    -0.2541     3.7411     3.7411     0.0000
 10 C      5.4256     6.0000     0.5744     3.8388     3.8388    -0.0000
 11 O      8.4188     8.0000    -0.4188     2.0986     2.0986     0.0000
 12 N      7.6446     7.0000    -0.6446     2.9200     2.9200     0.0000
 13 C      5.7404     6.0000     0.2596     3.8205     3.8205    -0.0000
 14 N      7.4388     7.0000    -0.4388     2.9690     2.9690     0.0000
 15 C      5.7869     6.0000     0.2131     4.0103     4.0103     0.0000
 16 C      5.8820     6.0000     0.1180     3.9949     3.9949    -0.0000
 17 C      6.1634     6.0000    -0.1634     3.9003     3.9003    -0.0000
 18 C      6.1733     6.0000    -0.1733     3.8973     3.8973    -0.0000
 19 C      5.6438     6.0000     0.3562     3.8022     3.8022    -0.0000
 20 O      8.5463     8.0000    -0.5463     1.9602     1.9602     0.0000
 21 C      4.9143     6.0000     1.0857     3.9950     3.9950     0.0000
 22 F      9.2917     9.0000    -0.2917     1.0647     1.0647     0.0000
 23 F      9.2797     9.0000    -0.2797     1.0871     1.0871     0.0000
 24 F      9.2916     9.0000    -0.2916     1.0648     1.0648    -0.0000
 25 C      6.1952     6.0000    -0.1952     3.9104     3.9104    -0.0000
 26 C      6.1785     6.0000    -0.1785     3.9176     3.9176     0.0000
 27 C      6.4049     6.0000    -0.4049     3.7611     3.7611     0.0000
 28 S     15.6741    16.0000     0.3259     2.5649     2.5649    -0.0000
 29 N      7.5066     7.0000    -0.5066     3.0793     3.0793    -0.0000
 30 C      6.3283     6.0000    -0.3283     3.7780     3.7780    -0.0000
 31 C      5.3328     6.0000     0.6672     3.9594     3.9594    -0.0000
 32 O      8.5156     8.0000    -0.5156     2.0254     2.0254     0.0000
 33 H      0.8235     1.0000     0.1765     0.9281     0.9281    -0.0000
 34 H      0.8046     1.0000     0.1954     0.9358     0.9358    -0.0000
 35 H      0.8103     1.0000     0.1897     0.9349     0.9349     0.0000
 36 H      0.8558     1.0000     0.1442     0.9429     0.9429    -0.0000
 37 H      0.8479     1.0000     0.1521     0.9379     0.9379    -0.0000
 38 H      0.8242     1.0000     0.1758     0.9246     0.9246    -0.0000
 39 H      0.7600     1.0000     0.2400     0.9299     0.9299    -0.0000
 40 H      0.6514     1.0000     0.3486     0.8615     0.8615    -0.0000
 41 H      0.8448     1.0000     0.1552     0.9455     0.9455    -0.0000
 42 H      0.8533     1.0000     0.1467     0.9370     0.9370     0.0000
 43 H      0.8483     1.0000     0.1517     0.9493     0.9493     0.0000
 44 H      0.8653     1.0000     0.1347     0.9398     0.9398    -0.0000
 45 H      0.8181     1.0000     0.1819     0.9370     0.9370     0.0000
 46 H      0.8355     1.0000     0.1645     0.9308     0.9308     0.0000
 47 H      0.7870     1.0000     0.2130     0.9370     0.9370     0.0000
 48 H      0.8268     1.0000     0.1732     0.9254     0.9254     0.0000

  Mayer bond orders larger than 0.100000
B(  0-C ,  1-N ) :   0.9205 B(  0-C , 33-H ) :   0.9411 B(  0-C , 34-H ) :   0.9232 
B(  0-C , 35-H ) :   0.9281 B(  1-N ,  2-C ) :   0.9741 B(  1-N , 31-C ) :   1.0345 
B(  2-C ,  3-O ) :   1.7336 B(  2-C ,  4-C ) :   1.1036 B(  4-C ,  5-C ) :   1.3670 
B(  4-C ,  8-N ) :   1.0378 B(  5-C ,  6-C ) :   1.3568 B(  5-C , 29-N ) :   0.9583 
B(  6-C ,  7-C ) :   1.4811 B(  6-C , 36-H ) :   0.9240 B(  7-C ,  8-N ) :   1.2086 
B(  7-C , 37-H ) :   0.9260 B(  8-N ,  9-C ) :   0.9365 B(  9-C , 10-C ) :   0.9325 
B(  9-C , 38-H ) :   0.9175 B(  9-C , 39-H ) :   0.8967 B( 10-C , 11-O ) :   1.8423 
B( 10-C , 12-N ) :   1.0205 B( 12-N , 13-C ) :   0.9418 B( 12-N , 40-H ) :   0.8074 
B( 13-C , 14-N ) :   1.4797 B( 13-C , 27-C ) :   0.1101 B( 13-C , 28-S ) :   1.1884 
B( 14-N , 15-C ) :   1.2894 B( 15-C , 16-C ) :   1.0562 B( 15-C , 27-C ) :   1.5151 
B( 16-C , 17-C ) :   1.3974 B( 16-C , 26-C ) :   1.4031 B( 17-C , 18-C ) :   1.4236 
B( 17-C , 41-H ) :   0.9121 B( 18-C , 19-C ) :   1.4134 B( 18-C , 42-H ) :   0.9197 
B( 19-C , 20-O ) :   0.8211 B( 19-C , 25-C ) :   1.3865 B( 20-O , 21-C ) :   0.9924 
B( 21-C , 22-F ) :   0.9683 B( 21-C , 23-F ) :   1.0073 B( 21-C , 24-F ) :   0.9680 
B( 25-C , 26-C ) :   1.4372 B( 25-C , 43-H ) :   0.9095 B( 26-C , 44-H ) :   0.9191 
B( 27-C , 28-S ) :   1.1095 B( 27-C , 45-H ) :   0.9014 B( 29-N , 30-C ) :   0.9450 
B( 29-N , 31-C ) :   1.0595 B( 30-C , 46-H ) :   0.9334 B( 30-C , 47-H ) :   0.9215 
B( 30-C , 48-H ) :   0.9360 B( 31-C , 32-O ) :   1.7860 

-------
TIMINGS
-------

Total SCF time: 0 days 0 hours 4 min 47 sec 

Total time                  ....     287.068 sec
Sum of individual times     ....     286.675 sec  ( 99.9%)

SCF preparation             ....       0.472 sec  (  0.2%)
Fock matrix formation       ....     283.906 sec  ( 98.9%)
  Startup                   ....       0.105 sec  (  0.0% of F)
  Split-RI-J                ....      39.495 sec  ( 13.9% of F)
  Chain of spheres X        ....     217.288 sec  ( 76.5% of F)
  XC integration            ....      26.030 sec  (  9.2% of F)
    XC Preparation          ....       0.000 sec  (  0.0% of XC)
    Basis function eval.    ....       9.902 sec  ( 38.0% of XC)
    Density eval.           ....       5.868 sec  ( 22.5% of XC)
    XC-Functional eval.     ....       1.257 sec  (  4.8% of XC)
    XC-Potential eval.      ....       7.480 sec  ( 28.7% of XC)
Diagonalization             ....       0.000 sec  (  0.0%)
Density matrix formation    ....       0.406 sec  (  0.1%)
Total Energy calculation    ....       0.082 sec  (  0.0%)
Population analysis         ....       0.138 sec  (  0.0%)
Orbital Transformation      ....       0.209 sec  (  0.1%)
Orbital Orthonormalization  ....       0.000 sec  (  0.0%)
DIIS solution               ....       1.035 sec  (  0.4%)
SOSCF solution              ....       0.428 sec  (  0.1%)
Finished LeanSCF after 287.2 sec

Maximum memory used throughout the entire LEANSCF-calculation: 77.0 MB

-------------------------   --------------------
FINAL SINGLE POINT ENERGY     -2043.182107870187
-------------------------   --------------------


------------------------------------------------------------------------------
                              ORCA PROPERTY CALCULATIONS
------------------------------------------------------------------------------

GBWName                                 ... /home/nmrbox/aojoawo/Documents/ERDOS/inputs/CHEMBL3931425.gbw
Number of atoms                         ...     49
Number of basis functions               ...    498
Max core memory                         ...   1024 MB

Electric properties:
Dipole moment                           ... YES
Quadrupole moment                       ...  NO
Static polarizability (Dipole/Dipole)   ...  NO
Static polarizability (Dipole/Quad.)    ...  NO
Static polarizability (Quad./Quad.)     ...  NO
Static polarizability (Velocity)        ...  NO

Atomic electric properties:
Dipole moment                           ...  NO
Quadrupole moment                       ...  NO
Static polarizability                   ...  NO

Choice of electric origin               ... Center of mass
Position of electric origin             ...     1.551584     0.348476    -0.008483

General magnetic properties:
Magnetizability                         ...  NO

EPR properties:
g-Tensor (aka g-matrix)                 ...  NO
Zero-Field splitting spin-orbit         ...  NO
Zero-field splitting spin-spin          ...  NO
Hyperfine couplings                     ...  NO (   0 nuclei)
Quadrupole couplings                    ...  NO (   0 nuclei)
Contact density                         ...  NO (   0 nuclei)

NMR properties:
Chemical shifts                         ...  NO (   0 nuclei)
Spin-rotation constants                 ...  NO (   0 nuclei)
Spin-spin couplings                     ...  NO (   0 nuclei,    0 pairs)

Choice of magnetic origin               ... GIAO
Position of magnetic origin             ...     0.000000     0.000000     0.000000

Properties with geometric perturbations:
SCF Hessian                             ...  NO
IR spectrum                             ...  NO
VCD spectrum                            ...  NO
X-ray spectroscopy properties:
SCF XES/XAS/RIXS spectra                ...  NO


-------------
DIPOLE MOMENT
-------------

Method             : SCF
Type of density    : Electron Density
Multiplicity       :   1
Irrep              :   0
Energy             : -2043.1821078701866554 Eh
Relativity type    : 
Basis              : AO
                                X                 Y                 Z
Electronic contribution:     54.062322756       3.239275771       9.349954488
Nuclear contribution   :    -54.378820436      -5.139884351      -9.694291218
                        -----------------------------------------
Total Dipole Moment    :     -0.316497680      -1.900608580      -0.344336730
                        -----------------------------------------
Magnitude (a.u.)       :      1.957307217
Magnitude (Debye)      :      4.975079569



--------------------
Rotational spectrum 
--------------------
 
Rotational constants in cm-1:             0.008364             0.001205             0.001164 
Rotational constants in MHz :           250.732136            36.130927            34.906283 

Dipole components along the rotational axes: 
x,y,z [a.u.] :    -0.343352     0.553767    -1.845671 
x,y,z [Debye]:    -0.872732     1.407563    -4.691324 

 

Dipole moment calculation done in   0.0 sec 

Maximum memory used throughout the entire PROP-calculation: 37.7 MB

--------------------------------
SUGGESTED CITATIONS FOR THIS RUN
--------------------------------

Below you find a list of papers that are relevant to this ORCA run
We neither can nor want to force you to cite these papers, but we appreciate if you do
You receive ORCA, which is the product of decades of hard work by many enthusiastic individuals, for free
The only thing we kindly ask in return is that you cite our papers,
We deeply appreciate it, if you show your appreciation for ORCA by not just citing the generic ORCA reference.

Please note that relegating all ORCA citations to the supporting information does *not* help us.
SI sections are not indexed - citations you put there will not count into any citation statistics
But we need these citations in order to attract the funding resources that allow us to do what we are doing

Therefore, if you are a happy ORCA user, please consider citing a few of the papers listed below in the main body of your paper

In addition to the list printed below, the program has created the file /home/nmrbox/aojoawo/Documents/ERDOS/inputs/CHEMBL3931425.bibtex that contains the list in bibtex format
You can import this file easily into all common literature databanks and citation aid programs


List of essential papers. We consider these as the minimum necessary citations

  1. Neese,F.
     Software update: the ORCA program system, version 5.0
     WIRES Comput. Molec. Sci., 2022 12(1)e1606
     doi.org/10.1002/wcms.1606

List of papers to cite with high priority. The work reported in these papers was absolutely
necessary for this run to complete.
Our perspective: the developers of density functionals and basis sets usually get cited in chemistry papers
Good! But without the algorithms to do something with them, the functionals or basis sets would not do anything.
Hence, in our opinion, the algorithm design and method developments papers are equally worthy of getting cited

  1. Neese,F.
     An improvement of the resolution of the identity approximation for the formation of the Coulomb matrix
     J. Comp. Chem., 2003 24(14)1740-1747
     doi.org/10.1002/jcc.10318
  2. Neese,F.; Wennmohs,F.; Hansen,A.; Becker,U.
     Efficient, approximate and parallel Hartree-Fock and hybrid DFT calculations. A 'chain-of-spheres' algorithm for the Hartree-Fock exchange
     Chem. Phys., 2009 356(1-3)98-109
     doi.org/10.1016/j.chemphys.2008.10.036
  3. Helmich-Paris,B.; de Souza,B.; Neese,F.; Izsák,R.
     An improved chain of spheres for exchange algorithm
     J. Chem. Phys., 2021 155 104109
     doi.org/doi: 10.1063/5.0058766.
  4. Neese,F.
     The SHARK Integral Generation and Digestion System
     J. Comp. Chem., 2022  1-16
     doi.org/10.1002/jcc.26942

List of suggested additional citations. These are papers that are important in the 'surrounding' of 
of this run, or papers that preceded the highly important papers. If you like your results we are grateful for a citation.

  1. Izsak,R.; Neese,F.
     An overlap fitted chain of spheres exchange method
     J. Chem. Phys., 2011 135 144105
     doi.org/10.1063/1.3646921
  2. Izsak,R.; Hansen,A.; Neese,F.
     The resolution of identity and chain of spheres approximations for the LPNO-CCSD singles Fock term
     Molec. Phys., 2012 110 2413-2417
     doi.org/10.1080/00268976.2012.687466
  3. Neese,F.
     The ORCA program system
     WIRES Comput. Molec. Sci., 2012 2(1)73-78
     doi.org/10.1002/wcms.81
  4. Izsak,R.; Neese,F.; Klopper,W.
     Robust fitting techniques in the chain of spheres approximation to the Fock exchange: The role of the complementary space
     J. Chem. Phys., 2013 139 
     doi.org/10.1063/1.4819264
  5. Neese,F.
     Software update: the ORCA program system, version 4.0
     WIRES Comput. Molec. Sci., 2018 8(1)1-6
     doi.org/10.1002/wcms.1327
  6. Neese,F.; Wennmohs,F.; Becker,U.; Riplinger,C.
     The ORCA quantum chemistry program package
     J. Chem. Phys., 2020 152 Art. No. L224108
     doi.org/10.1063/5.0004608

List of optional additional citations

  1. Neese,F.
     Approximate second-order SCF convergence for spin unrestricted wavefunctions
     Chem. Phys. Lett., 2000 325(1-3)93-98
     doi.org/10.1016/s0009-2614(00)00662-x

Timings for individual modules:

Sum of individual times          ...      300.364 sec (=   5.006 min)
Startup calculation              ...        8.808 sec (=   0.147 min)   2.9 %
SCF iterations                   ...      291.399 sec (=   4.857 min)  97.0 %
Property calculations            ...        0.157 sec (=   0.003 min)   0.1 %
                             ****ORCA TERMINATED NORMALLY****
TOTAL RUN TIME: 0 days 0 hours 5 minutes 1 seconds 60 msec
