
                                 *****************
                                 * O   R   C   A *
                                 *****************

                                            #,                                       
                                            ###                                      
                                            ####                                     
                                            #####                                    
                                            ######                                   
                                           ########,                                 
                                     ,,################,,,,,                         
                               ,,#################################,,                 
                          ,,##########################################,,             
                       ,#########################################, ''#####,          
                    ,#############################################,,   '####,        
                  ,##################################################,,,,####,       
                ,###########''''           ''''###############################       
              ,#####''   ,,,,##########,,,,          '''####'''          '####       
            ,##' ,,,,###########################,,,                        '##       
           ' ,,###''''                  '''############,,,                           
         ,,##''                                '''############,,,,        ,,,,,,###''
      ,#''                                            '''#######################'''  
     '                                                          ''''####''''         
             ,#######,   #######,   ,#######,      ##                                
            ,#'     '#,  ##    ##  ,#'     '#,    #''#        ,####,   ,####,        
            ##       ##  ##   ,#'  ##            #'  '#       #'       #'  '#        
            ##       ##  #######   ##           ,######,      #####,   #    #        
            '#,     ,#'  ##    ##  '#,     ,#' ,#      #,     #,   #   #,  ,#        
             '#######'   ##     ##  '#######'  #'      '#     '####' # '####'        



                #########################################################
                #                        -***-                          #
                #          Department of theory and spectroscopy        #
                #                                                       #
                #                      Frank Neese                      #
                #                                                       #
                #     Directorship, Architecture, Infrastructure        #
                #                    SHARK, DRIVERS                     #
                #        Core code/Algorithms in most modules           #
                #                                                       #
                #        Max Planck Institute fuer Kohlenforschung      #
                #                Kaiser Wilhelm Platz 1                 #
                #                 D-45470 Muelheim/Ruhr                 #
                #                      Germany                          #
                #                                                       #
                #                  All rights reserved                  #
                #                        -***-                          #
                #########################################################


                         Program Version 6.0.0  -   RELEASE  -


 With contributions from (in alphabetic order):
   Daniel Aravena         : Magnetic Suceptibility
   Michael Atanasov       : Ab Initio Ligand Field Theory (pilot matlab implementation)
   Alexander A. Auer      : GIAO ZORA, VPT2 properties, NMR spectrum
   Ute Becker             : All parallelization in ORCA, NUMFREQ, NUMCALC
   Giovanni Bistoni       : ED, misc. LED, open-shell LED, HFLD
   Martin Brehm           : Molecular dynamics
   Dmytro Bykov           : pre 5.0 version of the SCF Hessian
   Marcos Casanova-Páez   : Triplet and SCS-CIS(D). UHF-(DLPNO)-IP/EA/STEOM-CCSD. UHF-CVS-IP/STEOM-CCSD
   Vijay G. Chilkuri      : MRCI spin determinant printing, contributions to CSF-ICE
   Pauline Colinet        : FMM embedding
   Dipayan Datta          : RHF DLPNO-CCSD density
   Achintya Kumar Dutta   : EOM-CC, STEOM-CC
   Nicolas Foglia         : Exact transition moments, OPA infrastructure, MCD improvements
   Dmitry Ganyushin       : Spin-Orbit,Spin-Spin,Magnetic field MRCI
   Miquel Garcia          : C-PCM and meta-GGA Hessian, CCSD/C-PCM, Gaussian charge scheme
   Tiago L. C. Gouveia    : GS-ROHF, GS-ROCIS
   Yang Guo               : DLPNO-NEVPT2, F12-NEVPT2, CIM, IAO-localization
   Andreas Hansen         : Spin unrestricted coupled pair/coupled cluster methods
   Ingolf Harden          : AUTO-CI MPn and infrastructure 
   Benjamin Helmich-Paris : MC-RPA, TRAH-(SCF,CASSCF), AVAS, COSX integrals, SCF dyn. polar.
   Lee Huntington         : MR-EOM, pCC
   Robert Izsak           : Overlap fitted RIJCOSX, COSX-SCS-MP3, EOM
   Riya Kayal             : Wick's Theorem for AUTO-CI, AUTO-CI UHF-CCSDT
   Emily Kempfer          : AUTO-CI, RHF CISDT and CCSDT
   Christian Kollmar      : KDIIS, OOCD, Brueckner-CCSD(T), CCSD density, CASPT2, CASPT2-K, improved NEVPT2
   Axel Koslowski         : Symmetry handling
   Simone Kossmann        : Meta GGA functionals, TD-DFT gradient, OOMP2, (MP2 Hessian; deprecated post 5.0)
   Lucas Lang             : DCDCAS
   Marvin Lechner         : AUTO-CI (C++ implementation), FIC-MRCC
   Spencer Leger          : CASSCF response
   Dagmar Lenk            : GEPOL surface, SMD, ORCA-2-JSON
   Dimitrios Liakos       : Extrapolation schemes; Compound Job, initial MDCI parallelization
   Dimitrios Manganas     : Further ROCIS development; embedding schemes. LFT, Crystal Embedding
   Dimitrios Pantazis     : SARC Basis sets
   Anastasios Papadopoulos: AUTO-CI, single reference methods and gradients
   Taras Petrenko         : pre 6.0 DFT Hessian and TD-DFT gradient, (ASA, deprecated), ECA, 1-Electron XAS/XES, NRVS
   Peter Pinski           : DLPNO-MP2, DLPNO-MP2 Gradient
   Christoph Reimann      : Effective Core Potentials
   Marius Retegan         : Local ZFS, SOC
   Christoph Riplinger    : Optimizer, TS searches, QM/MM, DLPNO-CCSD(T), (RO)-DLPNO pert. Triples
   Michael Roemelt        : Original ROCIS implementation
   Masaaki Saitow         : Open-shell DLPNO-CCSD energy and density
   Barbara Sandhoefer     : DKH picture change effects
   Kantharuban Sivalingam : CASSCF convergence/infrastructure, NEVPT2 and variants, FIC-MRCI
   Bernardo de Souza      : ESD, SOC TD-DFT
   Georgi Stoychev        : AutoAux, RI-MP2 NMR, DLPNO-MP2 response, X2C
   Van Anh Tran           : RI-MP2 g-tensors
   Willem Van den Heuvel  : Paramagnetic NMR
   Zikuan Wang            : NOTCH, Electric field optimization 
   Frank Wennmohs         : Technical directorship and infrastructure
   Hang Xu                : AUTO-CI-Response properties 


 We gratefully acknowledge several colleagues who have allowed us to
 interface, adapt or use parts of their codes:
   Stefan Grimme, W. Hujo, H. Kruse, P. Pracht,  : VdW corrections, initial TS optimization,
                  C. Bannwarth, S. Ehlert,         DFT functionals, gCP, sTDA/sTD-DF
                  L. Wittmann, M. Mueller
   Ed Valeev, F. Pavosevic, A. Kumar             : LibInt (2-el integral package), F12 methods
   Garnet Chan, S. Sharma, J. Yang, R. Olivares  : DMRG
   Ulf Ekstrom                                   : XCFun DFT Library
   Mihaly Kallay                                 : mrcc  (arbitrary order and MRCC methods)
   Frank Weinhold                                : gennbo (NPA and NBO analysis)
   Simon Mueller                                 : openCOSMO-RS
   Christopher J. Cramer and Donald G. Truhlar   : smd solvation model
   Lars Goerigk                                  : TD-DFT with DH, B97 family of functionals
   V. Asgeirsson, H. Jonsson                     : NEB implementation
   FAccTs GmbH                                   : IRC, NEB, NEB-TS, DLPNO-Multilevel, CI-OPT
                                                   MM, QMMM, 2- and 3-layer-ONIOM, Crystal-QMMM,
                                                   LR-CPCM, SF, NACMEs, symmetry and pop. for TD-DFT,
                                                   nearIR, NL-DFT gradient (VV10), updates on ESD,
                                                   ML-optimized integration grids, MBIS, APM,
                                                   GOAT, DOCKER, SOLVATOR, interface openCOSMO-RS
   S Lehtola, MJT Oliveira, MAL Marques          : LibXC Library
   Liviu Ungur et al                             : ANISO software


 Your calculation uses the libint2 library for the computation of 2-el integrals
 For citations please refer to: http://libint.valeyev.net

 Your ORCA version has been built with support for libXC version: 6.2.2
 For citations please refer to: https://libxc.gitlab.io

 This ORCA versions uses:
   CBLAS   interface :  Fast vector & matrix operations
   LAPACKE interface :  Fast linear algebra routines
   SCALAPACK package :  Parallel linear algebra routines
   Shared memory     :  Shared parallel matrices
   BLAS/LAPACK       :  OpenBLAS 0.3.27  USE64BITINT DYNAMIC_ARCH NO_AFFINITY SkylakeX SINGLE_THREADED
        Core in use  :  SkylakeX
   Copyright (c) 2011-2014, The OpenBLAS Project


Warning: RI is on but no J-basis has been assigned. Assigning Def2/J (nothing to worry about!)
================================================================================

----- Orbital basis set information -----
Your calculation utilizes the basis: 6-31G*
   H-He, Li-Ne : W. J. Hehre, R. Ditchfield and J.A. Pople, J. Chem. Phys. 56, 2257 (1972).
                 Note: He and Ne are unpublished basis sets taken from the Gaussian program.
                 Note: Li and B from J. D. Dill and J. A. Pople, J. Chem. Phys. 62, 2921 (1975).
   Na - Ar     : M. M. Francl, W. J. Pietro, W. J. Hehre, J. S. Binkley, M. S. Gordon, 
                 D. J. DeFrees and J. A. Pople, J. Chem. Phys. 77, 3654 (1982).
   K - Zn      : V. A. Rassolov, J. A. Pople, M. A. Ratner, and T. L. Windus, J. Chem. Phys. 109, 1223 (1998).

----- AuxJ basis set information -----
Your calculation utilizes the auxiliary basis: def2/J
   F. Weigend, Phys. Chem. Chem. Phys. 8, 1057 (2006).

================================================================================
                                        WARNINGS
                       Please study these warnings very carefully!
================================================================================


================================================================================
                                       INPUT FILE
================================================================================
NAME = /home/nmrbox/aojoawo/Documents/ERDOS/inputs/CHEMBL3235978.inp
|  1> ! B3LYP 6-31G* SP
|  2> 
|  3> * xyz 0 1
|  4> O 1.2450 0.7780 -1.2780
|  5> C 1.3887 -0.3435 -0.7172
|  6> N 2.7137 -0.8409 -0.4619
|  7> C 3.8719 0.0034 -0.3433
|  8> C 3.7776 1.3101 0.1725
|  9> C 4.9228 2.1025 0.2995
| 10> C 6.1708 1.5966 -0.0739
| 11> F 7.2800 2.3661 0.0519
| 12> C 6.2763 0.2935 -0.5675
| 13> C 5.1336 -0.5023 -0.6952
| 14> N 0.2230 -1.1290 -0.3768
| 15> C 0.3891 -2.3376 0.4560
| 16> C -0.9115 -2.7726 1.1377
| 17> C -2.0318 -2.8091 0.1544
| 18> N -3.0049 -3.7544 0.2527
| 19> C -4.0516 -3.7795 -0.6132
| 20> C -4.1371 -2.8101 -1.6137
| 21> N -3.1736 -1.8564 -1.7033
| 22> C -2.1180 -1.8321 -0.8439
| 23> C -1.0878 -0.7361 -0.9477
| 24> C -1.6231 0.5315 -0.3077
| 25> C -2.4422 1.3901 -1.0594
| 26> C -2.9744 2.5485 -0.4871
| 27> C -2.7199 2.8600 0.8586
| 28> C -3.2521 4.1355 1.4618
| 29> F -3.4547 3.9852 2.8229
| 30> F -4.4593 4.4846 0.8812
| 31> F -2.3404 5.1530 1.2518
| 32> C -1.8872 2.0121 1.6073
| 33> C -1.3559 0.8529 1.0357
| 34> H 2.8618 -1.8749 -0.4586
| 35> H 2.8267 1.7108 0.4980
| 36> H 4.8425 3.1067 0.6956
| 37> H 7.2435 -0.1021 -0.8496
| 38> H 5.2292 -1.5110 -1.0771
| 39> H 0.7655 -3.1670 -0.1814
| 40> H 1.1358 -2.1454 1.2571
| 41> H -0.7674 -3.7789 1.5873
| 42> H -1.1704 -2.0671 1.9544
| 43> H -4.8131 -4.5422 -0.5217
| 44> H -4.9655 -2.8111 -2.3093
| 45> H -0.9357 -0.5508 -2.0354
| 46> H -2.6672 1.1638 -2.0944
| 47> H -3.5859 3.2008 -1.0977
| 48> H -1.6449 2.2465 2.6364
| 49> H -0.7219 0.2219 1.6422
| 50> *
| 51> 
| 52>                          ****END OF INPUT****
================================================================================

                       ****************************
                       * Single Point Calculation *
                       ****************************

---------------------------------
CARTESIAN COORDINATES (ANGSTROEM)
---------------------------------
  O      1.245000    0.778000   -1.278000
  C      1.388700   -0.343500   -0.717200
  N      2.713700   -0.840900   -0.461900
  C      3.871900    0.003400   -0.343300
  C      3.777600    1.310100    0.172500
  C      4.922800    2.102500    0.299500
  C      6.170800    1.596600   -0.073900
  F      7.280000    2.366100    0.051900
  C      6.276300    0.293500   -0.567500
  C      5.133600   -0.502300   -0.695200
  N      0.223000   -1.129000   -0.376800
  C      0.389100   -2.337600    0.456000
  C     -0.911500   -2.772600    1.137700
  C     -2.031800   -2.809100    0.154400
  N     -3.004900   -3.754400    0.252700
  C     -4.051600   -3.779500   -0.613200
  C     -4.137100   -2.810100   -1.613700
  N     -3.173600   -1.856400   -1.703300
  C     -2.118000   -1.832100   -0.843900
  C     -1.087800   -0.736100   -0.947700
  C     -1.623100    0.531500   -0.307700
  C     -2.442200    1.390100   -1.059400
  C     -2.974400    2.548500   -0.487100
  C     -2.719900    2.860000    0.858600
  C     -3.252100    4.135500    1.461800
  F     -3.454700    3.985200    2.822900
  F     -4.459300    4.484600    0.881200
  F     -2.340400    5.153000    1.251800
  C     -1.887200    2.012100    1.607300
  C     -1.355900    0.852900    1.035700
  H      2.861800   -1.874900   -0.458600
  H      2.826700    1.710800    0.498000
  H      4.842500    3.106700    0.695600
  H      7.243500   -0.102100   -0.849600
  H      5.229200   -1.511000   -1.077100
  H      0.765500   -3.167000   -0.181400
  H      1.135800   -2.145400    1.257100
  H     -0.767400   -3.778900    1.587300
  H     -1.170400   -2.067100    1.954400
  H     -4.813100   -4.542200   -0.521700
  H     -4.965500   -2.811100   -2.309300
  H     -0.935700   -0.550800   -2.035400
  H     -2.667200    1.163800   -2.094400
  H     -3.585900    3.200800   -1.097700
  H     -1.644900    2.246500    2.636400
  H     -0.721900    0.221900    1.642200

----------------------------
CARTESIAN COORDINATES (A.U.)
----------------------------
  NO LB      ZA    FRAG     MASS         X           Y           Z
   0 O     8.0000    0    15.999    2.352709    1.470207   -2.415070
   1 C     6.0000    0    12.011    2.624263   -0.649121   -1.355312
   2 N     7.0000    0    14.007    5.128150   -1.589071   -0.872865
   3 C     6.0000    0    12.011    7.316831    0.006425   -0.648743
   4 C     6.0000    0    12.011    7.138629    2.475730    0.325978
   5 C     6.0000    0    12.011    9.302744    3.973149    0.565973
   6 C     6.0000    0    12.011   11.661122    3.017137   -0.139651
   7 F     9.0000    0    18.998   13.757206    4.471281    0.098077
   8 C     6.0000    0    12.011   11.860488    0.554635   -1.072420
   9 C     6.0000    0    12.011    9.701098   -0.949209   -1.313738
  10 N     7.0000    0    14.007    0.421409   -2.133501   -0.712049
  11 C     6.0000    0    12.011    0.735292   -4.417424    0.861715
  12 C     6.0000    0    12.011   -1.722485   -5.239455    2.149941
  13 C     6.0000    0    12.011   -3.839546   -5.308430    0.291774
  14 N     7.0000    0    14.007   -5.678438   -7.094788    0.477534
  15 C     6.0000    0    12.011   -7.656414   -7.142220   -1.158780
  16 C     6.0000    0    12.011   -7.817986   -5.310319   -3.049451
  17 N     7.0000    0    14.007   -5.997235   -3.508088   -3.218771
  18 C     6.0000    0    12.011   -4.002440   -3.462167   -1.594740
  19 C     6.0000    0    12.011   -2.055644   -1.391027   -1.790893
  20 C     6.0000    0    12.011   -3.067214    1.004389   -0.581469
  21 C     6.0000    0    12.011   -4.615089    2.626908   -2.001976
  22 C     6.0000    0    12.011   -5.620801    4.815967   -0.920486
  23 C     6.0000    0    12.011   -5.139866    5.404617    1.622519
  24 C     6.0000    0    12.011   -6.145578    7.814962    2.762402
  25 F     9.0000    0    18.998   -6.528437    7.530937    5.334508
  26 F     9.0000    0    18.998   -8.426856    8.474666    1.665227
  27 F     9.0000    0    18.998   -4.422715    9.737759    2.365559
  28 C     6.0000    0    12.011   -3.566291    3.802318    3.037357
  29 C     6.0000    0    12.011   -2.562280    1.611747    1.957189
  30 H     1.0000    0     1.008    5.408018   -3.543048   -0.866628
  31 H     1.0000    0     1.008    5.341689    3.232943    0.941084
  32 H     1.0000    0     1.008    9.150999    5.870812    1.314493
  33 H     1.0000    0     1.008   13.688231   -0.192941   -1.605511
  34 H     1.0000    0     1.008    9.881756   -2.855376   -2.035424
  35 H     1.0000    0     1.008    1.446585   -5.984763   -0.342796
  36 H     1.0000    0     1.008    2.146351   -4.054218    2.375575
  37 H     1.0000    0     1.008   -1.450176   -7.141086    2.999562
  38 H     1.0000    0     1.008   -2.211735   -3.906253    3.693281
  39 H     1.0000    0     1.008   -9.095441   -8.583514   -0.985870
  40 H     1.0000    0     1.008   -9.383435   -5.312209   -4.363945
  41 H     1.0000    0     1.008   -1.768217   -1.040861   -3.846349
  42 H     1.0000    0     1.008   -5.040278    2.199263   -3.957842
  43 H     1.0000    0     1.008   -6.776369    6.048635   -2.074352
  44 H     1.0000    0     1.008   -3.108411    4.245270    4.982074
  45 H     1.0000    0     1.008   -1.364193    0.419330    3.103308

--------------------------------
INTERNAL COORDINATES (ANGSTROEM)
--------------------------------
 O      0   0   0     0.000000000000     0.00000000     0.00000000
 C      1   0   0     1.262104821320     0.00000000     0.00000000
 N      2   1   0     1.438127202302   119.41396886     0.00000000
 C      3   2   1     1.438170952982   123.61244274    23.51648661
 C      4   3   2     1.407979765480   121.40669321    31.48664383
 C      5   4   3     1.398395437636   120.28559529   178.86549720
 C      6   5   4     1.397449952592   120.12937149   359.40897799
 F      7   6   5     1.355832043433   120.02319239   180.09244515
 C      7   6   5     1.397440810911   119.95887113   359.60512056
 C      9   7   6     1.398344814415   120.08240056     0.35407791
 N      2   1   3     1.446284515578   119.69753293   181.86823111
 C     11   2   1     1.477111712092   119.10760643   189.10390927
 C     12  11   2     1.531502611816   112.82179340   159.60495761
 C     13  12  11     1.491067815359   110.57768816    48.42808724
 N     14  13  12     1.360212700279   120.45526373   144.73804883
 C     15  14  13     1.358673511187   121.19256650   178.20509102
 C     16  15  14     1.395724492871   119.41999280   359.36625972
 N     17  16  15     1.358640533769   119.43078408   359.88091965
 C     18  17  16     1.361414782497   121.38351307     0.57191096
 C     11   2   1     1.482731890802   118.55468099    12.80601254
 C     20  11   2     1.517549290798   111.76472405   287.64989687
 C     21  20  11     1.404696287459   119.37779241   150.10624975
 C     22  21  20     1.397374212586   120.63862997   178.52850586
 C     23  22  21     1.404532302939   120.48024853   358.74867468
 C     24  23  22     1.507974578698   120.45711730   177.74037469
 F     25  24  23     1.384279617707   110.67850959   152.06019101
 F     25  24  23     1.384304522134   110.68983762    32.11427878
 F     25  24  23     1.382245687278   109.21326502   272.08399106
 C     24  23  22     1.404590826540   118.96340550     2.04079140
 C     29  24  23     1.397408633865   120.53904961   357.89417626
 H      3   2   1     1.044557561841   118.26570291   209.97757649
 H      5   4   3     1.081998867837   120.84794406     0.28309496
 H      6   5   4     1.082479071391   119.87797406   179.91523580
 H      9   7   6     1.082384224756   120.02216001   180.48755931
 H     10   9   7     1.082803149238   119.35469950   180.12369140
 H     12  11   2     1.111692439481   108.98127944   281.22741110
 H     12  11   2     1.111873616919   109.89494488    39.80727418
 H     13  12  11     1.111550565651   109.09214264   169.52560959
 H     13  12  11     1.109846092934   110.18788773   287.86020948
 H     16  15  14     1.081649568946   120.09781302   179.70417830
 H     17  16  15     1.081714805298   120.47962889   180.29372477
 H     20  11   2     1.113805095158   107.41968593    46.83173428
 H     22  21  20     1.083079724674   120.31825460   358.31017805
 H     23  22  21     1.082709517830   118.91886122   178.77791739
 H     29  24  23     1.082912489539   120.56612071   177.79329973
 H     30  29  24     1.080721633909   118.54379223   180.21539428

---------------------------
INTERNAL COORDINATES (A.U.)
---------------------------
 O      0   0   0     0.000000000000     0.00000000     0.00000000
 C      1   0   0     2.385032464597     0.00000000     0.00000000
 N      2   1   0     2.717666558093   119.41396886     0.00000000
 C      3   2   1     2.717749234896   123.61244274    23.51648661
 C      4   3   2     2.660696158859   121.40669321    31.48664383
 C      5   4   3     2.642584404056   120.28559529   178.86549720
 C      6   5   4     2.640797696261   120.12937149   359.40897799
 F      7   6   5     2.562151245683   120.02319239   180.09244515
 C      7   6   5     2.640780420987   119.95887113   359.60512056
 C      9   7   6     2.642488740032   120.08240056     0.35407791
 N      2   1   3     2.733081646173   119.69753293   181.86823111
 C     11   2   1     2.791336605062   119.10760643   189.10390927
 C     12  11   2     2.894120509718   112.82179340   159.60495761
 C     13  12  11     2.817709818133   110.57768816    48.42808724
 N     14  13  12     2.570429487409   120.45526373   144.73804883
 C     15  14  13     2.567520841556   121.19256650   178.20509102
 C     16  15  14     2.637537049932   119.41999280   359.36625972
 N     17  16  15     2.567458523268   119.43078408   359.88091965
 C     18  17  16     2.572701093590   121.38351307     0.57191096
 C     11   2   1     2.801957203646   118.55468099    12.80601254
 C     20  11   2     2.867752554334   111.76472405   287.64989687
 C     21  20  11     2.654491284633   119.37779241   150.10624975
 C     22  21  20     2.640654568391   120.63862997   178.52850586
 C     23  22  21     2.654181398801   120.48024853   358.74867468
 C     24  23  22     2.849658970655   120.45711730   177.74037469
 F     25  24  23     2.615909370236   110.67850959   152.06019101
 F     25  24  23     2.615956432782   110.68983762    32.11427878
 F     25  24  23     2.612065798750   109.21326502   272.08399106
 C     24  23  22     2.654291992378   118.96340550     2.04079140
 C     29  24  23     2.640719615182   120.53904961   357.89417626
 H      3   2   1     1.973927722997   118.26570291   209.97757649
 H      5   4   3     2.044681537424   120.84794406     0.28309496
 H      6   5   4     2.045588990631   119.87797406   179.91523580
 H      9   7   6     2.045409756465   120.02216001   180.48755931
 H     10   9   7     2.046201409008   119.35469950   180.12369140
 H     12  11   2     2.100794255771   108.98127944   281.22741110
 H     12  11   2     2.101136631509   109.89494488    39.80727418
 H     13  12  11     2.100526153086   109.09214264   169.52560959
 H     13  12  11     2.097305166447   110.18788773   287.86020948
 H     16  15  14     2.044021458181   120.09781302   179.70417830
 H     17  16  15     2.044144737020   120.47962889   180.29372477
 H     20  11   2     2.104786596415   107.41968593    46.83173428
 H     22  21  20     2.046724060837   120.31825460   358.31017805
 H     23  22  21     2.046024471289   118.91886122   178.77791739
 H     29  24  23     2.046408032232   120.56612071   177.79329973
 H     30  29  24     2.042267915093   118.54379223   180.21539428

---------------------
BASIS SET INFORMATION
---------------------
There are 5 groups of distinct atoms

 Group   1 Type O   : 10s4p1d contracted to 3s2p1d pattern {631/31/1}
 Group   2 Type C   : 10s4p1d contracted to 3s2p1d pattern {631/31/1}
 Group   3 Type N   : 10s4p1d contracted to 3s2p1d pattern {631/31/1}
 Group   4 Type F   : 10s4p1d contracted to 3s2p1d pattern {631/31/1}
 Group   5 Type H   : 4s contracted to 2s pattern {31}

Atom   0O    basis set group =>   1
Atom   1C    basis set group =>   2
Atom   2N    basis set group =>   3
Atom   3C    basis set group =>   2
Atom   4C    basis set group =>   2
Atom   5C    basis set group =>   2
Atom   6C    basis set group =>   2
Atom   7F    basis set group =>   4
Atom   8C    basis set group =>   2
Atom   9C    basis set group =>   2
Atom  10N    basis set group =>   3
Atom  11C    basis set group =>   2
Atom  12C    basis set group =>   2
Atom  13C    basis set group =>   2
Atom  14N    basis set group =>   3
Atom  15C    basis set group =>   2
Atom  16C    basis set group =>   2
Atom  17N    basis set group =>   3
Atom  18C    basis set group =>   2
Atom  19C    basis set group =>   2
Atom  20C    basis set group =>   2
Atom  21C    basis set group =>   2
Atom  22C    basis set group =>   2
Atom  23C    basis set group =>   2
Atom  24C    basis set group =>   2
Atom  25F    basis set group =>   4
Atom  26F    basis set group =>   4
Atom  27F    basis set group =>   4
Atom  28C    basis set group =>   2
Atom  29C    basis set group =>   2
Atom  30H    basis set group =>   5
Atom  31H    basis set group =>   5
Atom  32H    basis set group =>   5
Atom  33H    basis set group =>   5
Atom  34H    basis set group =>   5
Atom  35H    basis set group =>   5
Atom  36H    basis set group =>   5
Atom  37H    basis set group =>   5
Atom  38H    basis set group =>   5
Atom  39H    basis set group =>   5
Atom  40H    basis set group =>   5
Atom  41H    basis set group =>   5
Atom  42H    basis set group =>   5
Atom  43H    basis set group =>   5
Atom  44H    basis set group =>   5
Atom  45H    basis set group =>   5
---------------------------------
AUXILIARY/J BASIS SET INFORMATION
---------------------------------
There are 5 groups of distinct atoms

 Group   1 Type O   : 12s5p4d2f1g contracted to 6s4p3d1f1g pattern {711111/2111/211/2/1}
 Group   2 Type C   : 12s5p4d2f1g contracted to 6s4p3d1f1g pattern {711111/2111/211/2/1}
 Group   3 Type N   : 12s5p4d2f1g contracted to 6s4p3d1f1g pattern {711111/2111/211/2/1}
 Group   4 Type F   : 12s5p4d2f1g contracted to 6s4p3d1f1g pattern {711111/2111/211/2/1}
 Group   5 Type H   : 5s2p1d contracted to 3s1p1d pattern {311/2/1}

Atom   0O    basis set group =>   1
Atom   1C    basis set group =>   2
Atom   2N    basis set group =>   3
Atom   3C    basis set group =>   2
Atom   4C    basis set group =>   2
Atom   5C    basis set group =>   2
Atom   6C    basis set group =>   2
Atom   7F    basis set group =>   4
Atom   8C    basis set group =>   2
Atom   9C    basis set group =>   2
Atom  10N    basis set group =>   3
Atom  11C    basis set group =>   2
Atom  12C    basis set group =>   2
Atom  13C    basis set group =>   2
Atom  14N    basis set group =>   3
Atom  15C    basis set group =>   2
Atom  16C    basis set group =>   2
Atom  17N    basis set group =>   3
Atom  18C    basis set group =>   2
Atom  19C    basis set group =>   2
Atom  20C    basis set group =>   2
Atom  21C    basis set group =>   2
Atom  22C    basis set group =>   2
Atom  23C    basis set group =>   2
Atom  24C    basis set group =>   2
Atom  25F    basis set group =>   4
Atom  26F    basis set group =>   4
Atom  27F    basis set group =>   4
Atom  28C    basis set group =>   2
Atom  29C    basis set group =>   2
Atom  30H    basis set group =>   5
Atom  31H    basis set group =>   5
Atom  32H    basis set group =>   5
Atom  33H    basis set group =>   5
Atom  34H    basis set group =>   5
Atom  35H    basis set group =>   5
Atom  36H    basis set group =>   5
Atom  37H    basis set group =>   5
Atom  38H    basis set group =>   5
Atom  39H    basis set group =>   5
Atom  40H    basis set group =>   5
Atom  41H    basis set group =>   5
Atom  42H    basis set group =>   5
Atom  43H    basis set group =>   5
Atom  44H    basis set group =>   5
Atom  45H    basis set group =>   5
------------------------------------------------------------------------------
                             ORCA STARTUP CALCULATIONS
                           -- RI-GTO INTEGRALS CHOSEN --
------------------------------------------------------------------------------
------------------------------------------------------------------------------
                   ___                                                        
                  /   \      - P O W E R E D   B Y -                         
                 /     \                                                     
                 |  |  |   _    _      __       _____    __    __             
                 |  |  |  | |  | |    /  \     |  _  \  |  |  /  |          
                  \  \/   | |  | |   /    \    | | | |  |  | /  /          
                 / \  \   | |__| |  /  /\  \   | |_| |  |  |/  /          
                |  |  |   |  __  | /  /__\  \  |    /   |      \           
                |  |  |   | |  | | |   __   |  |    \   |  |\   \          
                \     /   | |  | | |  |  |  |  | |\  \  |  | \   \       
                 \___/    |_|  |_| |__|  |__|  |_| \__\ |__|  \__/        
                                                                              
                      - O R C A' S   B I G   F R I E N D -                    
                                      &                                       
                       - I N T E G R A L  F E E D E R -                       
                                                                              
 v1 FN, 2020, v2 2021, v3 2022-2024                                           
------------------------------------------------------------------------------


----------------------
SHARK INTEGRAL PACKAGE
----------------------

Number of atoms                             ...     46
Number of basis functions                   ...    452
Number of shells                            ...    212
Maximum angular momentum                    ...      2
Integral batch strategy                     ... SHARK/LIBINT Hybrid
RI-J (if used) integral strategy            ... SPLIT-RIJ (Revised 2003 algorithm where possible)
Printlevel                                  ...      1
Contraction scheme used                     ... SEGMENTED contraction
Prescreening option                         ... SCHWARTZ
   Thresh                                   ... 1.000e-10
   Tcut                                     ... 1.000e-11
   Tpresel                                  ... 1.000e-11 
Coulomb Range Separation                    ... NOT USED
Exchange Range Separation                   ... NOT USED
Multipole approximations                    ... NOT USED
Finite Nucleus Model                        ... NOT USED
CABS basis                                  ... NOT available
Auxiliary Coulomb fitting basis             ... AVAILABLE
   # of basis functions in Aux-J            ...   1646
   # of shells in Aux-J                     ...    530
   Maximum angular momentum in Aux-J        ...      4
Auxiliary J/K fitting basis                 ... NOT available
Auxiliary Correlation fitting basis         ... NOT available
Auxiliary 'external' fitting basis          ... NOT available

Checking pre-screening integrals            ... done (  0.0 sec) Dimension = 212
Check shell pair data                       ... done (  0.0 sec)
Shell pair information
Shell pair cut-off parameter TPreSel        ...   1.0e-11
Total number of shell pairs                 ...     22578
Shell pairs after pre-screening             ...     13030
Total number of primitive shell pairs       ...    133033
Primitive shell pairs kept                  ...     40338
          la=0 lb=0:   4132 shell pairs
          la=1 lb=0:   4571 shell pairs
          la=1 lb=1:   1277 shell pairs
          la=2 lb=0:   1797 shell pairs
          la=2 lb=1:   1047 shell pairs
          la=2 lb=2:    206 shell pairs

Calculating one electron integrals          ... done (  0.2 sec)
Calculating RI/J V-Matrix + Cholesky decomp.... done (  0.3 sec)
Calculating Nuclear repulsion               ... done (  0.0 sec) ENN=   2778.288781271814 Eh

Diagonalization of the overlap matrix:
Smallest eigenvalue                        ... 4.403e-04
Time for diagonalization                   ...    0.033 sec
Threshold for overlap eigenvalues          ... 1.000e-07
Number of eigenvalues below threshold      ... 0
Time for construction of square roots      ...    0.030 sec
Total time needed                          ...    0.074 sec

-------------------
DFT GRID GENERATION
-------------------

General Integration Accuracy     IntAcc      ... 4.388
Radial Grid Type                 RadialGrid  ... OptM3 with GC (2021)
Angular Grid (max. ang.)         AngularGrid ... 4 (Lebedev-302)
Angular grid pruning method      GridPruning ... 4 (adaptive)
Weight generation scheme         WeightScheme... mBecke (2022)
Basis function cutoff            BFCut       ... 1.0000e-10
Integration weight cutoff        WCut        ... 1.0000e-14
Partially contracted basis set               ... off
Rotationally invariant grid construction     ... off
Angular grids for H and He will be reduced by one unit

Total number of grid points                  ...   230480
Total number of batches                      ...     3625
Average number of points per batch           ...       63
Average number of grid points per atom       ...     5010

--------------------
COSX GRID GENERATION
--------------------

GRIDX 1
-------
General Integration Accuracy     IntAcc      ... 3.816
Radial Grid Type                 RadialGrid  ... OptM3 with GC (2021)
Angular Grid (max. ang.)         AngularGrid ... 1 (Lebedev-50)
Angular grid pruning method      GridPruning ... 4 (adaptive)
Weight generation scheme         WeightScheme... mBecke (2022)
Basis function cutoff            BFCut       ... 1.0000e-10
Integration weight cutoff        WCut        ... 1.0000e-14
Partially contracted basis set               ... on
Rotationally invariant grid construction     ... off
Angular grids for H and He will be reduced by one unit

Total number of grid points                  ...    29101
Total number of batches                      ...      254
Average number of points per batch           ...      114
Average number of grid points per atom       ...      633
UseSFitting                                  ... on

GRIDX 2
-------
General Integration Accuracy     IntAcc      ... 4.020
Radial Grid Type                 RadialGrid  ... OptM3 with GC (2021)
Angular Grid (max. ang.)         AngularGrid ... 2 (Lebedev-110)
Angular grid pruning method      GridPruning ... 4 (adaptive)
Weight generation scheme         WeightScheme... mBecke (2022)
Basis function cutoff            BFCut       ... 1.0000e-10
Integration weight cutoff        WCut        ... 1.0000e-14
Partially contracted basis set               ... on
Rotationally invariant grid construction     ... off
Angular grids for H and He will be reduced by one unit

Total number of grid points                  ...    64459
Total number of batches                      ...      527
Average number of points per batch           ...      122
Average number of grid points per atom       ...     1401
UseSFitting                                  ... on

GRIDX 3
-------
General Integration Accuracy     IntAcc      ... 4.338
Radial Grid Type                 RadialGrid  ... OptM3 with GC (2021)
Angular Grid (max. ang.)         AngularGrid ... 3 (Lebedev-194)
Angular grid pruning method      GridPruning ... 4 (adaptive)
Weight generation scheme         WeightScheme... mBecke (2022)
Basis function cutoff            BFCut       ... 1.0000e-10
Integration weight cutoff        WCut        ... 1.0000e-14
Partially contracted basis set               ... on
Rotationally invariant grid construction     ... off
Angular grids for H and He will be reduced by one unit

Total number of grid points                  ...   141385
Total number of batches                      ...     1128
Average number of points per batch           ...      125
Average number of grid points per atom       ...     3074
UseSFitting                                  ... on
Initializing property integral containers    ... done (  0.0 sec)

SHARK setup successfully completed in  12.1 seconds

Maximum memory used throughout the entire STARTUP-calculation: 97.8 MB
-------------------------------------------------------------------------------
                                 ORCA GUESS
                   Start orbitals & Density for SCF / CASSCF
-------------------------------------------------------------------------------

------------
SCF SETTINGS
------------
Hamiltonian:
 Density Functional     Method          .... DFT(GTOs)
 Exchange Functional    Exchange        .... B88
   X-Alpha parameter    XAlpha          ....  0.666667
   Becke's b parameter  XBeta           ....  0.004200
 Correlation Functional Correlation     .... LYP
 LDA part of GGA corr.  LDAOpt          .... VWN-5
 Gradients option       PostSCFGGA      .... off
 Hybrid DFT is turned on
   Fraction HF Exchange ScalHFX         ....  0.200000
   Scaling of DF-GGA-X  ScalDFX         ....  0.720000
   Scaling of DF-GGA-C  ScalDFC         ....  0.810000
   Scaling of DF-LDA-C  ScalLDAC        ....  1.000000
   Perturbative correction              ....  0.000000
   NL short-range parameter             ....  4.800000
 RI-approximation to the Coulomb term is turned on
   Number of AuxJ basis functions       .... 1646
   RIJ-COSX (HFX calculated with COS-X)).... on


General Settings:
 Integral files         IntName         .... /home/nmrbox/aojoawo/Documents/ERDOS/inputs/CHEMBL3235978
 Hartree-Fock type      HFTyp           .... RHF
 Total Charge           Charge          ....    0
 Multiplicity           Mult            ....    1
 Number of Electrons    NEL             ....  214
 Basis Dimension        Dim             ....  452
 Nuclear Repulsion      ENuc            ....   2778.2887812718 Eh

Convergence Acceleration:
 AO-DIIS                CNVDIIS         .... on
   Start iteration      DIISMaxIt       ....    12
   Startup error        DIISStart       ....  0.200000
   # of expansion vecs  DIISMaxEq       ....     5
   Bias factor          DIISBfac        ....   1.050
   Max. coefficient     DIISMaxC        ....  10.000
 MO-DIIS                CNVKDIIS        .... off
 Trust-Rad. Augm. Hess. CNVTRAH         .... auto
   Auto Start mean grad. ratio tolernc. ....  1.125000
   Auto Start start iteration           ....    50
   Auto Start num. interpolation iter.  ....    10
   Max. Number of Micro iterations      ....    24
   Max. Number of Macro iterations      .... Maxiter - #DIIS iter
   Number of Davidson start vectors     ....     2
   Converg. threshold    (grad. norm)   ....   5.000e-05
   Grad. Scal. Fac. for Micro threshold ....   0.100
   Minimum threshold for Micro iter.    ....   1.000e-02
   NR start threshold (gradient norm)   ....   1.000e-04
   Initial trust radius                 ....   0.400
   Minimum AH scaling param. (alpha)    ....   1.000
   Maximum AH scaling param. (alpha)    .... 1000.000
   Quad. conv. algorithm                .... NR
   White noise on init. David. guess    .... on
   Maximum white noise                  ....   0.010
   Pseudo random numbers                .... off
   Inactive MOs                         .... canonical
   Orbital update algorithm             .... Taylor
   Preconditioner                       .... Diag
   Full preconditioner red. dimension   ....   250
 SOSCF                  CNVSOSCF        .... on
   Start iteration      SOSCFMaxIt      ....   150
   Startup grad/error   SOSCFStart      ....  0.003300
   Hessian update       SOSCFHessUp     .... L-BFGS
 Level Shifting         CNVShift        .... on
   Level shift para.    LevelShift      ....    0.2500
   Turn off err/grad.   ShiftErr        ....    0.0010
 Zerner damping         CNVZerner       .... off
 Static damping         CNVDamp         .... on
   Fraction old density DampFac         ....    0.7000
   Max. Damping (<1)    DampMax         ....    0.9800
   Min. Damping (>=0)   DampMin         ....    0.0000
   Turn off err/grad.   DampErr         ....    0.1000

SCF Procedure:
 Maximum # iterations   MaxIter         ....   125
 SCF integral mode      SCFMode         .... Direct
   Integral package                     .... SHARK and LIBINT hybrid scheme
 Reset frequency        DirectResetFreq ....    20
 Integral Threshold     Thresh          ....  1.000e-10 Eh
 Primitive CutOff       TCut            ....  1.000e-11 Eh

Convergence Tolerance:
 Convergence Check Mode ConvCheckMode   .... Total+1el-Energy
 Convergence forced     ConvForced      .... 0
 Energy Change          TolE            ....  1.000e-06 Eh
 1-El. energy change                    ....  1.000e-03 Eh
 Orbital Gradient       TolG            ....  5.000e-05
 Orbital Rotation angle TolX            ....  5.000e-05
 DIIS Error             TolErr          ....  1.000e-06

------------------------------
INITIAL GUESS: MODEL POTENTIAL
------------------------------
Loading Hartree-Fock densities                     ... done
Calculating cut-offs                               ... done
Initializing the effective Hamiltonian             ... done
Setting up the integral package (SHARK)            ... done
Starting the Coulomb interaction                   ... done (   2.9 sec)
Making the grid                                    ... done (   1.5 sec)
Mapping shells                                     ... done
Starting the XC term evaluation                    ... done (   1.2 sec)
  promolecular density results
     # of electrons  =    213.995073409
     EX              =   -187.351388675
     EC              =     -7.471505730
     EX+EC           =   -194.822894405
Transforming the Hamiltonian                       ... done (   0.0 sec)
Diagonalizing the Hamiltonian                      ... done (   0.1 sec)
Back transforming the eigenvectors                 ... done (   0.1 sec)
Now organizing SCF variables                       ... done
                      ------------------
                      INITIAL GUESS DONE (   5.9 sec)
                      ------------------
             **** ENERGY FILE WAS UPDATED (/home/nmrbox/aojoawo/Documents/ERDOS/inputs/CHEMBL3235978.en.tmp) ****
Finished Guess after   6.3 sec
Maximum memory used throughout the entire GUESS-calculation: 53.1 MB

-------------------------------------------------------------------------------------------
                                      ORCA LEAN-SCF
                              memory conserving SCF solver
-------------------------------------------------------------------------------------------

----------------------------------------D-I-I-S--------------------------------------------
Iteration    Energy (Eh)           Delta-E    RMSDP     MaxDP     DIISErr   Damp  Time(sec)
-------------------------------------------------------------------------------------------
               ***  Starting incremental Fock matrix formation  ***
    1    -1502.0086080105747897     0.00e+00  2.01e-03  1.12e-01  2.88e-01  0.700  58.1
    2    -1502.2998061963044165    -2.91e-01  1.32e-03  6.06e-02  9.96e-02  0.700  25.8
                               ***Turning on AO-DIIS***
    3    -1502.4100023073870034    -1.10e-01  5.52e-04  1.71e-02  3.79e-02  0.700  25.3
    4    -1502.4790820478719979    -6.91e-02  9.12e-04  2.60e-02  1.63e-02  0.000  22.5
    5    -1502.6315983883923764    -1.53e-01  2.00e-04  7.00e-03  6.75e-03  0.000  24.0
                              *** Initializing SOSCF ***
---------------------------------------S-O-S-C-F--------------------------------------
Iteration    Energy (Eh)           Delta-E    RMSDP     MaxDP     MaxGrad    Time(sec)
--------------------------------------------------------------------------------------
    6    -1502.6325252948845446    -9.27e-04  6.33e-05  2.19e-03  2.17e-03    20.5
               *** Restarting incremental Fock matrix formation ***
    7    -1502.6326054783203290    -8.02e-05  5.17e-05  3.78e-03  3.99e-04    58.3
    8    -1502.6325746521752080     3.08e-05  3.23e-05  2.87e-03  1.02e-03    33.2
    9    -1502.6326184583294889    -4.38e-05  1.01e-05  4.30e-04  9.39e-05    29.0
   10    -1502.6326171969194547     1.26e-06  6.40e-06  3.18e-04  1.92e-04    23.3
   11    -1502.6326189868259462    -1.79e-06  1.59e-06  5.71e-05  1.59e-05    21.5
   12    -1502.6326190001373106    -1.33e-08  9.35e-07  3.58e-05  2.87e-05    16.6
                 **** Energy Check signals convergence ****

               *****************************************************
               *                     SUCCESS                       *
               *           SCF CONVERGED AFTER  12 CYCLES          *
               *****************************************************

Recomputing exchange energy using gridx3       ... done (  102.260 sec)
Old exchange energy                            :    -37.880615972 Eh
New exchange energy                            :    -37.880610708 Eh
Exchange energy change after final integration :      0.000005263 Eh
Total energy after final integration           :  -1502.632613737 Eh
             **** ENERGY FILE WAS UPDATED (/home/nmrbox/aojoawo/Documents/ERDOS/inputs/CHEMBL3235978.en.tmp) ****

----------------
TOTAL SCF ENERGY
----------------

Total Energy       :      -1502.63261373685714 Eh          -40888.71216 eV

Components:
Nuclear Repulsion  :       2778.28878127181360 Eh           75601.08122 eV
Electronic Energy  :      -4280.92140027195092 Eh         -116489.79353 eV
One Electron Energy:      -7581.82894228714667 Eh         -206312.05422 eV
Two Electron Energy:       3300.90754201519621 Eh           89822.26069 eV

Virial components:
Potential Energy   :      -2995.75518230189573 Eh          -81518.64284 eV
Kinetic Energy     :       1493.12256856503836 Eh           40629.93068 eV
Virial Ratio       :          2.00636923275559

DFT components:
N(Alpha)           :      107.000058414107 electrons
N(Beta)            :      107.000058414107 electrons
N(Total)           :      214.000116828213 electrons
E(X)               :     -150.604961893953 Eh       
E(C)               :       -8.776563119444 Eh       
E(XC)              :     -159.381525013396 Eh       

---------------
SCF CONVERGENCE
---------------

  Last Energy change         ...    1.3311e-08  Tolerance :   1.0000e-06
  Last MAX-Density change    ...    3.5801e-05  Tolerance :   1.0000e-05
  Last RMS-Density change    ...    9.3474e-07  Tolerance :   1.0000e-06
  Last DIIS Error            ...    2.1674e-03  Tolerance :   1.0000e-06
  Last Orbital Gradient      ...    2.8678e-05  Tolerance :   5.0000e-05
  Last Orbital Rotation      ...    4.9363e-05  Tolerance :   5.0000e-05


----------------
ORBITAL ENERGIES
----------------

  NO   OCC          E(Eh)            E(eV) 
   0   2.0000     -24.712580      -672.4635 
   1   2.0000     -24.712187      -672.4528 
   2   2.0000     -24.707668      -672.3298 
   3   2.0000     -24.692403      -671.9144 
   4   2.0000     -19.110475      -520.0225 
   5   2.0000     -14.375313      -391.1721 
   6   2.0000     -14.373843      -391.1321 
   7   2.0000     -14.355660      -390.6374 
   8   2.0000     -14.353037      -390.5660 
   9   2.0000     -10.426848      -283.7290 
  10   2.0000     -10.324925      -280.9555 
  11   2.0000     -10.262737      -279.2633 
  12   2.0000     -10.249316      -278.8981 
  13   2.0000     -10.248120      -278.8655 
  14   2.0000     -10.245873      -278.8044 
  15   2.0000     -10.244370      -278.7635 
  16   2.0000     -10.238218      -278.5961 
  17   2.0000     -10.237178      -278.5678 
  18   2.0000     -10.236450      -278.5480 
  19   2.0000     -10.211233      -277.8618 
  20   2.0000     -10.205533      -277.7067 
  21   2.0000     -10.205122      -277.6955 
  22   2.0000     -10.196844      -277.4702 
  23   2.0000     -10.195313      -277.4286 
  24   2.0000     -10.194502      -277.4065 
  25   2.0000     -10.192836      -277.3612 
  26   2.0000     -10.190784      -277.3053 
  27   2.0000     -10.189274      -277.2642 
  28   2.0000     -10.188778      -277.2507 
  29   2.0000     -10.188163      -277.2340 
  30   2.0000      -1.271895       -34.6100 
  31   2.0000      -1.206008       -32.8171 
  32   2.0000      -1.197831       -32.5946 
  33   2.0000      -1.195799       -32.5393 
  34   2.0000      -1.027490       -27.9594 
  35   2.0000      -0.980817       -26.6894 
  36   2.0000      -0.937504       -25.5108 
  37   2.0000      -0.922499       -25.1025 
  38   2.0000      -0.900812       -24.5124 
  39   2.0000      -0.865769       -23.5588 
  40   2.0000      -0.847683       -23.0666 
  41   2.0000      -0.818722       -22.2785 
  42   2.0000      -0.804744       -21.8982 
  43   2.0000      -0.766697       -20.8629 
  44   2.0000      -0.754045       -20.5186 
  45   2.0000      -0.753387       -20.5007 
  46   2.0000      -0.741584       -20.1795 
  47   2.0000      -0.717842       -19.5335 
  48   2.0000      -0.681690       -18.5497 
  49   2.0000      -0.678074       -18.4513 
  50   2.0000      -0.644923       -17.5493 
  51   2.0000      -0.633387       -17.2353 
  52   2.0000      -0.624898       -17.0043 
  53   2.0000      -0.618800       -16.8384 
  54   2.0000      -0.611906       -16.6508 
  55   2.0000      -0.597101       -16.2479 
  56   2.0000      -0.569367       -15.4933 
  57   2.0000      -0.562574       -15.3084 
  58   2.0000      -0.559565       -15.2265 
  59   2.0000      -0.554177       -15.0799 
  60   2.0000      -0.551537       -15.0081 
  61   2.0000      -0.538532       -14.6542 
  62   2.0000      -0.525007       -14.2862 
  63   2.0000      -0.522435       -14.2162 
  64   2.0000      -0.512815       -13.9544 
  65   2.0000      -0.500886       -13.6298 
  66   2.0000      -0.489592       -13.3225 
  67   2.0000      -0.478679       -13.0255 
  68   2.0000      -0.475051       -12.9268 
  69   2.0000      -0.463248       -12.6056 
  70   2.0000      -0.454765       -12.3748 
  71   2.0000      -0.450016       -12.2456 
  72   2.0000      -0.448858       -12.2140 
  73   2.0000      -0.445973       -12.1355 
  74   2.0000      -0.441107       -12.0031 
  75   2.0000      -0.438695       -11.9375 
  76   2.0000      -0.435308       -11.8453 
  77   2.0000      -0.430517       -11.7150 
  78   2.0000      -0.429647       -11.6913 
  79   2.0000      -0.428409       -11.6576 
  80   2.0000      -0.424848       -11.5607 
  81   2.0000      -0.413315       -11.2469 
  82   2.0000      -0.410753       -11.1771 
  83   2.0000      -0.403627       -10.9833 
  84   2.0000      -0.402129       -10.9425 
  85   2.0000      -0.396385       -10.7862 
  86   2.0000      -0.390710       -10.6318 
  87   2.0000      -0.389746       -10.6055 
  88   2.0000      -0.386905       -10.5282 
  89   2.0000      -0.385293       -10.4844 
  90   2.0000      -0.378287       -10.2937 
  91   2.0000      -0.363170        -9.8823 
  92   2.0000      -0.358313        -9.7502 
  93   2.0000      -0.352370        -9.5885 
  94   2.0000      -0.351428        -9.5628 
  95   2.0000      -0.343606        -9.3500 
  96   2.0000      -0.321689        -8.7536 
  97   2.0000      -0.300223        -8.1695 
  98   2.0000      -0.294990        -8.0271 
  99   2.0000      -0.277752        -7.5580 
 100   2.0000      -0.267538        -7.2801 
 101   2.0000      -0.257463        -7.0059 
 102   2.0000      -0.256163        -6.9706 
 103   2.0000      -0.249778        -6.7968 
 104   2.0000      -0.246164        -6.6985 
 105   2.0000      -0.243514        -6.6264 
 106   2.0000      -0.213618        -5.8128 
 107   0.0000      -0.062373        -1.6972 
 108   0.0000      -0.036962        -1.0058 
 109   0.0000      -0.015214        -0.4140 
 110   0.0000      -0.009248        -0.2516 
 111   0.0000      -0.007443        -0.2025 
 112   0.0000      -0.005365        -0.1460 
 113   0.0000       0.037700         1.0259 
 114   0.0000       0.054301         1.4776 
 115   0.0000       0.073933         2.0118 
 116   0.0000       0.087390         2.3780 
 117   0.0000       0.100120         2.7244 
*Only the first 10 virtual orbitals were printed.

                    ********************************
                    * MULLIKEN POPULATION ANALYSIS *
                    ********************************

-----------------------
MULLIKEN ATOMIC CHARGES
-----------------------
   0 O :   -0.483614
   1 C :    0.699498
   2 N :   -0.731645
   3 C :    0.343608
   4 C :   -0.128468
   5 C :   -0.219497
   6 C :    0.407929
   7 F :   -0.321167
   8 C :   -0.211478
   9 C :   -0.174995
  10 N :   -0.473094
  11 C :   -0.145865
  12 C :   -0.354811
  13 C :    0.235580
  14 N :   -0.384018
  15 C :    0.009588
  16 C :    0.011530
  17 N :   -0.384485
  18 C :    0.229694
  19 C :   -0.094900
  20 C :    0.197065
  21 C :   -0.159438
  22 C :   -0.159902
  23 C :   -0.014885
  24 C :    0.892789
  25 F :   -0.307677
  26 F :   -0.306806
  27 F :   -0.296575
  28 C :   -0.159120
  29 C :   -0.172135
  30 H :    0.328959
  31 H :    0.160530
  32 H :    0.149475
  33 H :    0.144671
  34 H :    0.129000
  35 H :    0.144805
  36 H :    0.162921
  37 H :    0.176317
  38 H :    0.178156
  39 H :    0.157370
  40 H :    0.158548
  41 H :    0.188832
  42 H :    0.149461
  43 H :    0.151941
  44 H :    0.148023
  45 H :    0.128283
Sum of atomic charges:   -0.0000000

--------------------------------
MULLIKEN REDUCED ORBITAL CHARGES
--------------------------------
  0 O s       :     3.892867  s :     3.892867
      pz      :     1.437557  p :     4.565094
      px      :     1.773582
      py      :     1.353954
      dz2     :     0.004767  d :     0.025653
      dxz     :     0.001453
      dyz     :     0.008095
      dx2y2   :     0.006461
      dxy     :     0.004877

  1 C s       :     2.909694  s :     2.909694
      pz      :     0.818817  p :     2.276396
      px      :     0.709607
      py      :     0.747972
      dz2     :     0.013374  d :     0.114411
      dxz     :     0.020136
      dyz     :     0.017165
      dx2y2   :     0.025748
      dxy     :     0.037987

  2 N s       :     3.637411  s :     3.637411
      pz      :     1.728055  p :     4.064837
      px      :     1.152432
      py      :     1.184350
      dz2     :     0.003896  d :     0.029396
      dxz     :     0.005065
      dyz     :     0.001578
      dx2y2   :     0.012381
      dxy     :     0.006476

  3 C s       :     3.057805  s :     3.057805
      pz      :     0.954928  p :     2.544128
      px      :     0.755260
      py      :     0.833940
      dz2     :     0.005618  d :     0.054459
      dxz     :     0.011187
      dyz     :     0.008146
      dx2y2   :     0.012444
      dxy     :     0.017064

  4 C s       :     3.177721  s :     3.177721
      pz      :     0.980942  p :     2.915565
      px      :     0.976676
      py      :     0.957947
      dz2     :     0.003630  d :     0.035182
      dxz     :     0.005168
      dyz     :     0.005722
      dx2y2   :     0.011198
      dxy     :     0.009463

  5 C s       :     3.210678  s :     3.210678
      pz      :     1.026311  p :     2.973889
      px      :     0.952337
      py      :     0.995241
      dz2     :     0.003102  d :     0.034930
      dxz     :     0.006846
      dyz     :     0.004332
      dx2y2   :     0.012059
      dxy     :     0.008591

  6 C s       :     3.078376  s :     3.078376
      pz      :     0.984599  p :     2.441497
      px      :     0.666206
      py      :     0.790692
      dz2     :     0.006622  d :     0.072198
      dxz     :     0.012547
      dyz     :     0.008712
      dx2y2   :     0.021209
      dxy     :     0.023109

  7 F s       :     3.970912  s :     3.970912
      pz      :     1.902604  p :     5.333169
      px      :     1.642676
      py      :     1.787889
      dz2     :     0.002047  d :     0.017086
      dxz     :     0.003212
      dyz     :     0.001583
      dx2y2   :     0.004447
      dxy     :     0.005796

  8 C s       :     3.205252  s :     3.205252
      pz      :     1.024508  p :     2.971360
      px      :     0.993010
      py      :     0.953842
      dz2     :     0.003938  d :     0.034866
      dxz     :     0.004353
      dyz     :     0.005907
      dx2y2   :     0.011667
      dxy     :     0.009000

  9 C s       :     3.180475  s :     3.180475
      pz      :     1.024889  p :     2.959243
      px      :     0.957777
      py      :     0.976577
      dz2     :     0.003082  d :     0.035278
      dxz     :     0.007100
      dyz     :     0.004019
      dx2y2   :     0.012325
      dxy     :     0.008752

 10 N s       :     3.573485  s :     3.573485
      pz      :     1.481429  p :     3.867450
      px      :     1.112900
      py      :     1.273122
      dz2     :     0.004651  d :     0.032159
      dxz     :     0.006569
      dyz     :     0.004962
      dx2y2   :     0.007563
      dxy     :     0.008414

 11 C s       :     3.213741  s :     3.213741
      pz      :     0.969370  p :     2.877969
      px      :     1.023482
      py      :     0.885117
      dz2     :     0.006833  d :     0.054154
      dxz     :     0.011720
      dyz     :     0.016217
      dx2y2   :     0.012216
      dxy     :     0.007168

 12 C s       :     3.272369  s :     3.272369
      pz      :     1.012051  p :     3.043270
      px      :     0.942294
      py      :     1.088925
      dz2     :     0.004381  d :     0.039172
      dxz     :     0.010646
      dyz     :     0.010044
      dx2y2   :     0.009438
      dxy     :     0.004663

 13 C s       :     3.082166  s :     3.082166
      pz      :     0.897012  p :     2.624766
      px      :     0.845935
      py      :     0.881819
      dz2     :     0.009125  d :     0.057488
      dxz     :     0.011476
      dyz     :     0.011232
      dx2y2   :     0.013366
      dxy     :     0.012289

 14 N s       :     3.685876  s :     3.685876
      pz      :     1.334835  p :     3.662377
      px      :     1.009337
      py      :     1.318205
      dz2     :     0.007091  d :     0.035766
      dxz     :     0.008636
      dyz     :     0.005026
      dx2y2   :     0.006895
      dxy     :     0.008118

 15 C s       :     3.152482  s :     3.152482
      pz      :     0.905696  p :     2.785943
      px      :     0.910104
      py      :     0.970143
      dz2     :     0.011614  d :     0.051987
      dxz     :     0.010620
      dyz     :     0.008296
      dx2y2   :     0.007648
      dxy     :     0.013809

 16 C s       :     3.150809  s :     3.150809
      pz      :     0.966132  p :     2.785575
      px      :     0.921476
      py      :     0.897967
      dz2     :     0.006849  d :     0.052085
      dxz     :     0.012555
      dyz     :     0.009179
      dx2y2   :     0.012968
      dxy     :     0.010535

 17 N s       :     3.690827  s :     3.690827
      pz      :     1.336426  p :     3.658236
      px      :     1.010588
      py      :     1.311221
      dz2     :     0.006923  d :     0.035422
      dxz     :     0.008730
      dyz     :     0.004923
      dx2y2   :     0.007097
      dxy     :     0.007748

 18 C s       :     3.080299  s :     3.080299
      pz      :     0.886709  p :     2.633693
      px      :     0.831028
      py      :     0.915956
      dz2     :     0.011276  d :     0.056314
      dxz     :     0.011954
      dyz     :     0.010233
      dx2y2   :     0.010084
      dxy     :     0.012768

 19 C s       :     3.214772  s :     3.214772
      pz      :     1.046921  p :     2.821816
      px      :     0.805301
      py      :     0.969595
      dz2     :     0.014595  d :     0.058312
      dxz     :     0.010197
      dyz     :     0.006398
      dx2y2   :     0.011617
      dxy     :     0.015505

 20 C s       :     3.134613  s :     3.134613
      pz      :     0.850587  p :     2.628404
      px      :     0.908119
      py      :     0.869699
      dz2     :     0.010074  d :     0.039918
      dxz     :     0.007522
      dyz     :     0.010286
      dx2y2   :     0.006355
      dxy     :     0.005680

 21 C s       :     3.203547  s :     3.203547
      pz      :     0.995548  p :     2.920338
      px      :     0.974006
      py      :     0.950784
      dz2     :     0.010379  d :     0.035554
      dxz     :     0.005115
      dyz     :     0.008232
      dx2y2   :     0.005918
      dxy     :     0.005909

 22 C s       :     3.205914  s :     3.205914
      pz      :     0.952673  p :     2.917854
      px      :     0.986313
      py      :     0.978868
      dz2     :     0.008410  d :     0.036134
      dxz     :     0.007640
      dyz     :     0.010133
      dx2y2   :     0.003733
      dxy     :     0.006218

 23 C s       :     3.157861  s :     3.157861
      pz      :     0.910101  p :     2.819046
      px      :     0.987168
      py      :     0.921778
      dz2     :     0.009358  d :     0.037978
      dxz     :     0.007275
      dyz     :     0.010086
      dx2y2   :     0.005704
      dxy     :     0.005555

 24 C s       :     2.805657  s :     2.805657
      pz      :     0.663126  p :     2.163625
      px      :     0.660809
      py      :     0.839690
      dz2     :     0.033805  d :     0.137928
      dxz     :     0.027124
      dyz     :     0.021606
      dx2y2   :     0.025207
      dxy     :     0.030186

 25 F s       :     3.979896  s :     3.979896
      pz      :     1.506118  p :     5.311531
      px      :     1.895381
      py      :     1.910033
      dz2     :     0.007919  d :     0.016251
      dxz     :     0.003735
      dyz     :     0.003924
      dx2y2   :     0.000290
      dxy     :     0.000383

 26 F s       :     3.980020  s :     3.980020
      pz      :     1.832695  p :     5.310515
      px      :     1.589160
      py      :     1.888660
      dz2     :     0.002233  d :     0.016271
      dxz     :     0.004883
      dyz     :     0.001012
      dx2y2   :     0.004423
      dxy     :     0.003721

 27 F s       :     3.976233  s :     3.976233
      pz      :     1.893448  p :     5.304008
      px      :     1.723211
      py      :     1.687350
      dz2     :     0.002244  d :     0.016334
      dxz     :     0.001818
      dyz     :     0.002309
      dx2y2   :     0.003863
      dxy     :     0.006099

 28 C s       :     3.203386  s :     3.203386
      pz      :     0.992228  p :     2.919566
      px      :     0.965705
      py      :     0.961633
      dz2     :     0.010055  d :     0.036168
      dxz     :     0.005115
      dyz     :     0.008198
      dx2y2   :     0.006740
      dxy     :     0.006058

 29 C s       :     3.198599  s :     3.198599
      pz      :     0.965038  p :     2.937876
      px      :     0.992956
      py      :     0.979882
      dz2     :     0.008107  d :     0.035659
      dxz     :     0.007620
      dyz     :     0.010118
      dx2y2   :     0.003684
      dxy     :     0.006131

 30 H s       :     0.671041  s :     0.671041

 31 H s       :     0.839470  s :     0.839470

 32 H s       :     0.850525  s :     0.850525

 33 H s       :     0.855329  s :     0.855329

 34 H s       :     0.871000  s :     0.871000

 35 H s       :     0.855195  s :     0.855195

 36 H s       :     0.837079  s :     0.837079

 37 H s       :     0.823683  s :     0.823683

 38 H s       :     0.821844  s :     0.821844

 39 H s       :     0.842630  s :     0.842630

 40 H s       :     0.841452  s :     0.841452

 41 H s       :     0.811168  s :     0.811168

 42 H s       :     0.850539  s :     0.850539

 43 H s       :     0.848059  s :     0.848059

 44 H s       :     0.851977  s :     0.851977

 45 H s       :     0.871717  s :     0.871717



                     *******************************
                     * LOEWDIN POPULATION ANALYSIS *
                     *******************************

----------------------
LOEWDIN ATOMIC CHARGES
----------------------
   0 O :   -0.298465
   1 C :    0.165765
   2 N :   -0.227243
   3 C :    0.034912
   4 C :   -0.121449
   5 C :   -0.151008
   6 C :    0.105896
   7 F :   -0.107370
   8 C :   -0.154701
   9 C :   -0.145838
  10 N :   -0.120467
  11 C :   -0.154916
  12 C :   -0.233094
  13 C :    0.011007
  14 N :   -0.112133
  15 C :   -0.081504
  16 C :   -0.081182
  17 N :   -0.109200
  18 C :    0.018558
  19 C :   -0.038933
  20 C :    0.006643
  21 C :   -0.116590
  22 C :   -0.108390
  23 C :   -0.072560
  24 C :    0.309372
  25 F :   -0.115631
  26 F :   -0.114875
  27 F :   -0.114230
  28 C :   -0.111838
  29 C :   -0.131190
  30 H :    0.255470
  31 H :    0.150136
  32 H :    0.146086
  33 H :    0.143934
  34 H :    0.132637
  35 H :    0.114064
  36 H :    0.132629
  37 H :    0.150772
  38 H :    0.145588
  39 H :    0.140274
  40 H :    0.140974
  41 H :    0.158036
  42 H :    0.143144
  43 H :    0.143592
  44 H :    0.141557
  45 H :    0.131760

-------------------------------
LOEWDIN REDUCED ORBITAL CHARGES
-------------------------------
  0 O s       :     3.591313  s :     3.591313
      pz      :     1.452172  p :     4.656878
      px      :     1.769700
      py      :     1.435006
      dz2     :     0.007395  d :     0.050275
      dxz     :     0.002356
      dyz     :     0.017273
      dx2y2   :     0.014872
      dxy     :     0.008379

  1 C s       :     2.839957  s :     2.839957
      pz      :     0.874851  p :     2.733120
      px      :     0.909834
      py      :     0.948434
      dz2     :     0.027886  d :     0.261158
      dxz     :     0.043779
      dyz     :     0.038328
      dx2y2   :     0.059666
      dxy     :     0.091498

  2 N s       :     3.143646  s :     3.143646
      pz      :     1.672741  p :     4.014732
      px      :     1.157313
      py      :     1.184678
      dz2     :     0.005553  d :     0.068865
      dxz     :     0.010910
      dyz     :     0.003410
      dx2y2   :     0.029699
      dxy     :     0.019293

  3 C s       :     2.854360  s :     2.854360
      pz      :     0.994384  p :     2.979127
      px      :     0.961478
      py      :     1.023264
      dz2     :     0.011813  d :     0.131601
      dxz     :     0.024315
      dyz     :     0.018258
      dx2y2   :     0.032737
      dxy     :     0.044478

  4 C s       :     2.915836  s :     2.915836
      pz      :     0.999690  p :     3.123506
      px      :     1.079649
      py      :     1.044167
      dz2     :     0.007041  d :     0.082108
      dxz     :     0.010110
      dyz     :     0.012943
      dx2y2   :     0.027758
      dxy     :     0.024255

  5 C s       :     2.920979  s :     2.920979
      pz      :     1.022525  p :     3.147785
      px      :     1.054225
      py      :     1.071035
      dz2     :     0.006234  d :     0.082244
      dxz     :     0.015579
      dyz     :     0.007267
      dx2y2   :     0.029594
      dxy     :     0.023570

  6 C s       :     2.863905  s :     2.863905
      pz      :     1.002884  p :     2.851303
      px      :     0.875040
      py      :     0.973379
      dz2     :     0.015785  d :     0.178896
      dxz     :     0.027934
      dyz     :     0.019845
      dx2y2   :     0.056819
      dxy     :     0.058511

  7 F s       :     3.734651  s :     3.734651
      pz      :     1.895226  p :     5.338286
      px      :     1.653513
      py      :     1.789548
      dz2     :     0.004165  d :     0.034433
      dxz     :     0.006527
      dyz     :     0.003179
      dx2y2   :     0.008791
      dxy     :     0.011771

  8 C s       :     2.919905  s :     2.919905
      pz      :     1.026443  p :     3.152523
      px      :     1.075339
      py      :     1.050741
      dz2     :     0.007515  d :     0.082273
      dxz     :     0.008724
      dyz     :     0.013510
      dx2y2   :     0.028844
      dxy     :     0.023679

  9 C s       :     2.913874  s :     2.913874
      pz      :     1.029161  p :     3.149068
      px      :     1.052396
      py      :     1.067511
      dz2     :     0.005992  d :     0.082897
      dxz     :     0.016000
      dyz     :     0.006987
      dx2y2   :     0.030195
      dxy     :     0.023723

 10 N s       :     3.116789  s :     3.116789
      pz      :     1.474842  p :     3.922493
      px      :     1.145630
      py      :     1.302021
      dz2     :     0.010167  d :     0.081185
      dxz     :     0.015944
      dyz     :     0.011622
      dx2y2   :     0.020329
      dxy     :     0.023123

 11 C s       :     2.929577  s :     2.929577
      pz      :     1.048705  p :     3.111877
      px      :     1.082020
      py      :     0.981152
      dz2     :     0.013963  d :     0.113463
      dxz     :     0.024200
      dyz     :     0.033360
      dx2y2   :     0.026533
      dxy     :     0.015406

 12 C s       :     2.931007  s :     2.931007
      pz      :     1.072585  p :     3.218355
      px      :     1.029878
      py      :     1.115892
      dz2     :     0.009266  d :     0.083732
      dxz     :     0.024856
      dyz     :     0.019620
      dx2y2   :     0.020351
      dxy     :     0.009639

 13 C s       :     2.871038  s :     2.871038
      pz      :     1.004414  p :     2.976414
      px      :     0.978593
      py      :     0.993407
      dz2     :     0.021857  d :     0.141540
      dxz     :     0.028529
      dyz     :     0.028582
      dx2y2   :     0.031768
      dxy     :     0.030804

 14 N s       :     3.246977  s :     3.246977
      pz      :     1.348984  p :     3.785745
      px      :     1.106900
      py      :     1.329861
      dz2     :     0.013313  d :     0.079410
      dxz     :     0.020647
      dyz     :     0.008680
      dx2y2   :     0.016856
      dxy     :     0.019914

 15 C s       :     2.925222  s :     2.925222
      pz      :     0.998168  p :     3.035550
      px      :     1.004397
      py      :     1.032985
      dz2     :     0.026010  d :     0.120731
      dxz     :     0.026330
      dyz     :     0.022057
      dx2y2   :     0.017767
      dxy     :     0.028568

 16 C s       :     2.924510  s :     2.924510
      pz      :     1.029099  p :     3.035774
      px      :     1.009867
      py      :     0.996808
      dz2     :     0.015877  d :     0.120898
      dxz     :     0.025410
      dyz     :     0.024580
      dx2y2   :     0.029152
      dxy     :     0.025879

 17 N s       :     3.242792  s :     3.242792
      pz      :     1.344159  p :     3.787538
      px      :     1.107916
      py      :     1.335463
      dz2     :     0.013051  d :     0.078870
      dxz     :     0.020514
      dyz     :     0.008693
      dx2y2   :     0.017178
      dxy     :     0.019433

 18 C s       :     2.873764  s :     2.873764
      pz      :     0.996256  p :     2.969471
      px      :     0.978331
      py      :     0.994884
      dz2     :     0.026481  d :     0.138207
      dxz     :     0.030222
      dyz     :     0.025884
      dx2y2   :     0.024188
      dxy     :     0.031433

 19 C s       :     2.880286  s :     2.880286
      pz      :     1.080395  p :     3.030415
      px      :     0.918514
      py      :     1.031506
      dz2     :     0.030562  d :     0.128232
      dxz     :     0.021893
      dyz     :     0.013968
      dx2y2   :     0.025821
      dxy     :     0.035987

 20 C s       :     2.883954  s :     2.883954
      pz      :     1.048942  p :     3.010120
      px      :     0.975511
      py      :     0.985666
      dz2     :     0.026253  d :     0.099283
      dxz     :     0.018939
      dyz     :     0.026929
      dx2y2   :     0.013656
      dxy     :     0.013506

 21 C s       :     2.916327  s :     2.916327
      pz      :     1.071917  p :     3.116892
      px      :     1.006578
      py      :     1.038397
      dz2     :     0.022243  d :     0.083371
      dxz     :     0.011253
      dyz     :     0.020464
      dx2y2   :     0.013720
      dxy     :     0.015691

 22 C s       :     2.917116  s :     2.917116
      pz      :     1.051444  p :     3.106787
      px      :     1.005503
      py      :     1.049840
      dz2     :     0.021664  d :     0.084487
      dxz     :     0.016311
      dyz     :     0.025746
      dx2y2   :     0.008212
      dxy     :     0.012554

 23 C s       :     2.887502  s :     2.887502
      pz      :     1.060507  p :     3.088469
      px      :     1.023183
      py      :     1.004780
      dz2     :     0.025510  d :     0.096588
      dxz     :     0.018523
      dyz     :     0.026806
      dx2y2   :     0.012658
      dxy     :     0.013092

 24 C s       :     2.850646  s :     2.850646
      pz      :     0.794079  p :     2.510722
      px      :     0.794116
      py      :     0.922527
      dz2     :     0.083961  d :     0.329260
      dxz     :     0.063278
      dyz     :     0.049179
      dx2y2   :     0.058436
      dxy     :     0.074406

 25 F s       :     3.759164  s :     3.759164
      pz      :     1.528563  p :     5.325557
      px      :     1.891818
      py      :     1.905176
      dz2     :     0.016846  d :     0.030909
      dxz     :     0.006170
      dyz     :     0.006827
      dx2y2   :     0.000462
      dxy     :     0.000604

 26 F s       :     3.759217  s :     3.759217
      pz      :     1.832599  p :     5.324732
      px      :     1.605841
      py      :     1.886292
      dz2     :     0.004115  d :     0.030926
      dxz     :     0.009416
      dyz     :     0.001871
      dx2y2   :     0.008411
      dxy     :     0.007112

 27 F s       :     3.761709  s :     3.761709
      pz      :     1.890628  p :     5.321251
      px      :     1.730459
      py      :     1.700164
      dz2     :     0.004712  d :     0.031270
      dxz     :     0.003077
      dyz     :     0.003636
      dx2y2   :     0.006816
      dxy     :     0.013029

 28 C s       :     2.916377  s :     2.916377
      pz      :     1.070630  p :     3.110745
      px      :     1.000739
      py      :     1.039375
      dz2     :     0.021771  d :     0.084717
      dxz     :     0.011299
      dyz     :     0.020216
      dx2y2   :     0.015408
      dxy     :     0.016023

 29 C s       :     2.915037  s :     2.915037
      pz      :     1.054062  p :     3.132725
      px      :     1.024813
      py      :     1.053850
      dz2     :     0.020908  d :     0.083428
      dxz     :     0.016040
      dyz     :     0.025569
      dx2y2   :     0.008359
      dxy     :     0.012552

 30 H s       :     0.744530  s :     0.744530

 31 H s       :     0.849864  s :     0.849864

 32 H s       :     0.853914  s :     0.853914

 33 H s       :     0.856066  s :     0.856066

 34 H s       :     0.867363  s :     0.867363

 35 H s       :     0.885936  s :     0.885936

 36 H s       :     0.867371  s :     0.867371

 37 H s       :     0.849228  s :     0.849228

 38 H s       :     0.854412  s :     0.854412

 39 H s       :     0.859726  s :     0.859726

 40 H s       :     0.859026  s :     0.859026

 41 H s       :     0.841964  s :     0.841964

 42 H s       :     0.856856  s :     0.856856

 43 H s       :     0.856408  s :     0.856408

 44 H s       :     0.858443  s :     0.858443

 45 H s       :     0.868240  s :     0.868240



                      *****************************
                      * MAYER POPULATION ANALYSIS *
                      *****************************

  NA   - Mulliken gross atomic population
  ZA   - Total nuclear charge
  QA   - Mulliken gross atomic charge
  VA   - Mayer's total valence
  BVA  - Mayer's bonded valence
  FA   - Mayer's free valence

  ATOM       NA         ZA         QA         VA         BVA        FA
  0 O      8.4836     8.0000    -0.4836     2.0440     2.0440    -0.0000
  1 C      5.3005     6.0000     0.6995     3.9121     3.9121    -0.0000
  2 N      7.7316     7.0000    -0.7316     2.8614     2.8614    -0.0000
  3 C      5.6564     6.0000     0.3436     3.8664     3.8664    -0.0000
  4 C      6.1285     6.0000    -0.1285     3.9086     3.9086    -0.0000
  5 C      6.2195     6.0000    -0.2195     3.8949     3.8949     0.0000
  6 C      5.5921     6.0000     0.4079     3.8236     3.8236     0.0000
  7 F      9.3212     9.0000    -0.3212     1.0403     1.0403     0.0000
  8 C      6.2115     6.0000    -0.2115     3.9068     3.9068    -0.0000
  9 C      6.1750     6.0000    -0.1750     3.9065     3.9065    -0.0000
 10 N      7.4731     7.0000    -0.4731     2.9868     2.9868    -0.0000
 11 C      6.1459     6.0000    -0.1459     3.8313     3.8313    -0.0000
 12 C      6.3548     6.0000    -0.3548     3.8264     3.8264     0.0000
 13 C      5.7644     6.0000     0.2356     3.8927     3.8927    -0.0000
 14 N      7.3840     7.0000    -0.3840     2.9865     2.9865    -0.0000
 15 C      5.9904     6.0000     0.0096     3.8863     3.8863    -0.0000
 16 C      5.9885     6.0000     0.0115     3.8871     3.8871    -0.0000
 17 N      7.3845     7.0000    -0.3845     2.9708     2.9708     0.0000
 18 C      5.7703     6.0000     0.2297     3.8574     3.8574     0.0000
 19 C      6.0949     6.0000    -0.0949     3.8126     3.8126    -0.0000
 20 C      5.8029     6.0000     0.1971     3.9152     3.9152     0.0000
 21 C      6.1594     6.0000    -0.1594     3.9188     3.9188     0.0000
 22 C      6.1599     6.0000    -0.1599     3.9235     3.9235    -0.0000
 23 C      6.0149     6.0000    -0.0149     3.9640     3.9640     0.0000
 24 C      5.1072     6.0000     0.8928     3.9145     3.9145    -0.0000
 25 F      9.3077     9.0000    -0.3077     1.0516     1.0516    -0.0000
 26 F      9.3068     9.0000    -0.3068     1.0528     1.0528    -0.0000
 27 F      9.2966     9.0000    -0.2966     1.0558     1.0558    -0.0000
 28 C      6.1591     6.0000    -0.1591     3.9340     3.9340    -0.0000
 29 C      6.1721     6.0000    -0.1721     3.9178     3.9178    -0.0000
 30 H      0.6710     1.0000     0.3290     0.8665     0.8665    -0.0000
 31 H      0.8395     1.0000     0.1605     0.9445     0.9445    -0.0000
 32 H      0.8505     1.0000     0.1495     0.9362     0.9362    -0.0000
 33 H      0.8553     1.0000     0.1447     0.9370     0.9370     0.0000
 34 H      0.8710     1.0000     0.1290     0.9385     0.9385     0.0000
 35 H      0.8552     1.0000     0.1448     0.9221     0.9221    -0.0000
 36 H      0.8371     1.0000     0.1629     0.9320     0.9320    -0.0000
 37 H      0.8237     1.0000     0.1763     0.9361     0.9361     0.0000
 38 H      0.8218     1.0000     0.1782     0.9288     0.9288     0.0000
 39 H      0.8426     1.0000     0.1574     0.9321     0.9321    -0.0000
 40 H      0.8415     1.0000     0.1585     0.9317     0.9317     0.0000
 41 H      0.8112     1.0000     0.1888     0.9318     0.9318     0.0000
 42 H      0.8505     1.0000     0.1495     0.9413     0.9413    -0.0000
 43 H      0.8481     1.0000     0.1519     0.9408     0.9408    -0.0000
 44 H      0.8520     1.0000     0.1480     0.9416     0.9416    -0.0000
 45 H      0.8717     1.0000     0.1283     0.9449     0.9449    -0.0000

  Mayer bond orders larger than 0.100000
B(  0-O ,  1-C ) :   1.7836 B(  1-C ,  2-N ) :   1.0006 B(  1-C , 10-N ) :   1.0413 
B(  2-N ,  3-C ) :   0.8686 B(  2-N , 30-H ) :   0.8213 B(  3-C ,  4-C ) :   1.4172 
B(  3-C ,  9-C ) :   1.4084 B(  4-C ,  5-C ) :   1.4314 B(  4-C , 31-H ) :   0.9107 
B(  5-C ,  6-C ) :   1.3833 B(  5-C , 32-H ) :   0.9203 B(  6-C ,  7-F ) :   0.9136 
B(  6-C ,  8-C ) :   1.3984 B(  8-C ,  9-C ) :   1.4272 B(  8-C , 33-H ) :   0.9205 
B(  9-C , 34-H ) :   0.9244 B( 10-N , 11-C ) :   0.9371 B( 10-N , 19-C ) :   0.9112 
B( 11-C , 12-C ) :   0.9926 B( 11-C , 35-H ) :   0.9225 B( 11-C , 36-H ) :   0.9220 
B( 12-C , 13-C ) :   0.9971 B( 12-C , 37-H ) :   0.9222 B( 12-C , 38-H ) :   0.9126 
B( 13-C , 14-N ) :   1.3954 B( 13-C , 16-C ) :   0.1014 B( 13-C , 18-C ) :   1.3575 
B( 14-N , 15-C ) :   1.4361 B( 15-C , 16-C ) :   1.3852 B( 15-C , 18-C ) :   0.1026 
B( 15-C , 39-H ) :   0.9246 B( 16-C , 17-N ) :   1.4357 B( 16-C , 40-H ) :   0.9240 
B( 17-N , 18-C ) :   1.3780 B( 18-C , 19-C ) :   0.9533 B( 19-C , 20-C ) :   0.9399 
B( 19-C , 41-H ) :   0.9004 B( 20-C , 21-C ) :   1.4188 B( 20-C , 29-C ) :   1.4211 
B( 21-C , 22-C ) :   1.4246 B( 21-C , 42-H ) :   0.9187 B( 22-C , 23-C ) :   1.4087 
B( 22-C , 43-H ) :   0.9200 B( 23-C , 24-C ) :   0.9808 B( 23-C , 28-C ) :   1.4120 
B( 24-C , 25-F ) :   0.9457 B( 24-C , 26-F ) :   0.9468 B( 24-C , 27-F ) :   0.9870 
B( 28-C , 29-C ) :   1.4286 B( 28-C , 44-H ) :   0.9205 B( 29-C , 45-H ) :   0.9169 


-------
TIMINGS
-------

Total SCF time: 0 days 0 hours 7 min 41 sec 

Total time                  ....     461.036 sec
Sum of individual times     ....     460.653 sec  ( 99.9%)

SCF preparation             ....       0.332 sec  (  0.1%)
Fock matrix formation       ....     457.982 sec  ( 99.3%)
  Startup                   ....       0.091 sec  (  0.0% of F)
  Split-RI-J                ....      57.963 sec  ( 12.7% of F)
  Chain of spheres X        ....     356.779 sec  ( 77.9% of F)
  XC integration            ....      42.320 sec  (  9.2% of F)
    XC Preparation          ....       0.000 sec  (  0.0% of XC)
    Basis function eval.    ....      16.642 sec  ( 39.3% of XC)
    Density eval.           ....      10.273 sec  ( 24.3% of XC)
    XC-Functional eval.     ....       2.152 sec  (  5.1% of XC)
    XC-Potential eval.      ....      11.037 sec  ( 26.1% of XC)
Diagonalization             ....       0.000 sec  (  0.0%)
Density matrix formation    ....       0.395 sec  (  0.1%)
Total Energy calculation    ....       0.070 sec  (  0.0%)
Population analysis         ....       0.062 sec  (  0.0%)
Orbital Transformation      ....       0.180 sec  (  0.0%)
Orbital Orthonormalization  ....       0.000 sec  (  0.0%)
DIIS solution               ....       1.007 sec  (  0.2%)
SOSCF solution              ....       0.624 sec  (  0.1%)
Finished LeanSCF after 461.1 sec

Maximum memory used throughout the entire LEANSCF-calculation: 72.1 MB

-------------------------   --------------------
FINAL SINGLE POINT ENERGY     -1502.632613736857
-------------------------   --------------------


------------------------------------------------------------------------------
                              ORCA PROPERTY CALCULATIONS
------------------------------------------------------------------------------

GBWName                                 ... /home/nmrbox/aojoawo/Documents/ERDOS/inputs/CHEMBL3235978.gbw
Number of atoms                         ...     46
Number of basis functions               ...    452
Max core memory                         ...   1024 MB

Electric properties:
Dipole moment                           ... YES
Quadrupole moment                       ...  NO
Static polarizability (Dipole/Dipole)   ...  NO
Static polarizability (Dipole/Quad.)    ...  NO
Static polarizability (Quad./Quad.)     ...  NO
Static polarizability (Velocity)        ...  NO

Atomic electric properties:
Dipole moment                           ...  NO
Quadrupole moment                       ...  NO
Static polarizability                   ...  NO

Choice of electric origin               ... Center of mass
Position of electric origin             ...    -0.282573     0.996737     0.132618

General magnetic properties:
Magnetizability                         ...  NO

EPR properties:
g-Tensor (aka g-matrix)                 ...  NO
Zero-Field splitting spin-orbit         ...  NO
Zero-field splitting spin-spin          ...  NO
Hyperfine couplings                     ...  NO (   0 nuclei)
Quadrupole couplings                    ...  NO (   0 nuclei)
Contact density                         ...  NO (   0 nuclei)

NMR properties:
Chemical shifts                         ...  NO (   0 nuclei)
Spin-rotation constants                 ...  NO (   0 nuclei)
Spin-spin couplings                     ...  NO (   0 nuclei,    0 pairs)

Choice of magnetic origin               ... GIAO
Position of magnetic origin             ...     0.000000     0.000000     0.000000

Properties with geometric perturbations:
SCF Hessian                             ...  NO
IR spectrum                             ...  NO
VCD spectrum                            ...  NO
X-ray spectroscopy properties:
SCF XES/XAS/RIXS spectra                ...  NO


-------------
DIPOLE MOMENT
-------------

Method             : SCF
Type of density    : Electron Density
Multiplicity       :   1
Irrep              :   0
Energy             : -1502.6326137368571381 Eh
Relativity type    : 
Basis              : AO
                                X                 Y                 Z
Electronic contribution:     -7.993155321      28.522562473       5.935156606
Nuclear contribution   :      7.860749613     -31.052697292      -5.799631228
                        -----------------------------------------
Total Dipole Moment    :     -0.132405708      -2.530134819       0.135525378
                        -----------------------------------------
Magnitude (a.u.)       :      2.537219068
Magnitude (Debye)      :      6.449098354



--------------------
Rotational spectrum 
--------------------
 
Rotational constants in cm-1:             0.005317             0.003028             0.002077 
Rotational constants in MHz :           159.411525            90.773825            62.278275 

Dipole components along the rotational axes: 
x,y,z [a.u.] :    -0.133031    -2.419642     0.751743 
x,y,z [Debye]:    -0.338138    -6.150241     1.910778 

 

Dipole moment calculation done in   0.0 sec 

Maximum memory used throughout the entire PROP-calculation: 35.0 MB

--------------------------------
SUGGESTED CITATIONS FOR THIS RUN
--------------------------------

Below you find a list of papers that are relevant to this ORCA run
We neither can nor want to force you to cite these papers, but we appreciate if you do
You receive ORCA, which is the product of decades of hard work by many enthusiastic individuals, for free
The only thing we kindly ask in return is that you cite our papers,
We deeply appreciate it, if you show your appreciation for ORCA by not just citing the generic ORCA reference.

Please note that relegating all ORCA citations to the supporting information does *not* help us.
SI sections are not indexed - citations you put there will not count into any citation statistics
But we need these citations in order to attract the funding resources that allow us to do what we are doing

Therefore, if you are a happy ORCA user, please consider citing a few of the papers listed below in the main body of your paper

In addition to the list printed below, the program has created the file /home/nmrbox/aojoawo/Documents/ERDOS/inputs/CHEMBL3235978.bibtex that contains the list in bibtex format
You can import this file easily into all common literature databanks and citation aid programs


List of essential papers. We consider these as the minimum necessary citations

  1. Neese,F.
     Software update: the ORCA program system, version 5.0
     WIRES Comput. Molec. Sci., 2022 12(1)e1606
     doi.org/10.1002/wcms.1606

List of papers to cite with high priority. The work reported in these papers was absolutely
necessary for this run to complete.
Our perspective: the developers of density functionals and basis sets usually get cited in chemistry papers
Good! But without the algorithms to do something with them, the functionals or basis sets would not do anything.
Hence, in our opinion, the algorithm design and method developments papers are equally worthy of getting cited

  1. Neese,F.
     An improvement of the resolution of the identity approximation for the formation of the Coulomb matrix
     J. Comp. Chem., 2003 24(14)1740-1747
     doi.org/10.1002/jcc.10318
  2. Neese,F.; Wennmohs,F.; Hansen,A.; Becker,U.
     Efficient, approximate and parallel Hartree-Fock and hybrid DFT calculations. A 'chain-of-spheres' algorithm for the Hartree-Fock exchange
     Chem. Phys., 2009 356(1-3)98-109
     doi.org/10.1016/j.chemphys.2008.10.036
  3. Helmich-Paris,B.; de Souza,B.; Neese,F.; Izsák,R.
     An improved chain of spheres for exchange algorithm
     J. Chem. Phys., 2021 155 104109
     doi.org/doi: 10.1063/5.0058766.
  4. Neese,F.
     The SHARK Integral Generation and Digestion System
     J. Comp. Chem., 2022  1-16
     doi.org/10.1002/jcc.26942

List of suggested additional citations. These are papers that are important in the 'surrounding' of 
of this run, or papers that preceded the highly important papers. If you like your results we are grateful for a citation.

  1. Izsak,R.; Neese,F.
     An overlap fitted chain of spheres exchange method
     J. Chem. Phys., 2011 135 144105
     doi.org/10.1063/1.3646921
  2. Izsak,R.; Hansen,A.; Neese,F.
     The resolution of identity and chain of spheres approximations for the LPNO-CCSD singles Fock term
     Molec. Phys., 2012 110 2413-2417
     doi.org/10.1080/00268976.2012.687466
  3. Neese,F.
     The ORCA program system
     WIRES Comput. Molec. Sci., 2012 2(1)73-78
     doi.org/10.1002/wcms.81
  4. Izsak,R.; Neese,F.; Klopper,W.
     Robust fitting techniques in the chain of spheres approximation to the Fock exchange: The role of the complementary space
     J. Chem. Phys., 2013 139 
     doi.org/10.1063/1.4819264
  5. Neese,F.
     Software update: the ORCA program system, version 4.0
     WIRES Comput. Molec. Sci., 2018 8(1)1-6
     doi.org/10.1002/wcms.1327
  6. Neese,F.; Wennmohs,F.; Becker,U.; Riplinger,C.
     The ORCA quantum chemistry program package
     J. Chem. Phys., 2020 152 Art. No. L224108
     doi.org/10.1063/5.0004608

List of optional additional citations

  1. Neese,F.
     Approximate second-order SCF convergence for spin unrestricted wavefunctions
     Chem. Phys. Lett., 2000 325(1-3)93-98
     doi.org/10.1016/s0009-2614(00)00662-x

Timings for individual modules:

Sum of individual times          ...      479.879 sec (=   7.998 min)
Startup calculation              ...       12.142 sec (=   0.202 min)   2.5 %
SCF iterations                   ...      467.517 sec (=   7.792 min)  97.4 %
Property calculations            ...        0.219 sec (=   0.004 min)   0.0 %
                             ****ORCA TERMINATED NORMALLY****
TOTAL RUN TIME: 0 days 0 hours 8 minutes 0 seconds 789 msec
