
                                 *****************
                                 * O   R   C   A *
                                 *****************

                                            #,                                       
                                            ###                                      
                                            ####                                     
                                            #####                                    
                                            ######                                   
                                           ########,                                 
                                     ,,################,,,,,                         
                               ,,#################################,,                 
                          ,,##########################################,,             
                       ,#########################################, ''#####,          
                    ,#############################################,,   '####,        
                  ,##################################################,,,,####,       
                ,###########''''           ''''###############################       
              ,#####''   ,,,,##########,,,,          '''####'''          '####       
            ,##' ,,,,###########################,,,                        '##       
           ' ,,###''''                  '''############,,,                           
         ,,##''                                '''############,,,,        ,,,,,,###''
      ,#''                                            '''#######################'''  
     '                                                          ''''####''''         
             ,#######,   #######,   ,#######,      ##                                
            ,#'     '#,  ##    ##  ,#'     '#,    #''#        ,####,   ,####,        
            ##       ##  ##   ,#'  ##            #'  '#       #'       #'  '#        
            ##       ##  #######   ##           ,######,      #####,   #    #        
            '#,     ,#'  ##    ##  '#,     ,#' ,#      #,     #,   #   #,  ,#        
             '#######'   ##     ##  '#######'  #'      '#     '####' # '####'        



                #########################################################
                #                        -***-                          #
                #          Department of theory and spectroscopy        #
                #                                                       #
                #                      Frank Neese                      #
                #                                                       #
                #     Directorship, Architecture, Infrastructure        #
                #                    SHARK, DRIVERS                     #
                #        Core code/Algorithms in most modules           #
                #                                                       #
                #        Max Planck Institute fuer Kohlenforschung      #
                #                Kaiser Wilhelm Platz 1                 #
                #                 D-45470 Muelheim/Ruhr                 #
                #                      Germany                          #
                #                                                       #
                #                  All rights reserved                  #
                #                        -***-                          #
                #########################################################


                         Program Version 6.0.0  -   RELEASE  -


 With contributions from (in alphabetic order):
   Daniel Aravena         : Magnetic Suceptibility
   Michael Atanasov       : Ab Initio Ligand Field Theory (pilot matlab implementation)
   Alexander A. Auer      : GIAO ZORA, VPT2 properties, NMR spectrum
   Ute Becker             : All parallelization in ORCA, NUMFREQ, NUMCALC
   Giovanni Bistoni       : ED, misc. LED, open-shell LED, HFLD
   Martin Brehm           : Molecular dynamics
   Dmytro Bykov           : pre 5.0 version of the SCF Hessian
   Marcos Casanova-Páez   : Triplet and SCS-CIS(D). UHF-(DLPNO)-IP/EA/STEOM-CCSD. UHF-CVS-IP/STEOM-CCSD
   Vijay G. Chilkuri      : MRCI spin determinant printing, contributions to CSF-ICE
   Pauline Colinet        : FMM embedding
   Dipayan Datta          : RHF DLPNO-CCSD density
   Achintya Kumar Dutta   : EOM-CC, STEOM-CC
   Nicolas Foglia         : Exact transition moments, OPA infrastructure, MCD improvements
   Dmitry Ganyushin       : Spin-Orbit,Spin-Spin,Magnetic field MRCI
   Miquel Garcia          : C-PCM and meta-GGA Hessian, CCSD/C-PCM, Gaussian charge scheme
   Tiago L. C. Gouveia    : GS-ROHF, GS-ROCIS
   Yang Guo               : DLPNO-NEVPT2, F12-NEVPT2, CIM, IAO-localization
   Andreas Hansen         : Spin unrestricted coupled pair/coupled cluster methods
   Ingolf Harden          : AUTO-CI MPn and infrastructure 
   Benjamin Helmich-Paris : MC-RPA, TRAH-(SCF,CASSCF), AVAS, COSX integrals, SCF dyn. polar.
   Lee Huntington         : MR-EOM, pCC
   Robert Izsak           : Overlap fitted RIJCOSX, COSX-SCS-MP3, EOM
   Riya Kayal             : Wick's Theorem for AUTO-CI, AUTO-CI UHF-CCSDT
   Emily Kempfer          : AUTO-CI, RHF CISDT and CCSDT
   Christian Kollmar      : KDIIS, OOCD, Brueckner-CCSD(T), CCSD density, CASPT2, CASPT2-K, improved NEVPT2
   Axel Koslowski         : Symmetry handling
   Simone Kossmann        : Meta GGA functionals, TD-DFT gradient, OOMP2, (MP2 Hessian; deprecated post 5.0)
   Lucas Lang             : DCDCAS
   Marvin Lechner         : AUTO-CI (C++ implementation), FIC-MRCC
   Spencer Leger          : CASSCF response
   Dagmar Lenk            : GEPOL surface, SMD, ORCA-2-JSON
   Dimitrios Liakos       : Extrapolation schemes; Compound Job, initial MDCI parallelization
   Dimitrios Manganas     : Further ROCIS development; embedding schemes. LFT, Crystal Embedding
   Dimitrios Pantazis     : SARC Basis sets
   Anastasios Papadopoulos: AUTO-CI, single reference methods and gradients
   Taras Petrenko         : pre 6.0 DFT Hessian and TD-DFT gradient, (ASA, deprecated), ECA, 1-Electron XAS/XES, NRVS
   Peter Pinski           : DLPNO-MP2, DLPNO-MP2 Gradient
   Christoph Reimann      : Effective Core Potentials
   Marius Retegan         : Local ZFS, SOC
   Christoph Riplinger    : Optimizer, TS searches, QM/MM, DLPNO-CCSD(T), (RO)-DLPNO pert. Triples
   Michael Roemelt        : Original ROCIS implementation
   Masaaki Saitow         : Open-shell DLPNO-CCSD energy and density
   Barbara Sandhoefer     : DKH picture change effects
   Kantharuban Sivalingam : CASSCF convergence/infrastructure, NEVPT2 and variants, FIC-MRCI
   Bernardo de Souza      : ESD, SOC TD-DFT
   Georgi Stoychev        : AutoAux, RI-MP2 NMR, DLPNO-MP2 response, X2C
   Van Anh Tran           : RI-MP2 g-tensors
   Willem Van den Heuvel  : Paramagnetic NMR
   Zikuan Wang            : NOTCH, Electric field optimization 
   Frank Wennmohs         : Technical directorship and infrastructure
   Hang Xu                : AUTO-CI-Response properties 


 We gratefully acknowledge several colleagues who have allowed us to
 interface, adapt or use parts of their codes:
   Stefan Grimme, W. Hujo, H. Kruse, P. Pracht,  : VdW corrections, initial TS optimization,
                  C. Bannwarth, S. Ehlert,         DFT functionals, gCP, sTDA/sTD-DF
                  L. Wittmann, M. Mueller
   Ed Valeev, F. Pavosevic, A. Kumar             : LibInt (2-el integral package), F12 methods
   Garnet Chan, S. Sharma, J. Yang, R. Olivares  : DMRG
   Ulf Ekstrom                                   : XCFun DFT Library
   Mihaly Kallay                                 : mrcc  (arbitrary order and MRCC methods)
   Frank Weinhold                                : gennbo (NPA and NBO analysis)
   Simon Mueller                                 : openCOSMO-RS
   Christopher J. Cramer and Donald G. Truhlar   : smd solvation model
   Lars Goerigk                                  : TD-DFT with DH, B97 family of functionals
   V. Asgeirsson, H. Jonsson                     : NEB implementation
   FAccTs GmbH                                   : IRC, NEB, NEB-TS, DLPNO-Multilevel, CI-OPT
                                                   MM, QMMM, 2- and 3-layer-ONIOM, Crystal-QMMM,
                                                   LR-CPCM, SF, NACMEs, symmetry and pop. for TD-DFT,
                                                   nearIR, NL-DFT gradient (VV10), updates on ESD,
                                                   ML-optimized integration grids, MBIS, APM,
                                                   GOAT, DOCKER, SOLVATOR, interface openCOSMO-RS
   S Lehtola, MJT Oliveira, MAL Marques          : LibXC Library
   Liviu Ungur et al                             : ANISO software


 Your calculation uses the libint2 library for the computation of 2-el integrals
 For citations please refer to: http://libint.valeyev.net

 Your ORCA version has been built with support for libXC version: 6.2.2
 For citations please refer to: https://libxc.gitlab.io

 This ORCA versions uses:
   CBLAS   interface :  Fast vector & matrix operations
   LAPACKE interface :  Fast linear algebra routines
   SCALAPACK package :  Parallel linear algebra routines
   Shared memory     :  Shared parallel matrices
   BLAS/LAPACK       :  OpenBLAS 0.3.27  USE64BITINT DYNAMIC_ARCH NO_AFFINITY SkylakeX SINGLE_THREADED
        Core in use  :  SkylakeX
   Copyright (c) 2011-2014, The OpenBLAS Project


Warning: RI is on but no J-basis has been assigned. Assigning Def2/J (nothing to worry about!)
================================================================================

----- Orbital basis set information -----
Your calculation utilizes the basis: 6-31G*
   H-He, Li-Ne : W. J. Hehre, R. Ditchfield and J.A. Pople, J. Chem. Phys. 56, 2257 (1972).
                 Note: He and Ne are unpublished basis sets taken from the Gaussian program.
                 Note: Li and B from J. D. Dill and J. A. Pople, J. Chem. Phys. 62, 2921 (1975).
   Na - Ar     : M. M. Francl, W. J. Pietro, W. J. Hehre, J. S. Binkley, M. S. Gordon, 
                 D. J. DeFrees and J. A. Pople, J. Chem. Phys. 77, 3654 (1982).
   K - Zn      : V. A. Rassolov, J. A. Pople, M. A. Ratner, and T. L. Windus, J. Chem. Phys. 109, 1223 (1998).

----- AuxJ basis set information -----
Your calculation utilizes the auxiliary basis: def2/J
   F. Weigend, Phys. Chem. Chem. Phys. 8, 1057 (2006).

================================================================================
                                        WARNINGS
                       Please study these warnings very carefully!
================================================================================


================================================================================
                                       INPUT FILE
================================================================================
NAME = /home/nmrbox/aojoawo/Documents/ERDOS/inputs/CHEMBL3353585.inp
|  1> ! B3LYP 6-31G* SP
|  2> 
|  3> * xyz 0 1
|  4> N -2.3745 -0.5949 -4.6540
|  5> C -2.6179 -0.1738 -3.6041
|  6> C -2.9204 0.3491 -2.2951
|  7> C -4.0956 1.0819 -2.0964
|  8> C -4.4255 1.5588 -0.8180
|  9> C -5.6694 2.3834 -0.6009
| 10> F -6.1349 2.2355 0.6945
| 11> F -5.3776 3.7160 -0.8256
| 12> F -6.6733 1.9883 -1.4686
| 13> C -3.5293 1.3211 0.2358
| 14> N -2.3919 0.6097 0.0216
| 15> C -2.0651 0.1204 -1.2038
| 16> N -0.8556 -0.6310 -1.3599
| 17> C -0.7855 -2.0132 -0.8793
| 18> C 0.1408 -2.1220 0.3025
| 19> C 1.4386 -2.6369 0.1445
| 20> C 2.3201 -2.6698 1.2292
| 21> C 1.9122 -2.1927 2.4780
| 22> C 0.6215 -1.6851 2.6448
| 23> C -0.2626 -1.6499 1.5625
| 24> S 0.5291 0.1191 -2.0994
| 25> O 1.0991 -0.8174 -3.1281
| 26> O 0.1237 1.3948 -2.7828
| 27> C 1.7298 0.4906 -0.8666
| 28> C 1.3399 1.1529 0.3028
| 29> C 2.2652 1.3868 1.3236
| 30> C 3.5994 0.9687 1.1841
| 31> C 4.5722 1.2020 2.2738
| 32> O 5.7753 0.8485 2.1421
| 33> O 4.1677 1.8161 3.4566
| 34> C 3.9916 0.3240 -0.0037
| 35> C 3.0629 0.0884 -1.0216
| 36> H -4.7543 1.2747 -2.9355
| 37> H -3.7320 1.6985 1.2290
| 38> H -1.7960 -2.3723 -0.5840
| 39> H -0.4468 -2.6714 -1.7081
| 40> H 1.7758 -2.9890 -0.8223
| 41> H 3.3227 -3.0520 1.0983
| 42> H 2.5987 -2.2101 3.3141
| 43> H 0.3097 -1.3099 3.6107
| 44> H -1.2551 -1.2419 1.7032
| 45> H 0.3146 1.4706 0.4336
| 46> H 1.9325 1.8869 2.2243
| 47> H 4.8253 1.9810 4.2094
| 48> H 5.0125 -0.0093 -0.1417
| 49> H 3.3822 -0.4250 -1.9195
| 50> *
| 51> 
| 52>                          ****END OF INPUT****
================================================================================

                       ****************************
                       * Single Point Calculation *
                       ****************************

---------------------------------
CARTESIAN COORDINATES (ANGSTROEM)
---------------------------------
  N     -2.374500   -0.594900   -4.654000
  C     -2.617900   -0.173800   -3.604100
  C     -2.920400    0.349100   -2.295100
  C     -4.095600    1.081900   -2.096400
  C     -4.425500    1.558800   -0.818000
  C     -5.669400    2.383400   -0.600900
  F     -6.134900    2.235500    0.694500
  F     -5.377600    3.716000   -0.825600
  F     -6.673300    1.988300   -1.468600
  C     -3.529300    1.321100    0.235800
  N     -2.391900    0.609700    0.021600
  C     -2.065100    0.120400   -1.203800
  N     -0.855600   -0.631000   -1.359900
  C     -0.785500   -2.013200   -0.879300
  C      0.140800   -2.122000    0.302500
  C      1.438600   -2.636900    0.144500
  C      2.320100   -2.669800    1.229200
  C      1.912200   -2.192700    2.478000
  C      0.621500   -1.685100    2.644800
  C     -0.262600   -1.649900    1.562500
  S      0.529100    0.119100   -2.099400
  O      1.099100   -0.817400   -3.128100
  O      0.123700    1.394800   -2.782800
  C      1.729800    0.490600   -0.866600
  C      1.339900    1.152900    0.302800
  C      2.265200    1.386800    1.323600
  C      3.599400    0.968700    1.184100
  C      4.572200    1.202000    2.273800
  O      5.775300    0.848500    2.142100
  O      4.167700    1.816100    3.456600
  C      3.991600    0.324000   -0.003700
  C      3.062900    0.088400   -1.021600
  H     -4.754300    1.274700   -2.935500
  H     -3.732000    1.698500    1.229000
  H     -1.796000   -2.372300   -0.584000
  H     -0.446800   -2.671400   -1.708100
  H      1.775800   -2.989000   -0.822300
  H      3.322700   -3.052000    1.098300
  H      2.598700   -2.210100    3.314100
  H      0.309700   -1.309900    3.610700
  H     -1.255100   -1.241900    1.703200
  H      0.314600    1.470600    0.433600
  H      1.932500    1.886900    2.224300
  H      4.825300    1.981000    4.209400
  H      5.012500   -0.009300   -0.141700
  H      3.382200   -0.425000   -1.919500

----------------------------
CARTESIAN COORDINATES (A.U.)
----------------------------
  NO LB      ZA    FRAG     MASS         X           Y           Z
   0 N     7.0000    0    14.007   -4.487155   -1.124198   -8.794785
   1 C     6.0000    0    12.011   -4.947114   -0.328434   -6.810762
   2 C     6.0000    0    12.011   -5.518756    0.659703   -4.337110
   3 C     6.0000    0    12.011   -7.739562    2.044495   -3.961622
   4 C     6.0000    0    12.011   -8.362983    2.945705   -1.545796
   5 C     6.0000    0    12.011  -10.713613    4.503973   -1.135536
   6 F     9.0000    0    18.998  -11.593281    4.224483    1.312415
   7 F     9.0000    0    18.998  -10.162191    7.022222   -1.560158
   8 F     9.0000    0    18.998  -12.610709    3.757342   -2.775252
   9 C     6.0000    0    12.011   -6.669410    2.496517    0.445597
  10 N     7.0000    0    14.007   -4.520036    1.152166    0.040818
  11 C     6.0000    0    12.011   -3.902473    0.227523   -2.274852
  12 N     7.0000    0    14.007   -1.616850   -1.192417   -2.569839
  13 C     6.0000    0    12.011   -1.484380   -3.804397   -1.661636
  14 C     6.0000    0    12.011    0.266073   -4.009999    0.571642
  15 C     6.0000    0    12.011    2.718560   -4.983019    0.273065
  16 C     6.0000    0    12.011    4.384354   -5.045191    2.322851
  17 C     6.0000    0    12.011    3.613534   -4.143602    4.682741
  18 C     6.0000    0    12.011    1.174465   -3.184378    4.997948
  19 C     6.0000    0    12.011   -0.496242   -3.117859    2.952697
  20 S    16.0000    0    32.060    0.999854    0.225066   -3.967291
  21 O     8.0000    0    15.999    2.076998   -1.544662   -5.911252
  22 O     8.0000    0    15.999    0.233759    2.635790   -5.258730
  23 C     6.0000    0    12.011    3.268848    0.927100   -1.637637
  24 C     6.0000    0    12.011    2.532044    2.178665    0.572209
  25 C     6.0000    0    12.011    4.280608    2.620672    2.501242
  26 C     6.0000    0    12.011    6.801880    1.830578    2.237625
  27 C     6.0000    0    12.011    8.640206    2.271451    4.296859
  28 O     8.0000    0    15.999   10.913735    1.603433    4.047982
  29 O     8.0000    0    15.999    7.875812    3.431932    6.532027
  30 C     6.0000    0    12.011    7.543031    0.612271   -0.006992
  31 C     6.0000    0    12.011    5.788042    0.167052   -1.930544
  32 H     1.0000    0     1.008   -8.984325    2.408834   -5.547291
  33 H     1.0000    0     1.008   -7.052458    3.209700    2.322473
  34 H     1.0000    0     1.008   -3.393948   -4.482997   -1.103600
  35 H     1.0000    0     1.008   -0.844330   -5.048214   -3.227841
  36 H     1.0000    0     1.008    3.355776   -5.648391   -1.553922
  37 H     1.0000    0     1.008    6.278993   -5.767444    2.075486
  38 H     1.0000    0     1.008    4.910831   -4.176484    6.262741
  39 H     1.0000    0     1.008    0.585248   -2.475352    6.823234
  40 H     1.0000    0     1.008   -2.371795   -2.346851    3.218582
  41 H     1.0000    0     1.008    0.594508    2.779031    0.819385
  42 H     1.0000    0     1.008    3.651896    3.565724    4.203318
  43 H     1.0000    0     1.008    9.118496    3.743547    7.954613
  44 H     1.0000    0     1.008    9.472252   -0.017574   -0.267774
  45 H     1.0000    0     1.008    6.391432   -0.803134   -3.627329

--------------------------------
INTERNAL COORDINATES (ANGSTROEM)
--------------------------------
 N      0   0   0     0.000000000000     0.00000000     0.00000000
 C      1   0   0     1.157090653320     0.00000000     0.00000000
 C      2   1   0     1.441669747203   179.91583789     0.00000000
 C      3   2   1     1.399132792125   119.68018422   218.42978201
 C      4   3   2     1.403771413016   120.30895531   177.85707143
 C      5   4   3     1.508106355666   120.70997669   178.22270188
 F      6   5   4     1.384422558325   110.70891009   152.64208760
 F      6   5   4     1.382555637217   109.24100844   272.71520620
 F      6   5   4     1.384493593340   110.59828592    32.73694653
 C      5   4   3     1.403627504005   118.43325103     2.11569984
 N     10   5   4     1.358547150452   120.32202871   358.01500858
 C     11  10   5     1.359344654604   122.13367510     0.94335383
 N     12  11  10     1.432431296782   119.34386686   180.48360455
 C     13  12  11     1.465048535032   119.97032868    75.47230915
 C     14  13  12     1.505496718695   110.80158408   248.67624790
 C     15  14  13     1.405123072901   120.43080739   257.59488098
 C     16  15  14     1.398105414481   120.24659697   176.56250590
 C     17  16  15     1.397679598477   120.07658675     0.14943349
 C     18  17  16     1.396920359219   120.02469831     0.15490193
 C     19  18  17     1.397943181964   120.06914083   359.81347509
 S     13  12  11     1.739800089091   119.48454809   256.42377575
 O     21  13  12     1.503381501815   108.90696992   226.96715731
 O     21  13  12     1.502928877226   110.15413243   346.03757066
 C     21  13  12     1.760536446655   109.64237717   105.81403924
 C     24  21  13     1.399342581357   119.67106190   311.22695000
 C     25  24  21     1.397469835095   120.34200517   176.32965502
 C     26  25  24     1.405118322420   120.42323962     0.46194406
 C     27  26  25     1.479261579302   120.28960103   180.80346741
 O     28  27  26     1.260855562703   120.42027688   181.22219983
 O     28  27  26     1.392750839167   120.27486898     1.17345794
 C     27  26  25     1.407241191125   118.99624877     0.64669219
 C     31  27  26     1.397895368044   120.44253589   359.18835579
 H      4   3   2     1.084041668941   119.57776970   358.22325272
 H     10   5   4     1.081648875560   120.70631098   178.09669379
 H     14  13  12     1.112324210831   110.37738274     9.64171620
 H     14  13  12     1.111240014578   109.19194950   126.36718361
 H     16  15  14     1.082765205388   120.47774068   358.11552196
 H     17  16  15     1.080934045166   119.94525705   180.99983395
 H     18  17  16     1.081964980949   119.98585248   180.58610406
 H     19  18  17     1.082107707208   119.92102075   180.41887434
 H     20  19  18     1.082273874766   119.26250660   180.80005435
 H     25  24  21     1.081333445335   120.28709542   357.58813771
 H     26  25  24     1.082612483763   118.78732514   180.99718391
 H     30  28  27     1.013083219681   120.95136741   180.00945356
 H     31  27  26     1.082760222764   120.75578312   179.95406725
 H     32  31  27     1.082477002065   119.20743429   181.09214991

---------------------------
INTERNAL COORDINATES (A.U.)
---------------------------
 N      0   0   0     0.000000000000     0.00000000     0.00000000
 C      1   0   0     2.186584446894     0.00000000     0.00000000
 C      2   1   0     2.724360997773   179.91583789     0.00000000
 C      3   2   1     2.643977802105   119.68018422   218.42978201
 C      4   3   2     2.652743525227   120.30895531   177.85707143
 C      5   4   3     2.849907993035   120.70997669   178.22270188
 F      6   5   4     2.616179488857   110.70891009   152.64208760
 F      6   5   4     2.612651519249   109.24100844   272.71520620
 F      6   5   4     2.616313725581   110.59828592    32.73694653
 C      5   4   3     2.652471576609   118.43325103     2.11569984
 N     10   5   4     2.567282054373   120.32202871   358.01500858
 C     11  10   5     2.568789118811   122.13367510     0.94335383
 N     12  11  10     2.706902856575   119.34386686   180.48360455
 C     13  12  11     2.768540504113   119.97032868    75.47230915
 C     14  13  12     2.844976493850   110.80158408   248.67624790
 C     15  14  13     2.655297792238   120.43080739   257.59488098
 C     16  15  14     2.642036339721   120.24659697   176.56250590
 C     17  16  15     2.641231664091   120.07658675     0.14943349
 C     18  17  16     2.639796909822   120.02469831     0.15490193
 C     19  18  17     2.641729764695   120.06914083   359.81347509
 S     13  12  11     3.287745696153   119.48454809   256.42377575
 O     21  13  12     2.840979313234   108.90696992   226.96715731
 O     21  13  12     2.840123976719   110.15413243   346.03757066
 C     21  13  12     3.326931732964   109.64237717   105.81403924
 C     24  21  13     2.644374246300   119.67106190   311.22695000
 C     25  24  21     2.640835268745   120.34200517   176.32965502
 C     26  25  24     2.655288815128   120.42323962     0.46194406
 C     27  26  25     2.795399265313   120.28960103   180.80346741
 O     28  27  26     2.382671707941   120.42027688   181.22219983
 O     28  27  26     2.631917658814   120.27486898     1.17345794
 C     27  26  25     2.659300455600   118.99624877     0.64669219
 C     31  27  26     2.641639409481   120.44253589   359.18835579
 H      4   3   2     2.048541872057   119.57776970   358.22325272
 H     10   5   4     2.044020147872   120.70631098   178.09669379
 H     14  13  12     2.101988130600   110.37738274     9.64171620
 H     14  13  12     2.099939296608   109.19194950   126.36718361
 H     16  15  14     2.046129705523   120.47774068   358.11552196
 H     17  16  15     2.042669314196   119.94525705   180.99983395
 H     18  17  16     2.044617500487   119.98585248   180.58610406
 H     19  18  17     2.044887214029   119.92102075   180.41887434
 H     20  19  18     2.045201225205   119.26250660   180.80005435
 H     25  24  21     2.043424071133   120.28709542   357.58813771
 H     26  25  24     2.045841103477   118.78732514   180.99718391
 H     30  28  27     1.914449836069   120.95136741   180.00945356
 H     31  27  26     2.046120289728   120.75578312   179.95406725
 H     32  31  27     2.045585080171   119.20743429   181.09214991

---------------------
BASIS SET INFORMATION
---------------------
There are 6 groups of distinct atoms

 Group   1 Type N   : 10s4p1d contracted to 3s2p1d pattern {631/31/1}
 Group   2 Type C   : 10s4p1d contracted to 3s2p1d pattern {631/31/1}
 Group   3 Type F   : 10s4p1d contracted to 3s2p1d pattern {631/31/1}
 Group   4 Type S   : 16s10p1d contracted to 4s3p1d pattern {6631/631/1}
 Group   5 Type O   : 10s4p1d contracted to 3s2p1d pattern {631/31/1}
 Group   6 Type H   : 4s contracted to 2s pattern {31}

Atom   0N    basis set group =>   1
Atom   1C    basis set group =>   2
Atom   2C    basis set group =>   2
Atom   3C    basis set group =>   2
Atom   4C    basis set group =>   2
Atom   5C    basis set group =>   2
Atom   6F    basis set group =>   3
Atom   7F    basis set group =>   3
Atom   8F    basis set group =>   3
Atom   9C    basis set group =>   2
Atom  10N    basis set group =>   1
Atom  11C    basis set group =>   2
Atom  12N    basis set group =>   1
Atom  13C    basis set group =>   2
Atom  14C    basis set group =>   2
Atom  15C    basis set group =>   2
Atom  16C    basis set group =>   2
Atom  17C    basis set group =>   2
Atom  18C    basis set group =>   2
Atom  19C    basis set group =>   2
Atom  20S    basis set group =>   4
Atom  21O    basis set group =>   5
Atom  22O    basis set group =>   5
Atom  23C    basis set group =>   2
Atom  24C    basis set group =>   2
Atom  25C    basis set group =>   2
Atom  26C    basis set group =>   2
Atom  27C    basis set group =>   2
Atom  28O    basis set group =>   5
Atom  29O    basis set group =>   5
Atom  30C    basis set group =>   2
Atom  31C    basis set group =>   2
Atom  32H    basis set group =>   6
Atom  33H    basis set group =>   6
Atom  34H    basis set group =>   6
Atom  35H    basis set group =>   6
Atom  36H    basis set group =>   6
Atom  37H    basis set group =>   6
Atom  38H    basis set group =>   6
Atom  39H    basis set group =>   6
Atom  40H    basis set group =>   6
Atom  41H    basis set group =>   6
Atom  42H    basis set group =>   6
Atom  43H    basis set group =>   6
Atom  44H    basis set group =>   6
Atom  45H    basis set group =>   6
---------------------------------
AUXILIARY/J BASIS SET INFORMATION
---------------------------------
There are 6 groups of distinct atoms

 Group   1 Type N   : 12s5p4d2f1g contracted to 6s4p3d1f1g pattern {711111/2111/211/2/1}
 Group   2 Type C   : 12s5p4d2f1g contracted to 6s4p3d1f1g pattern {711111/2111/211/2/1}
 Group   3 Type F   : 12s5p4d2f1g contracted to 6s4p3d1f1g pattern {711111/2111/211/2/1}
 Group   4 Type S   : 14s5p5d2f1g contracted to 8s4p3d1f1g pattern {71111111/2111/311/2/1}
 Group   5 Type O   : 12s5p4d2f1g contracted to 6s4p3d1f1g pattern {711111/2111/211/2/1}
 Group   6 Type H   : 5s2p1d contracted to 3s1p1d pattern {311/2/1}

Atom   0N    basis set group =>   1
Atom   1C    basis set group =>   2
Atom   2C    basis set group =>   2
Atom   3C    basis set group =>   2
Atom   4C    basis set group =>   2
Atom   5C    basis set group =>   2
Atom   6F    basis set group =>   3
Atom   7F    basis set group =>   3
Atom   8F    basis set group =>   3
Atom   9C    basis set group =>   2
Atom  10N    basis set group =>   1
Atom  11C    basis set group =>   2
Atom  12N    basis set group =>   1
Atom  13C    basis set group =>   2
Atom  14C    basis set group =>   2
Atom  15C    basis set group =>   2
Atom  16C    basis set group =>   2
Atom  17C    basis set group =>   2
Atom  18C    basis set group =>   2
Atom  19C    basis set group =>   2
Atom  20S    basis set group =>   4
Atom  21O    basis set group =>   5
Atom  22O    basis set group =>   5
Atom  23C    basis set group =>   2
Atom  24C    basis set group =>   2
Atom  25C    basis set group =>   2
Atom  26C    basis set group =>   2
Atom  27C    basis set group =>   2
Atom  28O    basis set group =>   5
Atom  29O    basis set group =>   5
Atom  30C    basis set group =>   2
Atom  31C    basis set group =>   2
Atom  32H    basis set group =>   6
Atom  33H    basis set group =>   6
Atom  34H    basis set group =>   6
Atom  35H    basis set group =>   6
Atom  36H    basis set group =>   6
Atom  37H    basis set group =>   6
Atom  38H    basis set group =>   6
Atom  39H    basis set group =>   6
Atom  40H    basis set group =>   6
Atom  41H    basis set group =>   6
Atom  42H    basis set group =>   6
Atom  43H    basis set group =>   6
Atom  44H    basis set group =>   6
Atom  45H    basis set group =>   6
------------------------------------------------------------------------------
                             ORCA STARTUP CALCULATIONS
                           -- RI-GTO INTEGRALS CHOSEN --
------------------------------------------------------------------------------
------------------------------------------------------------------------------
                   ___                                                        
                  /   \      - P O W E R E D   B Y -                         
                 /     \                                                     
                 |  |  |   _    _      __       _____    __    __             
                 |  |  |  | |  | |    /  \     |  _  \  |  |  /  |          
                  \  \/   | |  | |   /    \    | | | |  |  | /  /          
                 / \  \   | |__| |  /  /\  \   | |_| |  |  |/  /          
                |  |  |   |  __  | /  /__\  \  |    /   |      \           
                |  |  |   | |  | | |   __   |  |    \   |  |\   \          
                \     /   | |  | | |  |  |  |  | |\  \  |  | \   \       
                 \___/    |_|  |_| |__|  |__|  |_| \__\ |__|  \__/        
                                                                              
                      - O R C A' S   B I G   F R I E N D -                    
                                      &                                       
                       - I N T E G R A L  F E E D E R -                       
                                                                              
 v1 FN, 2020, v2 2021, v3 2022-2024                                           
------------------------------------------------------------------------------


----------------------
SHARK INTEGRAL PACKAGE
----------------------

Number of atoms                             ...     46
Number of basis functions                   ...    480
Number of shells                            ...    222
Maximum angular momentum                    ...      2
Integral batch strategy                     ... SHARK/LIBINT Hybrid
RI-J (if used) integral strategy            ... SPLIT-RIJ (Revised 2003 algorithm where possible)
Printlevel                                  ...      1
Contraction scheme used                     ... SEGMENTED contraction
Prescreening option                         ... SCHWARTZ
   Thresh                                   ... 1.000e-10
   Tcut                                     ... 1.000e-11
   Tpresel                                  ... 1.000e-11 
Coulomb Range Separation                    ... NOT USED
Exchange Range Separation                   ... NOT USED
Multipole approximations                    ... NOT USED
Finite Nucleus Model                        ... NOT USED
CABS basis                                  ... NOT available
Auxiliary Coulomb fitting basis             ... AVAILABLE
   # of basis functions in Aux-J            ...   1724
   # of shells in Aux-J                     ...    552
   Maximum angular momentum in Aux-J        ...      4
Auxiliary J/K fitting basis                 ... NOT available
Auxiliary Correlation fitting basis         ... NOT available
Auxiliary 'external' fitting basis          ... NOT available

Checking pre-screening integrals            ... done (  0.0 sec) Dimension = 222
Check shell pair data                       ... done (  0.0 sec)
Shell pair information
Shell pair cut-off parameter TPreSel        ...   1.0e-11
Total number of shell pairs                 ...     24753
Shell pairs after pre-screening             ...     15225
Total number of primitive shell pairs       ...    151170
Primitive shell pairs kept                  ...     47479
          la=0 lb=0:   4574 shell pairs
          la=1 lb=0:   5391 shell pairs
          la=1 lb=1:   1588 shell pairs
          la=2 lb=0:   2093 shell pairs
          la=2 lb=1:   1321 shell pairs
          la=2 lb=2:    258 shell pairs

Calculating one electron integrals          ... done (  0.2 sec)
Calculating RI/J V-Matrix + Cholesky decomp.... done (  0.5 sec)
Calculating Nuclear repulsion               ... done (  0.0 sec) ENN=   3447.676369362480 Eh

Diagonalization of the overlap matrix:
Smallest eigenvalue                        ... 4.574e-04
Time for diagonalization                   ...    0.041 sec
Threshold for overlap eigenvalues          ... 1.000e-07
Number of eigenvalues below threshold      ... 0
Time for construction of square roots      ...    0.033 sec
Total time needed                          ...    0.084 sec

-------------------
DFT GRID GENERATION
-------------------

General Integration Accuracy     IntAcc      ... 4.388
Radial Grid Type                 RadialGrid  ... OptM3 with GC (2021)
Angular Grid (max. ang.)         AngularGrid ... 4 (Lebedev-302)
Angular grid pruning method      GridPruning ... 4 (adaptive)
Weight generation scheme         WeightScheme... mBecke (2022)
Basis function cutoff            BFCut       ... 1.0000e-10
Integration weight cutoff        WCut        ... 1.0000e-14
Partially contracted basis set               ... off
Rotationally invariant grid construction     ... off
Angular grids for H and He will be reduced by one unit

Total number of grid points                  ...   236981
Total number of batches                      ...     3728
Average number of points per batch           ...       63
Average number of grid points per atom       ...     5152

--------------------
COSX GRID GENERATION
--------------------

GRIDX 1
-------
General Integration Accuracy     IntAcc      ... 3.816
Radial Grid Type                 RadialGrid  ... OptM3 with GC (2021)
Angular Grid (max. ang.)         AngularGrid ... 1 (Lebedev-50)
Angular grid pruning method      GridPruning ... 4 (adaptive)
Weight generation scheme         WeightScheme... mBecke (2022)
Basis function cutoff            BFCut       ... 1.0000e-10
Integration weight cutoff        WCut        ... 1.0000e-14
Partially contracted basis set               ... on
Rotationally invariant grid construction     ... off
Angular grids for H and He will be reduced by one unit

Total number of grid points                  ...    30925
Total number of batches                      ...      265
Average number of points per batch           ...      116
Average number of grid points per atom       ...      672
UseSFitting                                  ... on

GRIDX 2
-------
General Integration Accuracy     IntAcc      ... 4.020
Radial Grid Type                 RadialGrid  ... OptM3 with GC (2021)
Angular Grid (max. ang.)         AngularGrid ... 2 (Lebedev-110)
Angular grid pruning method      GridPruning ... 4 (adaptive)
Weight generation scheme         WeightScheme... mBecke (2022)
Basis function cutoff            BFCut       ... 1.0000e-10
Integration weight cutoff        WCut        ... 1.0000e-14
Partially contracted basis set               ... on
Rotationally invariant grid construction     ... off
Angular grids for H and He will be reduced by one unit

Total number of grid points                  ...    66483
Total number of batches                      ...      546
Average number of points per batch           ...      121
Average number of grid points per atom       ...     1445
UseSFitting                                  ... on

GRIDX 3
-------
General Integration Accuracy     IntAcc      ... 4.338
Radial Grid Type                 RadialGrid  ... OptM3 with GC (2021)
Angular Grid (max. ang.)         AngularGrid ... 3 (Lebedev-194)
Angular grid pruning method      GridPruning ... 4 (adaptive)
Weight generation scheme         WeightScheme... mBecke (2022)
Basis function cutoff            BFCut       ... 1.0000e-10
Integration weight cutoff        WCut        ... 1.0000e-14
Partially contracted basis set               ... on
Rotationally invariant grid construction     ... off
Angular grids for H and He will be reduced by one unit

Total number of grid points                  ...   146231
Total number of batches                      ...     1163
Average number of points per batch           ...      125
Average number of grid points per atom       ...     3179
UseSFitting                                  ... on
Initializing property integral containers    ... done (  0.0 sec)

SHARK setup successfully completed in  12.6 seconds

Maximum memory used throughout the entire STARTUP-calculation: 104.9 MB
-------------------------------------------------------------------------------
                                 ORCA GUESS
                   Start orbitals & Density for SCF / CASSCF
-------------------------------------------------------------------------------

------------
SCF SETTINGS
------------
Hamiltonian:
 Density Functional     Method          .... DFT(GTOs)
 Exchange Functional    Exchange        .... B88
   X-Alpha parameter    XAlpha          ....  0.666667
   Becke's b parameter  XBeta           ....  0.004200
 Correlation Functional Correlation     .... LYP
 LDA part of GGA corr.  LDAOpt          .... VWN-5
 Gradients option       PostSCFGGA      .... off
 Hybrid DFT is turned on
   Fraction HF Exchange ScalHFX         ....  0.200000
   Scaling of DF-GGA-X  ScalDFX         ....  0.720000
   Scaling of DF-GGA-C  ScalDFC         ....  0.810000
   Scaling of DF-LDA-C  ScalLDAC        ....  1.000000
   Perturbative correction              ....  0.000000
   NL short-range parameter             ....  4.800000
 RI-approximation to the Coulomb term is turned on
   Number of AuxJ basis functions       .... 1724
   RIJ-COSX (HFX calculated with COS-X)).... on


General Settings:
 Integral files         IntName         .... /home/nmrbox/aojoawo/Documents/ERDOS/inputs/CHEMBL3353585
 Hartree-Fock type      HFTyp           .... RHF
 Total Charge           Charge          ....    0
 Multiplicity           Mult            ....    1
 Number of Electrons    NEL             ....  236
 Basis Dimension        Dim             ....  480
 Nuclear Repulsion      ENuc            ....   3447.6763693625 Eh

Convergence Acceleration:
 AO-DIIS                CNVDIIS         .... on
   Start iteration      DIISMaxIt       ....    12
   Startup error        DIISStart       ....  0.200000
   # of expansion vecs  DIISMaxEq       ....     5
   Bias factor          DIISBfac        ....   1.050
   Max. coefficient     DIISMaxC        ....  10.000
 MO-DIIS                CNVKDIIS        .... off
 Trust-Rad. Augm. Hess. CNVTRAH         .... auto
   Auto Start mean grad. ratio tolernc. ....  1.125000
   Auto Start start iteration           ....    50
   Auto Start num. interpolation iter.  ....    10
   Max. Number of Micro iterations      ....    24
   Max. Number of Macro iterations      .... Maxiter - #DIIS iter
   Number of Davidson start vectors     ....     2
   Converg. threshold    (grad. norm)   ....   5.000e-05
   Grad. Scal. Fac. for Micro threshold ....   0.100
   Minimum threshold for Micro iter.    ....   1.000e-02
   NR start threshold (gradient norm)   ....   1.000e-04
   Initial trust radius                 ....   0.400
   Minimum AH scaling param. (alpha)    ....   1.000
   Maximum AH scaling param. (alpha)    .... 1000.000
   Quad. conv. algorithm                .... NR
   White noise on init. David. guess    .... on
   Maximum white noise                  ....   0.010
   Pseudo random numbers                .... off
   Inactive MOs                         .... canonical
   Orbital update algorithm             .... Taylor
   Preconditioner                       .... Diag
   Full preconditioner red. dimension   ....   250
 SOSCF                  CNVSOSCF        .... on
   Start iteration      SOSCFMaxIt      ....   150
   Startup grad/error   SOSCFStart      ....  0.003300
   Hessian update       SOSCFHessUp     .... L-BFGS
 Level Shifting         CNVShift        .... on
   Level shift para.    LevelShift      ....    0.2500
   Turn off err/grad.   ShiftErr        ....    0.0010
 Zerner damping         CNVZerner       .... off
 Static damping         CNVDamp         .... on
   Fraction old density DampFac         ....    0.7000
   Max. Damping (<1)    DampMax         ....    0.9800
   Min. Damping (>=0)   DampMin         ....    0.0000
   Turn off err/grad.   DampErr         ....    0.1000

SCF Procedure:
 Maximum # iterations   MaxIter         ....   125
 SCF integral mode      SCFMode         .... Direct
   Integral package                     .... SHARK and LIBINT hybrid scheme
 Reset frequency        DirectResetFreq ....    20
 Integral Threshold     Thresh          ....  1.000e-10 Eh
 Primitive CutOff       TCut            ....  1.000e-11 Eh

Convergence Tolerance:
 Convergence Check Mode ConvCheckMode   .... Total+1el-Energy
 Convergence forced     ConvForced      .... 0
 Energy Change          TolE            ....  1.000e-06 Eh
 1-El. energy change                    ....  1.000e-03 Eh
 Orbital Gradient       TolG            ....  5.000e-05
 Orbital Rotation angle TolX            ....  5.000e-05
 DIIS Error             TolErr          ....  1.000e-06

------------------------------
INITIAL GUESS: MODEL POTENTIAL
------------------------------
Loading Hartree-Fock densities                     ... done
Calculating cut-offs                               ... done
Initializing the effective Hamiltonian             ... done
Setting up the integral package (SHARK)            ... done
Starting the Coulomb interaction                   ... done (   3.5 sec)
Making the grid                                    ... done (   1.5 sec)
Mapping shells                                     ... done
Starting the XC term evaluation                    ... done (   1.3 sec)
  promolecular density results
     # of electrons  =    235.992032006
     EX              =   -219.737907864
     EC              =     -8.378100222
     EX+EC           =   -228.116008085
Transforming the Hamiltonian                       ... done (   0.0 sec)
Diagonalizing the Hamiltonian                      ... done (   0.0 sec)
Back transforming the eigenvectors                 ... done (   0.0 sec)
Now organizing SCF variables                       ... done
                      ------------------
                      INITIAL GUESS DONE (   6.3 sec)
                      ------------------
             **** ENERGY FILE WAS UPDATED (/home/nmrbox/aojoawo/Documents/ERDOS/inputs/CHEMBL3353585.en.tmp) ****
Finished Guess after   6.6 sec
Maximum memory used throughout the entire GUESS-calculation: 58.9 MB

-------------------------------------------------------------------------------------------
                                      ORCA LEAN-SCF
                              memory conserving SCF solver
-------------------------------------------------------------------------------------------

----------------------------------------D-I-I-S--------------------------------------------
Iteration    Energy (Eh)           Delta-E    RMSDP     MaxDP     DIISErr   Damp  Time(sec)
-------------------------------------------------------------------------------------------
               ***  Starting incremental Fock matrix formation  ***
    1    -1969.5512393711410368     0.00e+00  2.78e-03  1.92e-01  2.95e-01  0.700  68.2
    2    -1970.0133359612113964    -4.62e-01  1.60e-03  7.92e-02  9.80e-02  0.700  30.7
                               ***Turning on AO-DIIS***
    3    -1970.1586826131865564    -1.45e-01  5.92e-04  1.71e-02  3.64e-02  0.700  29.7
    4    -1970.2601638475430263    -1.01e-01  9.85e-04  3.44e-02  2.26e-02  0.000  27.2
    5    -1970.4917557324984045    -2.32e-01  2.47e-04  8.80e-03  6.93e-03  0.000  28.7
    6    -1970.4933319311608102    -1.58e-03  8.49e-05  3.73e-03  3.39e-03  0.000  24.6
                              *** Initializing SOSCF ***
---------------------------------------S-O-S-C-F--------------------------------------
Iteration    Energy (Eh)           Delta-E    RMSDP     MaxDP     MaxGrad    Time(sec)
--------------------------------------------------------------------------------------
    7    -1970.4934190368144300    -8.71e-05  2.92e-05  1.21e-03  2.42e-03    21.6
               *** Restarting incremental Fock matrix formation ***
    8    -1970.4934240270290502    -4.99e-06  2.23e-05  9.58e-04  1.85e-04    68.1
    9    -1970.4934227054177427     1.32e-06  1.27e-05  6.41e-04  4.92e-04    34.3
   10    -1970.4934270623430166    -4.36e-06  8.11e-06  3.00e-04  1.36e-04    30.1
   11    -1970.4934266504183142     4.12e-07  4.11e-06  1.85e-04  1.34e-04    28.2
                 **** Energy Check signals convergence ****

               *****************************************************
               *                     SUCCESS                       *
               *           SCF CONVERGED AFTER  11 CYCLES          *
               *****************************************************

Recomputing exchange energy using gridx3       ... done (  120.391 sec)
Old exchange energy                            :    -44.332795470 Eh
New exchange energy                            :    -44.332869816 Eh
Exchange energy change after final integration :     -0.000074346 Eh
Total energy after final integration           :  -1970.493500997 Eh
             **** ENERGY FILE WAS UPDATED (/home/nmrbox/aojoawo/Documents/ERDOS/inputs/CHEMBL3353585.en.tmp) ****

----------------
TOTAL SCF ENERGY
----------------

Total Energy       :      -1970.49350099688513 Eh          -53619.85414 eV

Components:
Nuclear Repulsion  :       3447.67636936248027 Eh           93816.04353 eV
Electronic Energy  :      -5418.16979601289859 Eh         -147435.89565 eV
One Electron Energy:      -9560.93930186951548 Eh         -260166.38501 eV
Two Electron Energy:       4142.76950585661689 Eh          112730.48936 eV

Virial components:
Potential Energy   :      -3929.98900076589780 Eh         -106940.43746 eV
Kinetic Energy     :       1959.49549976901244 Eh           53320.58331 eV
Virial Ratio       :          2.00561266980668

DFT components:
N(Alpha)           :      117.999903047013 electrons
N(Beta)            :      117.999903047013 electrons
N(Total)           :      235.999806094025 electrons
E(X)               :     -176.311380535200 Eh       
E(C)               :       -9.836737740589 Eh       
E(XC)              :     -186.148118275788 Eh       

---------------
SCF CONVERGENCE
---------------

  Last Energy change         ...   -4.1192e-07  Tolerance :   1.0000e-06
  Last MAX-Density change    ...    1.8549e-04  Tolerance :   1.0000e-05
  Last RMS-Density change    ...    4.1060e-06  Tolerance :   1.0000e-06
  Last DIIS Error            ...    2.4238e-03  Tolerance :   1.0000e-06
  Last Orbital Gradient      ...    1.3363e-04  Tolerance :   5.0000e-05
  Last Orbital Rotation      ...    1.1183e-04  Tolerance :   5.0000e-05


----------------
ORBITAL ENERGIES
----------------

  NO   OCC          E(Eh)            E(eV) 
   0   2.0000     -89.110197     -2424.8117 
   1   2.0000     -24.745055      -673.3472 
   2   2.0000     -24.743623      -673.3082 
   3   2.0000     -24.739665      -673.2005 
   4   2.0000     -19.197688      -522.3956 
   5   2.0000     -19.139344      -520.8080 
   6   2.0000     -19.138181      -520.7764 
   7   2.0000     -19.136973      -520.7435 
   8   2.0000     -14.390096      -391.5744 
   9   2.0000     -14.378533      -391.2598 
  10   2.0000     -14.347187      -390.4068 
  11   2.0000     -10.463419      -284.7241 
  12   2.0000     -10.337119      -281.2873 
  13   2.0000     -10.313401      -280.6419 
  14   2.0000     -10.274089      -279.5722 
  15   2.0000     -10.268936      -279.4319 
  16   2.0000     -10.255955      -279.0787 
  17   2.0000     -10.254897      -279.0499 
  18   2.0000     -10.245500      -278.7942 
  19   2.0000     -10.244721      -278.7730 
  20   2.0000     -10.235752      -278.5290 
  21   2.0000     -10.231915      -278.4246 
  22   2.0000     -10.220931      -278.1257 
  23   2.0000     -10.219935      -278.0986 
  24   2.0000     -10.217568      -278.0342 
  25   2.0000     -10.216650      -278.0092 
  26   2.0000     -10.200075      -277.5581 
  27   2.0000     -10.191561      -277.3265 
  28   2.0000     -10.191438      -277.3231 
  29   2.0000     -10.190939      -277.3095 
  30   2.0000     -10.190484      -277.2972 
  31   2.0000     -10.189954      -277.2828 
  32   2.0000      -8.145720      -221.6563 
  33   2.0000      -6.111236      -166.2952 
  34   2.0000      -6.108577      -166.2228 
  35   2.0000      -6.108079      -166.2093 
  36   2.0000      -1.303669       -35.4746 
  37   2.0000      -1.229373       -33.4529 
  38   2.0000      -1.227150       -33.3925 
  39   2.0000      -1.095361       -29.8063 
  40   2.0000      -1.082533       -29.4572 
  41   2.0000      -1.000288       -27.2192 
  42   2.0000      -0.996687       -27.1212 
  43   2.0000      -0.973537       -26.4913 
  44   2.0000      -0.942803       -25.6550 
  45   2.0000      -0.916457       -24.9381 
  46   2.0000      -0.891199       -24.2508 
  47   2.0000      -0.862450       -23.4685 
  48   2.0000      -0.860695       -23.4207 
  49   2.0000      -0.830365       -22.5954 
  50   2.0000      -0.809131       -22.0176 
  51   2.0000      -0.779377       -21.2079 
  52   2.0000      -0.776538       -21.1307 
  53   2.0000      -0.751389       -20.4463 
  54   2.0000      -0.737248       -20.0615 
  55   2.0000      -0.720164       -19.5967 
  56   2.0000      -0.701318       -19.0838 
  57   2.0000      -0.694049       -18.8860 
  58   2.0000      -0.672156       -18.2903 
  59   2.0000      -0.643310       -17.5053 
  60   2.0000      -0.632300       -17.2058 
  61   2.0000      -0.615347       -16.7444 
  62   2.0000      -0.610731       -16.6188 
  63   2.0000      -0.607854       -16.5405 
  64   2.0000      -0.595752       -16.2112 
  65   2.0000      -0.594041       -16.1647 
  66   2.0000      -0.592895       -16.1335 
  67   2.0000      -0.571703       -15.5568 
  68   2.0000      -0.547089       -14.8870 
  69   2.0000      -0.546230       -14.8637 
  70   2.0000      -0.537460       -14.6250 
  71   2.0000      -0.532428       -14.4881 
  72   2.0000      -0.515262       -14.0210 
  73   2.0000      -0.497843       -13.5470 
  74   2.0000      -0.488240       -13.2857 
  75   2.0000      -0.480184       -13.0665 
  76   2.0000      -0.475187       -12.9305 
  77   2.0000      -0.472344       -12.8531 
  78   2.0000      -0.470703       -12.8085 
  79   2.0000      -0.469584       -12.7780 
  80   2.0000      -0.463033       -12.5998 
  81   2.0000      -0.462425       -12.5832 
  82   2.0000      -0.451909       -12.2971 
  83   2.0000      -0.450516       -12.2592 
  84   2.0000      -0.448220       -12.1967 
  85   2.0000      -0.444057       -12.0834 
  86   2.0000      -0.438675       -11.9370 
  87   2.0000      -0.436530       -11.8786 
  88   2.0000      -0.434684       -11.8283 
  89   2.0000      -0.428819       -11.6687 
  90   2.0000      -0.427423       -11.6308 
  91   2.0000      -0.420977       -11.4554 
  92   2.0000      -0.418247       -11.3811 
  93   2.0000      -0.409848       -11.1525 
  94   2.0000      -0.405626       -11.0377 
  95   2.0000      -0.397818       -10.8252 
  96   2.0000      -0.386459       -10.5161 
  97   2.0000      -0.376352       -10.2411 
  98   2.0000      -0.369968       -10.0673 
  99   2.0000      -0.368089       -10.0162 
 100   2.0000      -0.364106        -9.9078 
 101   2.0000      -0.359830        -9.7915 
 102   2.0000      -0.350127        -9.5274 
 103   2.0000      -0.347395        -9.4531 
 104   2.0000      -0.338361        -9.2073 
 105   2.0000      -0.325596        -8.8599 
 106   2.0000      -0.324101        -8.8192 
 107   2.0000      -0.313432        -8.5289 
 108   2.0000      -0.309272        -8.4157 
 109   2.0000      -0.300724        -8.1831 
 110   2.0000      -0.297213        -8.0876 
 111   2.0000      -0.290385        -7.9018 
 112   2.0000      -0.285789        -7.7767 
 113   2.0000      -0.280486        -7.6324 
 114   2.0000      -0.276019        -7.5109 
 115   2.0000      -0.267263        -7.2726 
 116   2.0000      -0.252561        -6.8725 
 117   2.0000      -0.249592        -6.7917 
 118   0.0000      -0.091562        -2.4915 
 119   0.0000      -0.083991        -2.2855 
 120   0.0000      -0.077576        -2.1109 
 121   0.0000      -0.034234        -0.9315 
 122   0.0000      -0.016707        -0.4546 
 123   0.0000      -0.005397        -0.1469 
 124   0.0000       0.005362         0.1459 
 125   0.0000       0.020899         0.5687 
 126   0.0000       0.025001         0.6803 
 127   0.0000       0.035641         0.9698 
 128   0.0000       0.038829         1.0566 
*Only the first 10 virtual orbitals were printed.

                    ********************************
                    * MULLIKEN POPULATION ANALYSIS *
                    ********************************

-----------------------
MULLIKEN ATOMIC CHARGES
-----------------------
   0 N :   -0.280734
   1 C :    0.109523
   2 C :    0.153224
   3 C :   -0.137931
   4 C :   -0.042341
   5 C :    0.910168
   6 F :   -0.300098
   7 F :   -0.287455
   8 F :   -0.298394
   9 C :    0.004951
  10 N :   -0.386295
  11 C :    0.385313
  12 N :   -0.624806
  13 C :   -0.247530
  14 C :    0.137888
  15 C :   -0.177882
  16 C :   -0.122982
  17 C :   -0.125179
  18 C :   -0.129359
  19 C :   -0.159714
  20 S :    1.211481
  21 O :   -0.531062
  22 O :   -0.533001
  23 C :   -0.111047
  24 C :   -0.133621
  25 C :   -0.141569
  26 C :    0.087093
  27 C :    0.525596
  28 O :   -0.445191
  29 O :   -0.624818
  30 C :   -0.138924
  31 C :   -0.142359
  32 H :    0.198344
  33 H :    0.187163
  34 H :    0.179025
  35 H :    0.198004
  36 H :    0.147983
  37 H :    0.136136
  38 H :    0.132801
  39 H :    0.129993
  40 H :    0.138608
  41 H :    0.177673
  42 H :    0.169338
  43 H :    0.433398
  44 H :    0.179033
  45 H :    0.189557
Sum of atomic charges:    0.0000000

--------------------------------
MULLIKEN REDUCED ORBITAL CHARGES
--------------------------------
  0 N s       :     3.750787  s :     3.750787
      pz      :     1.342494  p :     3.488685
      px      :     1.052934
      py      :     1.093257
      dz2     :     0.013280  d :     0.041262
      dxz     :     0.011586
      dyz     :     0.011499
      dx2y2   :     0.002456
      dxy     :     0.002441

  1 C s       :     3.072673  s :     3.072673
      pz      :     0.909628  p :     2.777077
      px      :     0.923248
      py      :     0.944201
      dz2     :     0.012964  d :     0.040727
      dxz     :     0.011302
      dyz     :     0.011607
      dx2y2   :     0.002550
      dxy     :     0.002304

  2 C s       :     3.110960  s :     3.110960
      pz      :     0.828050  p :     2.694534
      px      :     0.895879
      py      :     0.970606
      dz2     :     0.010468  d :     0.041282
      dxz     :     0.011323
      dyz     :     0.007859
      dx2y2   :     0.005768
      dxy     :     0.005864

  3 C s       :     3.212523  s :     3.212523
      pz      :     0.985711  p :     2.889425
      px      :     0.970758
      py      :     0.932956
      dz2     :     0.008530  d :     0.035984
      dxz     :     0.011371
      dyz     :     0.005657
      dx2y2   :     0.005526
      dxy     :     0.004899

  4 C s       :     3.182865  s :     3.182865
      pz      :     0.892823  p :     2.822621
      px      :     0.953314
      py      :     0.976485
      dz2     :     0.010162  d :     0.036855
      dxz     :     0.009605
      dyz     :     0.006301
      dx2y2   :     0.004462
      dxy     :     0.006325

  5 C s       :     2.798527  s :     2.798527
      pz      :     0.620561  p :     2.152657
      px      :     0.819625
      py      :     0.712470
      dz2     :     0.032861  d :     0.138648
      dxz     :     0.029271
      dyz     :     0.023059
      dx2y2   :     0.027032
      dxy     :     0.026426

  6 F s       :     3.981942  s :     3.981942
      pz      :     1.537364  p :     5.301652
      px      :     1.861083
      py      :     1.903205
      dz2     :     0.006866  d :     0.016503
      dxz     :     0.004825
      dyz     :     0.003305
      dx2y2   :     0.000762
      dxy     :     0.000746

  7 F s       :     3.978027  s :     3.978027
      pz      :     1.886843  p :     5.292816
      px      :     1.897418
      py      :     1.508554
      dz2     :     0.002281  d :     0.016613
      dxz     :     0.000427
      dyz     :     0.003764
      dx2y2   :     0.005593
      dxy     :     0.004548

  8 F s       :     3.981924  s :     3.981924
      pz      :     1.738298  p :     5.299927
      px      :     1.687888
      py      :     1.873741
      dz2     :     0.002773  d :     0.016542
      dxz     :     0.005728
      dyz     :     0.002070
      dx2y2   :     0.002998
      dxy     :     0.002974

  9 C s       :     3.156714  s :     3.156714
      pz      :     0.991460  p :     2.785083
      px      :     0.884225
      py      :     0.909398
      dz2     :     0.012240  d :     0.053252
      dxz     :     0.014467
      dyz     :     0.008797
      dx2y2   :     0.008780
      dxy     :     0.008967

 10 N s       :     3.705745  s :     3.705745
      pz      :     1.318763  p :     3.645644
      px      :     1.234759
      py      :     1.092122
      dz2     :     0.010511  d :     0.034907
      dxz     :     0.005463
      dyz     :     0.006416
      dx2y2   :     0.006389
      dxy     :     0.006127

 11 C s       :     3.047144  s :     3.047144
      pz      :     0.855310  p :     2.491696
      px      :     0.765190
      py      :     0.871196
      dz2     :     0.019044  d :     0.075847
      dxz     :     0.022689
      dyz     :     0.014236
      dx2y2   :     0.009266
      dxy     :     0.010612

 12 N s       :     3.596870  s :     3.596870
      pz      :     1.669519  p :     3.995645
      px      :     1.147456
      py      :     1.178670
      dz2     :     0.003523  d :     0.032291
      dxz     :     0.004451
      dyz     :     0.005215
      dx2y2   :     0.008333
      dxy     :     0.010770

 13 C s       :     3.265421  s :     3.265421
      pz      :     1.026404  p :     2.927171
      px      :     1.085945
      py      :     0.814822
      dz2     :     0.009212  d :     0.054938
      dxz     :     0.008467
      dyz     :     0.016474
      dx2y2   :     0.014241
      dxy     :     0.006544

 14 C s       :     3.127226  s :     3.127226
      pz      :     0.863103  p :     2.694922
      px      :     0.873892
      py      :     0.957927
      dz2     :     0.010315  d :     0.039964
      dxz     :     0.012109
      dyz     :     0.005816
      dx2y2   :     0.006399
      dxy     :     0.005326

 15 C s       :     3.201365  s :     3.201365
      pz      :     0.988553  p :     2.940400
      px      :     0.960290
      py      :     0.991557
      dz2     :     0.009697  d :     0.036116
      dxz     :     0.010235
      dyz     :     0.004864
      dx2y2   :     0.005400
      dxy     :     0.005920

 16 C s       :     3.189947  s :     3.189947
      pz      :     0.932829  p :     2.896967
      px      :     0.985329
      py      :     0.978808
      dz2     :     0.010480  d :     0.036067
      dxz     :     0.009414
      dyz     :     0.006251
      dx2y2   :     0.005235
      dxy     :     0.004687

 17 C s       :     3.188169  s :     3.188169
      pz      :     0.966743  p :     2.900812
      px      :     0.958449
      py      :     0.975621
      dz2     :     0.008221  d :     0.036198
      dxz     :     0.013370
      dyz     :     0.004291
      dx2y2   :     0.005615
      dxy     :     0.004701

 18 C s       :     3.189749  s :     3.189749
      pz      :     0.978176  p :     2.903400
      px      :     0.939985
      py      :     0.985240
      dz2     :     0.009603  d :     0.036210
      dxz     :     0.010252
      dyz     :     0.005158
      dx2y2   :     0.005371
      dxy     :     0.005826

 19 C s       :     3.200633  s :     3.200633
      pz      :     0.949770  p :     2.923231
      px      :     0.990410
      py      :     0.983051
      dz2     :     0.010450  d :     0.035851
      dxz     :     0.009224
      dyz     :     0.006329
      dx2y2   :     0.005033
      dxy     :     0.004815

 20 S s       :     5.218202  s :     5.218202
      pz      :     3.043944  p :     9.033574
      px      :     3.013934
      py      :     2.975696
      dz2     :     0.084983  d :     0.536742
      dxz     :     0.125340
      dyz     :     0.117821
      dx2y2   :     0.098113
      dxy     :     0.110485

 21 O s       :     3.925038  s :     3.925038
      pz      :     1.397238  p :     4.579030
      px      :     1.634854
      py      :     1.546938
      dz2     :     0.006936  d :     0.026993
      dxz     :     0.005327
      dyz     :     0.007086
      dx2y2   :     0.003803
      dxy     :     0.003842

 22 O s       :     3.929379  s :     3.929379
      pz      :     1.544139  p :     4.576489
      px      :     1.662445
      py      :     1.369905
      dz2     :     0.004803  d :     0.027133
      dxz     :     0.002478
      dyz     :     0.007709
      dx2y2   :     0.006147
      dxy     :     0.005995

 23 C s       :     3.217315  s :     3.217315
      pz      :     0.929027  p :     2.854978
      px      :     0.908231
      py      :     1.017720
      dz2     :     0.006899  d :     0.038755
      dxz     :     0.013358
      dyz     :     0.005033
      dx2y2   :     0.006602
      dxy     :     0.006863

 24 C s       :     3.197667  s :     3.197667
      pz      :     0.921806  p :     2.899936
      px      :     1.038904
      py      :     0.939226
      dz2     :     0.009963  d :     0.036018
      dxz     :     0.008169
      dyz     :     0.006095
      dx2y2   :     0.006923
      dxy     :     0.004869

 25 C s       :     3.207806  s :     3.207806
      pz      :     0.972174  p :     2.897996
      px      :     0.962105
      py      :     0.963717
      dz2     :     0.007781  d :     0.035767
      dxz     :     0.009904
      dyz     :     0.005683
      dx2y2   :     0.005883
      dxy     :     0.006517

 26 C s       :     3.164322  s :     3.164322
      pz      :     0.887747  p :     2.710143
      px      :     0.851813
      py      :     0.970583
      dz2     :     0.008148  d :     0.038442
      dxz     :     0.012499
      dyz     :     0.004878
      dx2y2   :     0.006494
      dxy     :     0.006422

 27 C s       :     2.998220  s :     2.998220
      pz      :     0.764248  p :     2.365987
      px      :     0.824307
      py      :     0.777432
      dz2     :     0.021127  d :     0.110197
      dxz     :     0.036019
      dyz     :     0.014747
      dx2y2   :     0.019152
      dxy     :     0.019152

 28 O s       :     3.877863  s :     3.877863
      pz      :     1.732792  p :     4.541719
      px      :     1.361101
      py      :     1.447827
      dz2     :     0.002753  d :     0.025609
      dxz     :     0.006118
      dyz     :     0.000571
      dx2y2   :     0.007664
      dxy     :     0.008503

 29 O s       :     3.872338  s :     3.872338
      pz      :     1.325710  p :     4.731598
      px      :     1.670139
      py      :     1.735750
      dz2     :     0.002127  d :     0.020881
      dxz     :     0.009949
      dyz     :     0.002708
      dx2y2   :     0.003590
      dxy     :     0.002507

 30 C s       :     3.213927  s :     3.213927
      pz      :     0.947058  p :     2.889385
      px      :     0.987939
      py      :     0.954388
      dz2     :     0.009586  d :     0.035612
      dxz     :     0.008760
      dyz     :     0.005842
      dx2y2   :     0.006436
      dxy     :     0.004988

 31 C s       :     3.209431  s :     3.209431
      pz      :     1.009837  p :     2.896934
      px      :     0.913544
      py      :     0.973553
      dz2     :     0.008012  d :     0.035994
      dxz     :     0.009382
      dyz     :     0.005781
      dx2y2   :     0.006158
      dxy     :     0.006660

 32 H s       :     0.801656  s :     0.801656

 33 H s       :     0.812837  s :     0.812837

 34 H s       :     0.820975  s :     0.820975

 35 H s       :     0.801996  s :     0.801996

 36 H s       :     0.852017  s :     0.852017

 37 H s       :     0.863864  s :     0.863864

 38 H s       :     0.867199  s :     0.867199

 39 H s       :     0.870007  s :     0.870007

 40 H s       :     0.861392  s :     0.861392

 41 H s       :     0.822327  s :     0.822327

 42 H s       :     0.830662  s :     0.830662

 43 H s       :     0.566602  s :     0.566602

 44 H s       :     0.820967  s :     0.820967

 45 H s       :     0.810443  s :     0.810443



                     *******************************
                     * LOEWDIN POPULATION ANALYSIS *
                     *******************************

----------------------
LOEWDIN ATOMIC CHARGES
----------------------
   0 N :   -0.052815
   1 C :   -0.005285
   2 C :   -0.041950
   3 C :   -0.055281
   4 C :   -0.075120
   5 C :    0.314003
   6 F :   -0.107836
   7 F :   -0.105548
   8 F :   -0.107389
   9 C :   -0.038898
  10 N :   -0.121017
  11 C :    0.085611
  12 N :   -0.285588
  13 C :   -0.144121
  14 C :   -0.044994
  15 C :   -0.131766
  16 C :   -0.124431
  17 C :   -0.126027
  18 C :   -0.128423
  19 C :   -0.126522
  20 S :    1.270028
  21 O :   -0.561420
  22 O :   -0.560423
  23 C :   -0.166139
  24 C :   -0.097353
  25 C :   -0.094363
  26 C :   -0.037504
  27 C :    0.179618
  28 O :   -0.261475
  29 O :   -0.335824
  30 C :   -0.086104
  31 C :   -0.098252
  32 H :    0.167438
  33 H :    0.153776
  34 H :    0.147467
  35 H :    0.148608
  36 H :    0.138848
  37 H :    0.134976
  38 H :    0.133237
  39 H :    0.131875
  40 H :    0.136055
  41 H :    0.155015
  42 H :    0.153394
  43 H :    0.349235
  44 H :    0.159784
  45 H :    0.162899

-------------------------------
LOEWDIN REDUCED ORBITAL CHARGES
-------------------------------
  0 N s       :     3.430793  s :     3.430793
      pz      :     1.392041  p :     3.549652
      px      :     1.059917
      py      :     1.097693
      dz2     :     0.025820  d :     0.072370
      dxz     :     0.018393
      dyz     :     0.020733
      dx2y2   :     0.003641
      dxy     :     0.003784

  1 C s       :     2.921212  s :     2.921212
      pz      :     1.097399  p :     2.983965
      px      :     0.929784
      py      :     0.956782
      dz2     :     0.034448  d :     0.100108
      dxz     :     0.026229
      dyz     :     0.028687
      dx2y2   :     0.005608
      dxy     :     0.005136

  2 C s       :     2.868605  s :     2.868605
      pz      :     1.015025  p :     3.066116
      px      :     1.043172
      py      :     1.007919
      dz2     :     0.029220  d :     0.107229
      dxz     :     0.030786
      dyz     :     0.019374
      dx2y2   :     0.013290
      dxy     :     0.014559

  3 C s       :     2.920182  s :     2.920182
      pz      :     1.071123  p :     3.051521
      px      :     1.029740
      py      :     0.950657
      dz2     :     0.020754  d :     0.083578
      dxz     :     0.026354
      dyz     :     0.013320
      dx2y2   :     0.011417
      dxy     :     0.011734

  4 C s       :     2.895820  s :     2.895820
      pz      :     1.074219  p :     3.084087
      px      :     1.015156
      py      :     0.994712
      dz2     :     0.028593  d :     0.095213
      dxz     :     0.026785
      dyz     :     0.015562
      dx2y2   :     0.009298
      dxy     :     0.014976

  5 C s       :     2.848118  s :     2.848118
      pz      :     0.767836  p :     2.508182
      px      :     0.904158
      py      :     0.836188
      dz2     :     0.081745  d :     0.329697
      dxz     :     0.069668
      dyz     :     0.051176
      dx2y2   :     0.063304
      dxy     :     0.063804

  6 F s       :     3.759822  s :     3.759822
      pz      :     1.558005  p :     5.316880
      px      :     1.858661
      py      :     1.900214
      dz2     :     0.013786  d :     0.031134
      dxz     :     0.009553
      dyz     :     0.005490
      dx2y2   :     0.001146
      dxy     :     0.001158

  7 F s       :     3.762390  s :     3.762390
      pz      :     1.885782  p :     5.311615
      px      :     1.889874
      py      :     1.535959
      dz2     :     0.004650  d :     0.031543
      dxz     :     0.000756
      dyz     :     0.006003
      dx2y2   :     0.012247
      dxy     :     0.007886

  8 F s       :     3.760122  s :     3.760122
      pz      :     1.745553  p :     5.316018
      px      :     1.698033
      py      :     1.872432
      dz2     :     0.004514  d :     0.031249
      dxz     :     0.012108
      dyz     :     0.003760
      dx2y2   :     0.005698
      dxy     :     0.005170

  9 C s       :     2.917426  s :     2.917426
      pz      :     1.077217  p :     2.999661
      px      :     0.980644
      py      :     0.941799
      dz2     :     0.026249  d :     0.121811
      dxz     :     0.036118
      dyz     :     0.018271
      dx2y2   :     0.019644
      dxy     :     0.021528

 10 N s       :     3.245209  s :     3.245209
      pz      :     1.381459  p :     3.797694
      px      :     1.293286
      py      :     1.122949
      dz2     :     0.023380  d :     0.078114
      dxz     :     0.013507
      dyz     :     0.013983
      dx2y2   :     0.013111
      dxy     :     0.014132

 11 C s       :     2.846929  s :     2.846929
      pz      :     1.021202  p :     2.887509
      px      :     0.936514
      py      :     0.929793
      dz2     :     0.048377  d :     0.179951
      dxz     :     0.054822
      dyz     :     0.032168
      dx2y2   :     0.019860
      dxy     :     0.024725

 12 N s       :     3.172264  s :     3.172264
      pz      :     1.625890  p :     4.031412
      px      :     1.188551
      py      :     1.216970
      dz2     :     0.007158  d :     0.081912
      dxz     :     0.011461
      dyz     :     0.012000
      dx2y2   :     0.023188
      dxy     :     0.028106

 13 C s       :     2.922775  s :     2.922775
      pz      :     1.074747  p :     3.103859
      px      :     1.108134
      py      :     0.920978
      dz2     :     0.018865  d :     0.117487
      dxz     :     0.018202
      dyz     :     0.034949
      dx2y2   :     0.031751
      dxy     :     0.013721

 14 C s       :     2.880233  s :     2.880233
      pz      :     1.034412  p :     3.064467
      px      :     1.040494
      py      :     0.989560
      dz2     :     0.026518  d :     0.100294
      dxz     :     0.033083
      dyz     :     0.013592
      dx2y2   :     0.014619
      dxy     :     0.012482

 15 C s       :     2.920722  s :     2.920722
      pz      :     1.074486  p :     3.126658
      px      :     1.052468
      py      :     0.999704
      dz2     :     0.021903  d :     0.084386
      dxz     :     0.026428
      dyz     :     0.009331
      dx2y2   :     0.013208
      dxy     :     0.013516

 16 C s       :     2.918414  s :     2.918414
      pz      :     1.065691  p :     3.121110
      px      :     1.064615
      py      :     0.990804
      dz2     :     0.027427  d :     0.084907
      dxz     :     0.024898
      dyz     :     0.014680
      dx2y2   :     0.009480
      dxy     :     0.008422

 17 C s       :     2.918698  s :     2.918698
      pz      :     1.067747  p :     3.122341
      px      :     1.062642
      py      :     0.991952
      dz2     :     0.020223  d :     0.084989
      dxz     :     0.031032
      dyz     :     0.009979
      dx2y2   :     0.012492
      dxy     :     0.011263

 18 C s       :     2.917959  s :     2.917959
      pz      :     1.067582  p :     3.125201
      px      :     1.061919
      py      :     0.995700
      dz2     :     0.021790  d :     0.085263
      dxz     :     0.026480
      dyz     :     0.009871
      dx2y2   :     0.013632
      dxy     :     0.013490

 19 C s       :     2.919178  s :     2.919178
      pz      :     1.055862  p :     3.123268
      px      :     1.071614
      py      :     0.995793
      dz2     :     0.027401  d :     0.084076
      dxz     :     0.024461
      dyz     :     0.014504
      dx2y2   :     0.009110
      dxy     :     0.008599

 20 S s       :     5.104162  s :     5.104162
      pz      :     2.996242  p :     8.947367
      px      :     2.984444
      py      :     2.966681
      dz2     :     0.099091  d :     0.678442
      dxz     :     0.162785
      dyz     :     0.154917
      dx2y2   :     0.122252
      dxy     :     0.139397

 21 O s       :     3.711299  s :     3.711299
      pz      :     1.498701  p :     4.794078
      px      :     1.678371
      py      :     1.617006
      dz2     :     0.010745  d :     0.056043
      dxz     :     0.010880
      dyz     :     0.019343
      dx2y2   :     0.006512
      dxy     :     0.008562

 22 O s       :     3.713468  s :     3.713468
      pz      :     1.604416  p :     4.790801
      px      :     1.697072
      py      :     1.489312
      dz2     :     0.007211  d :     0.056154
      dxz     :     0.004205
      dyz     :     0.019024
      dx2y2   :     0.014419
      dxy     :     0.011294

 23 C s       :     2.929899  s :     2.929899
      pz      :     1.038112  p :     3.138210
      px      :     1.055361
      py      :     1.044737
      dz2     :     0.018147  d :     0.098030
      dxz     :     0.035038
      dyz     :     0.012002
      dx2y2   :     0.016301
      dxy     :     0.016542

 24 C s       :     2.916140  s :     2.916140
      pz      :     1.034111  p :     3.095851
      px      :     1.088813
      py      :     0.972928
      dz2     :     0.025167  d :     0.085363
      dxz     :     0.021888
      dyz     :     0.015362
      dx2y2   :     0.013417
      dxy     :     0.009529

 25 C s       :     2.918899  s :     2.918899
      pz      :     1.060745  p :     3.091851
      px      :     1.052643
      py      :     0.978463
      dz2     :     0.017752  d :     0.083613
      dxz     :     0.025868
      dyz     :     0.010164
      dx2y2   :     0.015288
      dxy     :     0.014542

 26 C s       :     2.879580  s :     2.879580
      pz      :     1.023465  p :     3.058384
      px      :     1.036871
      py      :     0.998048
      dz2     :     0.021425  d :     0.099539
      dxz     :     0.034174
      dyz     :     0.011664
      dx2y2   :     0.016738
      dxy     :     0.015538

 27 C s       :     2.863680  s :     2.863680
      pz      :     0.890444  p :     2.704281
      px      :     0.996647
      py      :     0.817190
      dz2     :     0.048422  d :     0.252421
      dxz     :     0.084352
      dyz     :     0.033436
      dx2y2   :     0.043945
      dxy     :     0.042265

 28 O s       :     3.592956  s :     3.592956
      pz      :     1.725971  p :     4.618630
      px      :     1.446012
      py      :     1.446647
      dz2     :     0.006865  d :     0.049890
      dxz     :     0.010314
      dyz     :     0.001133
      dx2y2   :     0.017208
      dxy     :     0.014370

 29 O s       :     3.540481  s :     3.540481
      pz      :     1.351739  p :     4.753582
      px      :     1.675213
      py      :     1.726629
      dz2     :     0.007249  d :     0.041761
      dxz     :     0.018156
      dyz     :     0.007592
      dx2y2   :     0.004830
      dxy     :     0.003934

 30 C s       :     2.919997  s :     2.919997
      pz      :     1.029949  p :     3.083302
      px      :     1.083757
      py      :     0.969595
      dz2     :     0.023650  d :     0.082805
      dxz     :     0.023030
      dyz     :     0.014029
      dx2y2   :     0.012453
      dxy     :     0.009643

 31 C s       :     2.918107  s :     2.918107
      pz      :     1.069201  p :     3.095331
      px      :     1.043999
      py      :     0.982131
      dz2     :     0.018215  d :     0.084814
      dxz     :     0.024692
      dyz     :     0.010221
      dx2y2   :     0.016728
      dxy     :     0.014959

 32 H s       :     0.832562  s :     0.832562

 33 H s       :     0.846224  s :     0.846224

 34 H s       :     0.852533  s :     0.852533

 35 H s       :     0.851392  s :     0.851392

 36 H s       :     0.861152  s :     0.861152

 37 H s       :     0.865024  s :     0.865024

 38 H s       :     0.866763  s :     0.866763

 39 H s       :     0.868125  s :     0.868125

 40 H s       :     0.863945  s :     0.863945

 41 H s       :     0.844985  s :     0.844985

 42 H s       :     0.846606  s :     0.846606

 43 H s       :     0.650765  s :     0.650765

 44 H s       :     0.840216  s :     0.840216

 45 H s       :     0.837101  s :     0.837101



                      *****************************
                      * MAYER POPULATION ANALYSIS *
                      *****************************

  NA   - Mulliken gross atomic population
  ZA   - Total nuclear charge
  QA   - Mulliken gross atomic charge
  VA   - Mayer's total valence
  BVA  - Mayer's bonded valence
  FA   - Mayer's free valence

  ATOM       NA         ZA         QA         VA         BVA        FA
  0 N      7.2807     7.0000    -0.2807     3.1021     3.1021    -0.0000
  1 C      5.8905     6.0000     0.1095     3.9992     3.9992     0.0000
  2 C      5.8468     6.0000     0.1532     3.8418     3.8418    -0.0000
  3 C      6.1379     6.0000    -0.1379     3.8715     3.8715    -0.0000
  4 C      6.0423     6.0000    -0.0423     3.9197     3.9197    -0.0000
  5 C      5.0898     6.0000     0.9102     3.9153     3.9153    -0.0000
  6 F      9.3001     9.0000    -0.3001     1.0618     1.0618     0.0000
  7 F      9.2875     9.0000    -0.2875     1.0682     1.0682    -0.0000
  8 F      9.2984     9.0000    -0.2984     1.0633     1.0633     0.0000
  9 C      5.9950     6.0000     0.0050     3.8720     3.8720     0.0000
 10 N      7.3863     7.0000    -0.3863     2.9738     2.9738     0.0000
 11 C      5.6147     6.0000     0.3853     3.9179     3.9179    -0.0000
 12 N      7.6248     7.0000    -0.6248     2.7653     2.7653    -0.0000
 13 C      6.2475     6.0000    -0.2475     3.7950     3.7950     0.0000
 14 C      5.8621     6.0000     0.1379     3.9139     3.9139     0.0000
 15 C      6.1779     6.0000    -0.1779     3.9410     3.9410    -0.0000
 16 C      6.1230     6.0000    -0.1230     3.9431     3.9431     0.0000
 17 C      6.1252     6.0000    -0.1252     3.9494     3.9494    -0.0000
 18 C      6.1294     6.0000    -0.1294     3.9461     3.9461    -0.0000
 19 C      6.1597     6.0000    -0.1597     3.9258     3.9258     0.0000
 20 S     14.7885    16.0000     1.2115     5.0726     5.0726    -0.0000
 21 O      8.5311     8.0000    -0.5311     1.9078     1.9078     0.0000
 22 O      8.5330     8.0000    -0.5330     1.8986     1.8986     0.0000
 23 C      6.1110     6.0000    -0.1110     3.8356     3.8356     0.0000
 24 C      6.1336     6.0000    -0.1336     3.9206     3.9206     0.0000
 25 C      6.1416     6.0000    -0.1416     3.8883     3.8883     0.0000
 26 C      5.9129     6.0000     0.0871     3.9308     3.9308     0.0000
 27 C      5.4744     6.0000     0.5256     3.9538     3.9538    -0.0000
 28 O      8.4452     8.0000    -0.4452     2.0667     2.0667    -0.0000
 29 O      8.6248     8.0000    -0.6248     1.8669     1.8669     0.0000
 30 C      6.1389     6.0000    -0.1389     3.8979     3.8979    -0.0000
 31 C      6.1424     6.0000    -0.1424     3.9216     3.9216     0.0000
 32 H      0.8017     1.0000     0.1983     0.9290     0.9290     0.0000
 33 H      0.8128     1.0000     0.1872     0.9306     0.9306    -0.0000
 34 H      0.8210     1.0000     0.1790     0.9298     0.9298    -0.0000
 35 H      0.8020     1.0000     0.1980     0.9253     0.9253    -0.0000
 36 H      0.8520     1.0000     0.1480     0.9396     0.9396    -0.0000
 37 H      0.8639     1.0000     0.1361     0.9363     0.9363    -0.0000
 38 H      0.8672     1.0000     0.1328     0.9359     0.9359     0.0000
 39 H      0.8700     1.0000     0.1300     0.9366     0.9366    -0.0000
 40 H      0.8614     1.0000     0.1386     0.9504     0.9504     0.0000
 41 H      0.8223     1.0000     0.1777     0.9420     0.9420     0.0000
 42 H      0.8307     1.0000     0.1693     0.9376     0.9376     0.0000
 43 H      0.5666     1.0000     0.4334     0.7961     0.7961     0.0000
 44 H      0.8210     1.0000     0.1790     0.9390     0.9390    -0.0000
 45 H      0.8104     1.0000     0.1896     0.9355     0.9355    -0.0000

  Mayer bond orders larger than 0.100000
B(  0-N ,  1-C ) :   2.9902 B(  1-C ,  2-C ) :   0.9635 B(  2-C ,  3-C ) :   1.3828 
B(  2-C , 11-C ) :   1.3533 B(  3-C ,  4-C ) :   1.3930 B(  3-C , 32-H ) :   0.9058 
B(  4-C ,  5-C ) :   0.9701 B(  4-C ,  9-C ) :   1.3625 B(  5-C ,  6-F ) :   0.9499 
B(  5-C ,  7-F ) :   0.9938 B(  5-C ,  8-F ) :   0.9529 B(  9-C , 10-N ) :   1.3997 
B(  9-C , 33-H ) :   0.9163 B( 10-N , 11-C ) :   1.3707 B( 11-C , 12-N ) :   0.9420 
B( 12-N , 13-C ) :   0.8977 B( 12-N , 20-S ) :   0.7713 B( 13-C , 14-C ) :   0.9545 
B( 13-C , 34-H ) :   0.9217 B( 13-C , 35-H ) :   0.9161 B( 14-C , 15-C ) :   1.4398 
B( 14-C , 19-C ) :   1.4261 B( 15-C , 16-C ) :   1.4299 B( 15-C , 36-H ) :   0.9181 
B( 16-C , 17-C ) :   1.4603 B( 16-C , 37-H ) :   0.9280 B( 17-C , 18-C ) :   1.4418 
B( 17-C , 38-H ) :   0.9297 B( 18-C , 19-C ) :   1.4489 B( 18-C , 39-H ) :   0.9299 
B( 19-C , 40-H ) :   0.9137 B( 20-S , 21-O ) :   1.6412 B( 20-S , 22-O ) :   1.6631 
B( 20-S , 23-C ) :   0.8162 B( 23-C , 24-C ) :   1.3852 B( 23-C , 31-C ) :   1.3924 
B( 24-C , 25-C ) :   1.4289 B( 24-C , 41-H ) :   0.9036 B( 25-C , 26-C ) :   1.3830 
B( 25-C , 42-H ) :   0.9153 B( 26-C , 27-C ) :   1.0090 B( 26-C , 30-C ) :   1.4001 
B( 27-C , 28-O ) :   1.8623 B( 27-C , 29-O ) :   1.0230 B( 29-O , 43-H ) :   0.7422 
B( 30-C , 31-C ) :   1.4188 B( 30-C , 44-H ) :   0.9097 B( 31-C , 45-H ) :   0.9083 


-------
TIMINGS
-------

Total SCF time: 0 days 0 hours 8 min 32 sec 

Total time                  ....     512.406 sec
Sum of individual times     ....     512.129 sec  ( 99.9%)

SCF preparation             ....       0.371 sec  (  0.1%)
Fock matrix formation       ....     509.671 sec  ( 99.5%)
  Startup                   ....       0.077 sec  (  0.0% of F)
  Split-RI-J                ....      64.137 sec  ( 12.6% of F)
  Chain of spheres X        ....     402.130 sec  ( 78.9% of F)
  XC integration            ....      42.531 sec  (  8.3% of F)
    XC Preparation          ....       0.000 sec  (  0.0% of XC)
    Basis function eval.    ....      15.974 sec  ( 37.6% of XC)
    Density eval.           ....      11.218 sec  ( 26.4% of XC)
    XC-Functional eval.     ....       1.997 sec  (  4.7% of XC)
    XC-Potential eval.      ....      11.827 sec  ( 27.8% of XC)
Diagonalization             ....       0.000 sec  (  0.0%)
Density matrix formation    ....       0.304 sec  (  0.1%)
Total Energy calculation    ....       0.065 sec  (  0.0%)
Population analysis         ....       0.068 sec  (  0.0%)
Orbital Transformation      ....       0.165 sec  (  0.0%)
Orbital Orthonormalization  ....       0.000 sec  (  0.0%)
DIIS solution               ....       1.089 sec  (  0.2%)
SOSCF solution              ....       0.397 sec  (  0.1%)
Finished LeanSCF after 512.5 sec

Maximum memory used throughout the entire LEANSCF-calculation: 83.2 MB

-------------------------   --------------------
FINAL SINGLE POINT ENERGY     -1970.493500996885
-------------------------   --------------------


------------------------------------------------------------------------------
                              ORCA PROPERTY CALCULATIONS
------------------------------------------------------------------------------

GBWName                                 ... /home/nmrbox/aojoawo/Documents/ERDOS/inputs/CHEMBL3353585.gbw
Number of atoms                         ...     46
Number of basis functions               ...    480
Max core memory                         ...   1024 MB

Electric properties:
Dipole moment                           ... YES
Quadrupole moment                       ...  NO
Static polarizability (Dipole/Dipole)   ...  NO
Static polarizability (Dipole/Quad.)    ...  NO
Static polarizability (Quad./Quad.)     ...  NO
Static polarizability (Velocity)        ...  NO

Atomic electric properties:
Dipole moment                           ...  NO
Quadrupole moment                       ...  NO
Static polarizability                   ...  NO

Choice of electric origin               ... Center of mass
Position of electric origin             ...    -0.858309     0.644019    -0.709872

General magnetic properties:
Magnetizability                         ...  NO

EPR properties:
g-Tensor (aka g-matrix)                 ...  NO
Zero-Field splitting spin-orbit         ...  NO
Zero-field splitting spin-spin          ...  NO
Hyperfine couplings                     ...  NO (   0 nuclei)
Quadrupole couplings                    ...  NO (   0 nuclei)
Contact density                         ...  NO (   0 nuclei)

NMR properties:
Chemical shifts                         ...  NO (   0 nuclei)
Spin-rotation constants                 ...  NO (   0 nuclei)
Spin-spin couplings                     ...  NO (   0 nuclei,    0 pairs)

Choice of magnetic origin               ... GIAO
Position of magnetic origin             ...     0.000000     0.000000     0.000000

Properties with geometric perturbations:
SCF Hessian                             ...  NO
IR spectrum                             ...  NO
VCD spectrum                            ...  NO
X-ray spectroscopy properties:
SCF XES/XAS/RIXS spectra                ...  NO


-------------
DIPOLE MOMENT
-------------

Method             : SCF
Type of density    : Electron Density
Multiplicity       :   1
Irrep              :   0
Energy             : -1970.4935009968851318 Eh
Relativity type    : 
Basis              : AO
                                X                 Y                 Z
Electronic contribution:    -33.111356432      18.278196176     -11.586551642
Nuclear contribution   :     32.472458621     -18.336766538      14.523777638
                        -----------------------------------------
Total Dipole Moment    :     -0.638897811      -0.058570363       2.937225996
                        -----------------------------------------
Magnitude (a.u.)       :      3.006479246
Magnitude (Debye)      :      7.641862934



--------------------
Rotational spectrum 
--------------------
 
Rotational constants in cm-1:             0.007459             0.002483             0.002282 
Rotational constants in MHz :           223.602149            74.449834            68.399188 

Dipole components along the rotational axes: 
x,y,z [a.u.] :    -0.283824     2.608008     1.468555 
x,y,z [Debye]:    -0.721424     6.629030     3.732770 

 

Dipole moment calculation done in   0.0 sec 

Maximum memory used throughout the entire PROP-calculation: 40.8 MB

--------------------------------
SUGGESTED CITATIONS FOR THIS RUN
--------------------------------

Below you find a list of papers that are relevant to this ORCA run
We neither can nor want to force you to cite these papers, but we appreciate if you do
You receive ORCA, which is the product of decades of hard work by many enthusiastic individuals, for free
The only thing we kindly ask in return is that you cite our papers,
We deeply appreciate it, if you show your appreciation for ORCA by not just citing the generic ORCA reference.

Please note that relegating all ORCA citations to the supporting information does *not* help us.
SI sections are not indexed - citations you put there will not count into any citation statistics
But we need these citations in order to attract the funding resources that allow us to do what we are doing

Therefore, if you are a happy ORCA user, please consider citing a few of the papers listed below in the main body of your paper

In addition to the list printed below, the program has created the file /home/nmrbox/aojoawo/Documents/ERDOS/inputs/CHEMBL3353585.bibtex that contains the list in bibtex format
You can import this file easily into all common literature databanks and citation aid programs


List of essential papers. We consider these as the minimum necessary citations

  1. Neese,F.
     Software update: the ORCA program system, version 5.0
     WIRES Comput. Molec. Sci., 2022 12(1)e1606
     doi.org/10.1002/wcms.1606

List of papers to cite with high priority. The work reported in these papers was absolutely
necessary for this run to complete.
Our perspective: the developers of density functionals and basis sets usually get cited in chemistry papers
Good! But without the algorithms to do something with them, the functionals or basis sets would not do anything.
Hence, in our opinion, the algorithm design and method developments papers are equally worthy of getting cited

  1. Neese,F.
     An improvement of the resolution of the identity approximation for the formation of the Coulomb matrix
     J. Comp. Chem., 2003 24(14)1740-1747
     doi.org/10.1002/jcc.10318
  2. Neese,F.; Wennmohs,F.; Hansen,A.; Becker,U.
     Efficient, approximate and parallel Hartree-Fock and hybrid DFT calculations. A 'chain-of-spheres' algorithm for the Hartree-Fock exchange
     Chem. Phys., 2009 356(1-3)98-109
     doi.org/10.1016/j.chemphys.2008.10.036
  3. Helmich-Paris,B.; de Souza,B.; Neese,F.; Izsák,R.
     An improved chain of spheres for exchange algorithm
     J. Chem. Phys., 2021 155 104109
     doi.org/doi: 10.1063/5.0058766.
  4. Neese,F.
     The SHARK Integral Generation and Digestion System
     J. Comp. Chem., 2022  1-16
     doi.org/10.1002/jcc.26942

List of suggested additional citations. These are papers that are important in the 'surrounding' of 
of this run, or papers that preceded the highly important papers. If you like your results we are grateful for a citation.

  1. Izsak,R.; Neese,F.
     An overlap fitted chain of spheres exchange method
     J. Chem. Phys., 2011 135 144105
     doi.org/10.1063/1.3646921
  2. Izsak,R.; Hansen,A.; Neese,F.
     The resolution of identity and chain of spheres approximations for the LPNO-CCSD singles Fock term
     Molec. Phys., 2012 110 2413-2417
     doi.org/10.1080/00268976.2012.687466
  3. Neese,F.
     The ORCA program system
     WIRES Comput. Molec. Sci., 2012 2(1)73-78
     doi.org/10.1002/wcms.81
  4. Izsak,R.; Neese,F.; Klopper,W.
     Robust fitting techniques in the chain of spheres approximation to the Fock exchange: The role of the complementary space
     J. Chem. Phys., 2013 139 
     doi.org/10.1063/1.4819264
  5. Neese,F.
     Software update: the ORCA program system, version 4.0
     WIRES Comput. Molec. Sci., 2018 8(1)1-6
     doi.org/10.1002/wcms.1327
  6. Neese,F.; Wennmohs,F.; Becker,U.; Riplinger,C.
     The ORCA quantum chemistry program package
     J. Chem. Phys., 2020 152 Art. No. L224108
     doi.org/10.1063/5.0004608

List of optional additional citations

  1. Neese,F.
     Approximate second-order SCF convergence for spin unrestricted wavefunctions
     Chem. Phys. Lett., 2000 325(1-3)93-98
     doi.org/10.1016/s0009-2614(00)00662-x

Timings for individual modules:

Sum of individual times          ...      532.155 sec (=   8.869 min)
Startup calculation              ...       12.708 sec (=   0.212 min)   2.4 %
SCF iterations                   ...      519.226 sec (=   8.654 min)  97.6 %
Property calculations            ...        0.221 sec (=   0.004 min)   0.0 %
                             ****ORCA TERMINATED NORMALLY****
TOTAL RUN TIME: 0 days 0 hours 8 minutes 52 seconds 799 msec
