
                                 *****************
                                 * O   R   C   A *
                                 *****************

                                            #,                                       
                                            ###                                      
                                            ####                                     
                                            #####                                    
                                            ######                                   
                                           ########,                                 
                                     ,,################,,,,,                         
                               ,,#################################,,                 
                          ,,##########################################,,             
                       ,#########################################, ''#####,          
                    ,#############################################,,   '####,        
                  ,##################################################,,,,####,       
                ,###########''''           ''''###############################       
              ,#####''   ,,,,##########,,,,          '''####'''          '####       
            ,##' ,,,,###########################,,,                        '##       
           ' ,,###''''                  '''############,,,                           
         ,,##''                                '''############,,,,        ,,,,,,###''
      ,#''                                            '''#######################'''  
     '                                                          ''''####''''         
             ,#######,   #######,   ,#######,      ##                                
            ,#'     '#,  ##    ##  ,#'     '#,    #''#        ,####,   ,####,        
            ##       ##  ##   ,#'  ##            #'  '#       #'       #'  '#        
            ##       ##  #######   ##           ,######,      #####,   #    #        
            '#,     ,#'  ##    ##  '#,     ,#' ,#      #,     #,   #   #,  ,#        
             '#######'   ##     ##  '#######'  #'      '#     '####' # '####'        



                #########################################################
                #                        -***-                          #
                #          Department of theory and spectroscopy        #
                #                                                       #
                #                      Frank Neese                      #
                #                                                       #
                #     Directorship, Architecture, Infrastructure        #
                #                    SHARK, DRIVERS                     #
                #        Core code/Algorithms in most modules           #
                #                                                       #
                #        Max Planck Institute fuer Kohlenforschung      #
                #                Kaiser Wilhelm Platz 1                 #
                #                 D-45470 Muelheim/Ruhr                 #
                #                      Germany                          #
                #                                                       #
                #                  All rights reserved                  #
                #                        -***-                          #
                #########################################################


                         Program Version 6.0.0  -   RELEASE  -


 With contributions from (in alphabetic order):
   Daniel Aravena         : Magnetic Suceptibility
   Michael Atanasov       : Ab Initio Ligand Field Theory (pilot matlab implementation)
   Alexander A. Auer      : GIAO ZORA, VPT2 properties, NMR spectrum
   Ute Becker             : All parallelization in ORCA, NUMFREQ, NUMCALC
   Giovanni Bistoni       : ED, misc. LED, open-shell LED, HFLD
   Martin Brehm           : Molecular dynamics
   Dmytro Bykov           : pre 5.0 version of the SCF Hessian
   Marcos Casanova-Páez   : Triplet and SCS-CIS(D). UHF-(DLPNO)-IP/EA/STEOM-CCSD. UHF-CVS-IP/STEOM-CCSD
   Vijay G. Chilkuri      : MRCI spin determinant printing, contributions to CSF-ICE
   Pauline Colinet        : FMM embedding
   Dipayan Datta          : RHF DLPNO-CCSD density
   Achintya Kumar Dutta   : EOM-CC, STEOM-CC
   Nicolas Foglia         : Exact transition moments, OPA infrastructure, MCD improvements
   Dmitry Ganyushin       : Spin-Orbit,Spin-Spin,Magnetic field MRCI
   Miquel Garcia          : C-PCM and meta-GGA Hessian, CCSD/C-PCM, Gaussian charge scheme
   Tiago L. C. Gouveia    : GS-ROHF, GS-ROCIS
   Yang Guo               : DLPNO-NEVPT2, F12-NEVPT2, CIM, IAO-localization
   Andreas Hansen         : Spin unrestricted coupled pair/coupled cluster methods
   Ingolf Harden          : AUTO-CI MPn and infrastructure 
   Benjamin Helmich-Paris : MC-RPA, TRAH-(SCF,CASSCF), AVAS, COSX integrals, SCF dyn. polar.
   Lee Huntington         : MR-EOM, pCC
   Robert Izsak           : Overlap fitted RIJCOSX, COSX-SCS-MP3, EOM
   Riya Kayal             : Wick's Theorem for AUTO-CI, AUTO-CI UHF-CCSDT
   Emily Kempfer          : AUTO-CI, RHF CISDT and CCSDT
   Christian Kollmar      : KDIIS, OOCD, Brueckner-CCSD(T), CCSD density, CASPT2, CASPT2-K, improved NEVPT2
   Axel Koslowski         : Symmetry handling
   Simone Kossmann        : Meta GGA functionals, TD-DFT gradient, OOMP2, (MP2 Hessian; deprecated post 5.0)
   Lucas Lang             : DCDCAS
   Marvin Lechner         : AUTO-CI (C++ implementation), FIC-MRCC
   Spencer Leger          : CASSCF response
   Dagmar Lenk            : GEPOL surface, SMD, ORCA-2-JSON
   Dimitrios Liakos       : Extrapolation schemes; Compound Job, initial MDCI parallelization
   Dimitrios Manganas     : Further ROCIS development; embedding schemes. LFT, Crystal Embedding
   Dimitrios Pantazis     : SARC Basis sets
   Anastasios Papadopoulos: AUTO-CI, single reference methods and gradients
   Taras Petrenko         : pre 6.0 DFT Hessian and TD-DFT gradient, (ASA, deprecated), ECA, 1-Electron XAS/XES, NRVS
   Peter Pinski           : DLPNO-MP2, DLPNO-MP2 Gradient
   Christoph Reimann      : Effective Core Potentials
   Marius Retegan         : Local ZFS, SOC
   Christoph Riplinger    : Optimizer, TS searches, QM/MM, DLPNO-CCSD(T), (RO)-DLPNO pert. Triples
   Michael Roemelt        : Original ROCIS implementation
   Masaaki Saitow         : Open-shell DLPNO-CCSD energy and density
   Barbara Sandhoefer     : DKH picture change effects
   Kantharuban Sivalingam : CASSCF convergence/infrastructure, NEVPT2 and variants, FIC-MRCI
   Bernardo de Souza      : ESD, SOC TD-DFT
   Georgi Stoychev        : AutoAux, RI-MP2 NMR, DLPNO-MP2 response, X2C
   Van Anh Tran           : RI-MP2 g-tensors
   Willem Van den Heuvel  : Paramagnetic NMR
   Zikuan Wang            : NOTCH, Electric field optimization 
   Frank Wennmohs         : Technical directorship and infrastructure
   Hang Xu                : AUTO-CI-Response properties 


 We gratefully acknowledge several colleagues who have allowed us to
 interface, adapt or use parts of their codes:
   Stefan Grimme, W. Hujo, H. Kruse, P. Pracht,  : VdW corrections, initial TS optimization,
                  C. Bannwarth, S. Ehlert,         DFT functionals, gCP, sTDA/sTD-DF
                  L. Wittmann, M. Mueller
   Ed Valeev, F. Pavosevic, A. Kumar             : LibInt (2-el integral package), F12 methods
   Garnet Chan, S. Sharma, J. Yang, R. Olivares  : DMRG
   Ulf Ekstrom                                   : XCFun DFT Library
   Mihaly Kallay                                 : mrcc  (arbitrary order and MRCC methods)
   Frank Weinhold                                : gennbo (NPA and NBO analysis)
   Simon Mueller                                 : openCOSMO-RS
   Christopher J. Cramer and Donald G. Truhlar   : smd solvation model
   Lars Goerigk                                  : TD-DFT with DH, B97 family of functionals
   V. Asgeirsson, H. Jonsson                     : NEB implementation
   FAccTs GmbH                                   : IRC, NEB, NEB-TS, DLPNO-Multilevel, CI-OPT
                                                   MM, QMMM, 2- and 3-layer-ONIOM, Crystal-QMMM,
                                                   LR-CPCM, SF, NACMEs, symmetry and pop. for TD-DFT,
                                                   nearIR, NL-DFT gradient (VV10), updates on ESD,
                                                   ML-optimized integration grids, MBIS, APM,
                                                   GOAT, DOCKER, SOLVATOR, interface openCOSMO-RS
   S Lehtola, MJT Oliveira, MAL Marques          : LibXC Library
   Liviu Ungur et al                             : ANISO software


 Your calculation uses the libint2 library for the computation of 2-el integrals
 For citations please refer to: http://libint.valeyev.net

 Your ORCA version has been built with support for libXC version: 6.2.2
 For citations please refer to: https://libxc.gitlab.io

 This ORCA versions uses:
   CBLAS   interface :  Fast vector & matrix operations
   LAPACKE interface :  Fast linear algebra routines
   SCALAPACK package :  Parallel linear algebra routines
   Shared memory     :  Shared parallel matrices
   BLAS/LAPACK       :  OpenBLAS 0.3.27  USE64BITINT DYNAMIC_ARCH NO_AFFINITY SkylakeX SINGLE_THREADED
        Core in use  :  SkylakeX
   Copyright (c) 2011-2014, The OpenBLAS Project


Warning: RI is on but no J-basis has been assigned. Assigning Def2/J (nothing to worry about!)
================================================================================

----- Orbital basis set information -----
Your calculation utilizes the basis: 6-31G*
   H-He, Li-Ne : W. J. Hehre, R. Ditchfield and J.A. Pople, J. Chem. Phys. 56, 2257 (1972).
                 Note: He and Ne are unpublished basis sets taken from the Gaussian program.
                 Note: Li and B from J. D. Dill and J. A. Pople, J. Chem. Phys. 62, 2921 (1975).
   Na - Ar     : M. M. Francl, W. J. Pietro, W. J. Hehre, J. S. Binkley, M. S. Gordon, 
                 D. J. DeFrees and J. A. Pople, J. Chem. Phys. 77, 3654 (1982).
   K - Zn      : V. A. Rassolov, J. A. Pople, M. A. Ratner, and T. L. Windus, J. Chem. Phys. 109, 1223 (1998).

----- AuxJ basis set information -----
Your calculation utilizes the auxiliary basis: def2/J
   F. Weigend, Phys. Chem. Chem. Phys. 8, 1057 (2006).

================================================================================
                                        WARNINGS
                       Please study these warnings very carefully!
================================================================================


================================================================================
                                       INPUT FILE
================================================================================
NAME = /home/nmrbox/aojoawo/Documents/ERDOS/inputs/CHEMBL3687330.inp
|  1> ! B3LYP 6-31G* SP
|  2> 
|  3> * xyz -1 1
|  4> C 0.8891 0.7889 2.3273
|  5> C 0.0990 1.5653 1.2972
|  6> C -0.5680 0.8991 0.2417
|  7> N -0.5426 -0.5287 0.1275
|  8> C 0.2144 -1.1583 -0.9543
|  9> C 1.6881 -1.0383 -0.6820
| 10> C 2.3402 -1.9982 0.1048
| 11> C 3.6942 -1.8509 0.4184
| 12> C 4.4147 -0.7401 -0.0367
| 13> O 5.7717 -0.6426 0.3116
| 14> C 6.6431 0.4226 -0.0608
| 15> F 6.1770 1.6210 0.4506
| 16> F 7.8996 0.1759 0.4574
| 17> F 6.7370 0.5046 -1.4389
| 18> C 3.7563 0.2311 -0.8164
| 19> C 2.4025 0.0825 -1.1319
| 20> S -1.6124 -1.4832 1.1058
| 21> O -2.2538 -0.6242 2.1602
| 22> O -0.8265 -2.5683 1.7883
| 23> C -2.8679 -2.1729 0.0845
| 24> C -2.9004 -3.5482 -0.1791
| 25> C -3.8949 -4.0833 -1.0028
| 26> C -4.8694 -3.2491 -1.5780
| 27> C -5.9245 -3.8205 -2.4449
| 28> O -6.8064 -3.0789 -2.9550
| 29> O -5.9583 -5.1857 -2.7074
| 30> C -4.8252 -1.8676 -1.3158
| 31> C -3.8295 -1.3351 -0.4920
| 32> N -1.2342 1.6138 -0.7027
| 33> C -1.3074 2.9664 -0.6754
| 34> C -0.6836 3.6814 0.3493
| 35> C -0.7576 5.0797 0.3874
| 36> C -0.1230 5.7705 1.4178
| 37> N 0.5597 5.0909 2.3745
| 38> C 0.6517 3.7346 2.3680
| 39> C 0.0296 2.9811 1.3500
| 40> H 0.4513 0.9510 3.3347
| 41> H 0.8989 -0.3018 2.1365
| 42> H 1.9462 1.1293 2.3216
| 43> H -0.0441 -0.6781 -1.9236
| 44> H -0.0615 -2.2317 -1.0466
| 45> H 1.7982 -2.8559 0.4831
| 46> H 4.1857 -2.6005 1.0255
| 47> H 4.2757 1.1073 -1.1784
| 48> H 1.9073 0.8485 -1.7169
| 49> H -2.1572 -4.2084 0.2489
| 50> H -3.9001 -5.1501 -1.1883
| 51> H -5.5591 -1.1984 -1.7472
| 52> H -3.8067 -0.2687 -0.3044
| 53> H -1.8552 3.4806 -1.4552
| 54> H -1.2991 5.6318 -0.3714
| 55> H -0.1725 6.8506 1.4578
| 56> H 1.2100 3.2591 3.1624
| 57> *
| 58> 
| 59>                          ****END OF INPUT****
================================================================================

                       ****************************
                       * Single Point Calculation *
                       ****************************

---------------------------------
CARTESIAN COORDINATES (ANGSTROEM)
---------------------------------
  C      0.889100    0.788900    2.327300
  C      0.099000    1.565300    1.297200
  C     -0.568000    0.899100    0.241700
  N     -0.542600   -0.528700    0.127500
  C      0.214400   -1.158300   -0.954300
  C      1.688100   -1.038300   -0.682000
  C      2.340200   -1.998200    0.104800
  C      3.694200   -1.850900    0.418400
  C      4.414700   -0.740100   -0.036700
  O      5.771700   -0.642600    0.311600
  C      6.643100    0.422600   -0.060800
  F      6.177000    1.621000    0.450600
  F      7.899600    0.175900    0.457400
  F      6.737000    0.504600   -1.438900
  C      3.756300    0.231100   -0.816400
  C      2.402500    0.082500   -1.131900
  S     -1.612400   -1.483200    1.105800
  O     -2.253800   -0.624200    2.160200
  O     -0.826500   -2.568300    1.788300
  C     -2.867900   -2.172900    0.084500
  C     -2.900400   -3.548200   -0.179100
  C     -3.894900   -4.083300   -1.002800
  C     -4.869400   -3.249100   -1.578000
  C     -5.924500   -3.820500   -2.444900
  O     -6.806400   -3.078900   -2.955000
  O     -5.958300   -5.185700   -2.707400
  C     -4.825200   -1.867600   -1.315800
  C     -3.829500   -1.335100   -0.492000
  N     -1.234200    1.613800   -0.702700
  C     -1.307400    2.966400   -0.675400
  C     -0.683600    3.681400    0.349300
  C     -0.757600    5.079700    0.387400
  C     -0.123000    5.770500    1.417800
  N      0.559700    5.090900    2.374500
  C      0.651700    3.734600    2.368000
  C      0.029600    2.981100    1.350000
  H      0.451300    0.951000    3.334700
  H      0.898900   -0.301800    2.136500
  H      1.946200    1.129300    2.321600
  H     -0.044100   -0.678100   -1.923600
  H     -0.061500   -2.231700   -1.046600
  H      1.798200   -2.855900    0.483100
  H      4.185700   -2.600500    1.025500
  H      4.275700    1.107300   -1.178400
  H      1.907300    0.848500   -1.716900
  H     -2.157200   -4.208400    0.248900
  H     -3.900100   -5.150100   -1.188300
  H     -5.559100   -1.198400   -1.747200
  H     -3.806700   -0.268700   -0.304400
  H     -1.855200    3.480600   -1.455200
  H     -1.299100    5.631800   -0.371400
  H     -0.172500    6.850600    1.457800
  H      1.210000    3.259100    3.162400

----------------------------
CARTESIAN COORDINATES (A.U.)
----------------------------
  NO LB      ZA    FRAG     MASS         X           Y           Z
   0 C     6.0000    0    12.011    1.680156    1.490805    4.397960
   1 C     6.0000    0    12.011    0.187083    2.957988    2.451353
   2 C     6.0000    0    12.011   -1.073364    1.699053    0.456747
   3 N     7.0000    0    14.007   -1.025365   -0.999098    0.240940
   4 C     6.0000    0    12.011    0.405157   -2.188870   -1.803366
   5 C     6.0000    0    12.011    3.190047   -1.962103   -1.288793
   6 C     6.0000    0    12.011    4.422337   -3.776051    0.198043
   7 C     6.0000    0    12.011    6.981026   -3.497694    0.790661
   8 C     6.0000    0    12.011    8.342574   -1.398586   -0.069353
   9 O     8.0000    0    15.999   10.906932   -1.214338    0.588839
  10 C     6.0000    0    12.011   12.553640    0.798598   -0.114895
  11 F     9.0000    0    18.998   11.672838    3.063246    0.851511
  12 F     9.0000    0    18.998   14.928081    0.332403    0.864361
  13 F     9.0000    0    18.998   12.731085    0.953556   -2.719127
  14 C     6.0000    0    12.011    7.098378    0.436716   -1.542772
  15 C     6.0000    0    12.011    4.540067    0.155902   -2.138981
  16 S    16.0000    0    32.060   -3.046994   -2.802842    2.089659
  17 O     8.0000    0    15.999   -4.259065   -1.179567    4.082186
  18 O     8.0000    0    15.999   -1.561859   -4.853384    3.379397
  19 C     6.0000    0    12.011   -5.419546   -4.106186    0.159682
  20 C     6.0000    0    12.011   -5.480962   -6.705126   -0.338450
  21 C     6.0000    0    12.011   -7.360294   -7.716319   -1.895017
  22 C     6.0000    0    12.011   -9.201832   -6.139909   -2.981988
  23 C     6.0000    0    12.011  -11.195682   -7.219699   -4.620191
  24 O     8.0000    0    15.999  -12.862232   -5.818278   -5.584141
  25 O     8.0000    0    15.999  -11.259555   -9.799553   -5.116245
  26 C     6.0000    0    12.011   -9.118307   -3.529253   -2.486502
  27 C     6.0000    0    12.011   -7.236706   -2.522973   -0.929745
  28 N     7.0000    0    14.007   -2.332300    3.049640   -1.327911
  29 C     6.0000    0    12.011   -2.470628    5.605684   -1.276321
  30 C     6.0000    0    12.011   -1.291817    6.956838    0.660081
  31 C     6.0000    0    12.011   -1.431657    9.599242    0.732080
  32 C     6.0000    0    12.011   -0.232436   10.904665    2.679254
  33 N     7.0000    0    14.007    1.057680    9.620407    4.487155
  34 C     6.0000    0    12.011    1.231535    7.057371    4.474871
  35 C     6.0000    0    12.011    0.055936    5.633463    2.551130
  36 H     1.0000    0     1.008    0.852833    1.797130    6.301670
  37 H     1.0000    0     1.008    1.698675   -0.570319    4.037400
  38 H     1.0000    0     1.008    3.677785    2.134068    4.387188
  39 H     1.0000    0     1.008   -0.083337   -1.281423   -3.635077
  40 H     1.0000    0     1.008   -0.116218   -4.217302   -1.977787
  41 H     1.0000    0     1.008    3.398106   -5.396869    0.912927
  42 H     1.0000    0     1.008    7.909827   -4.914233    1.937914
  43 H     1.0000    0     1.008    8.079902    2.092494   -2.226853
  44 H     1.0000    0     1.008    3.604275    1.603433   -3.244471
  45 H     1.0000    0     1.008   -4.076517   -7.952723    0.470353
  46 H     1.0000    0     1.008   -7.370121   -9.732279   -2.245562
  47 H     1.0000    0     1.008  -10.505177   -2.264648   -3.301730
  48 H     1.0000    0     1.008   -7.193620   -0.507769   -0.575233
  49 H     1.0000    0     1.008   -3.505820    6.577381   -2.749929
  50 H     1.0000    0     1.008   -2.454943   10.642560   -0.701844
  51 H     1.0000    0     1.008   -0.325978   12.945758    2.754843
  52 H     1.0000    0     1.008    2.286569    6.158806    5.976070

--------------------------------
INTERNAL COORDINATES (ANGSTROEM)
--------------------------------
 C      0   0   0     0.000000000000     0.00000000     0.00000000
 C      1   0   0     1.512666843690     0.00000000     0.00000000
 C      2   1   0     1.415200229650   120.82760674     0.00000000
 N      3   2   1     1.432584950361   121.35049989     1.33024008
 C      4   3   2     1.462783784433   119.80858548   250.14661490
 C      5   4   3     1.503442376681   109.81408247    72.52655805
 C      6   5   4     1.402033045260   120.19225692    86.46676672
 C      7   6   5     1.397625933503   120.28847876   183.41693745
 C      8   7   6     1.400040320848   120.61362602     0.57915247
 O      9   8   7     1.404374643747   118.14677052   179.85378653
 C     10   9   8     1.425717629827   125.28700178   180.40230548
 F     11  10   9     1.383814196343   110.15922674    60.89101505
 F     11  10   9     1.381370471669   108.93734383   180.16959826
 F     11  10   9     1.383727147959   110.23619787   299.49907489
 C      9   8   7     1.408776806311   119.10174208     0.04010080
 C     15   9   8     1.397997371242   120.27866710   359.85199362
 S      4   3   2     1.735688099861   119.48726557    80.15528355
 O     17   4   3     1.503673608201   110.11995166   348.93170470
 O     17   4   3     1.503624643985   109.30180702   229.85855269
 C     17   4   3     1.759266901297   109.16240738   108.63828150
 C     20  17   4     1.400710998029   120.71272283   110.20864676
 C     21  20  17     1.397799681643   120.21700262   180.63626326
 C     22  21  20     1.405843138476   120.47276271     0.18392607
 C     23  22  21     1.480286992444   120.30720945   180.27262880
 O     24  23  22     1.260127049150   120.57887297   179.46564929
 O     24  23  22     1.390618470322   120.45232747   359.55102794
 C     23  22  21     1.406856328841   118.98977005     0.23041431
 C     27  23  22     1.397719993418   120.42022744   359.78287203
 N      3   2   1     1.358863455245   120.12064007   182.33445626
 C     29   3   2     1.354854342725   122.51789895   359.17644812
 C     30  29   3     1.396553446883   120.11748080     0.05167042
 C     31  30  29     1.400774964082   120.49282258   180.19039742
 C     32  31  30     1.393429567650   119.40194232   180.20990314
 N     33  32  31     1.357648827937   120.12819942     0.00000000
 C     34  33  32     1.359432212359   122.01082212     0.00000000
 C     35  34  33     1.411061536575   120.42287146     0.00000000
 H      1   2   3     1.110315275046   109.69269980   241.40935906
 H      1   2   3     1.107306267480   113.13200104     1.64694085
 H      1   2   3     1.110569700649   109.65518867   121.01733836
 H      5   4   3     1.112185587031   109.78061147   310.77060483
 H      5   4   3     1.112127537650   110.39055847   193.46310477
 H      7   6   5     1.082831556614   120.36812478     2.84956619
 H      8   7   6     1.082609264693   119.51670251   180.10165509
 H     15   9   8     1.080993431987   121.30349651   179.40842520
 H     16  15   9     1.083606958265   119.29072473   178.85384714
 H     21  20  17     1.082309696898   120.56882543     0.50009534
 H     22  21  20     1.082820174360   118.78473469   180.20595489
 H     27  23  22     1.082840620775   120.75191900   179.75247609
 H     28  27  23     1.083015493887   119.48684524   179.68805486
 H     30  29   3     1.082854800977   119.13619087   180.14295493
 H     32  31  30     1.083427016462   121.06701856     0.15110622
 H     33  32  31     1.081973317601   120.09261644   179.96704102
 H     35  34  33     1.081143145009   118.04942284   180.11373335

---------------------------
INTERNAL COORDINATES (A.U.)
---------------------------
 C      0   0   0     0.000000000000     0.00000000     0.00000000
 C      1   0   0     2.858526066438     0.00000000     0.00000000
 C      2   1   0     2.674340858700   120.82760674     0.00000000
 N      3   2   1     2.707193219759   121.35049989     1.33024008
 C      4   3   2     2.764260745719   119.80858548   250.14661490
 C      5   4   3     2.841094350059   109.81408247    72.52655805
 C      6   5   4     2.649458486248   120.19225692    86.46676672
 C      7   6   5     2.641130251987   120.28847876   183.41693745
 C      8   7   6     2.645692782850   120.61362602     0.57915247
 O      9   8   7     2.653883466105   118.14677052   179.85378653
 C     10   9   8     2.694215864677   125.28700178   180.40230548
 F     11  10   9     2.615029851320   110.15922674    60.89101505
 F     11  10   9     2.610411880941   108.93734383   180.16959826
 F     11  10   9     2.614865353715   110.23619787   299.49907489
 C      9   8   7     2.662202347748   119.10174208     0.04010080
 C     15   9   8     2.641832167590   120.27866710   359.85199362
 S      4   3   2     3.279975162644   119.48726557    80.15528355
 O     17   4   3     2.841531314305   110.11995166   348.93170470
 O     17   4   3     2.841438785347   109.30180702   229.85855269
 C     17   4   3     3.324532639924   109.16240738   108.63828150
 C     20  17   4     2.646960179047   120.71272283   110.20864676
 C     21  20  17     2.641458588387   120.21700262   180.63626326
 C     22  21  20     2.656658518972   120.47276271     0.18392607
 C     23  22  21     2.797337015326   120.30720945   180.27262880
 O     24  23  22     2.381295016840   120.57887297   179.46564929
 O     24  23  22     2.627888065681   120.45232747   359.55102794
 C     23  22  21     2.658573171283   118.98977005     0.23041431
 C     27  23  22     2.641307999466   120.42022744   359.78287203
 N      3   2   1     2.567879783807   120.12064007   182.33445626
 C     29   3   2     2.560303659104   122.51789895   359.17644812
 C     30  29   3     2.639103545992   120.11748080     0.05167042
 C     31  30  29     2.647081057369   120.49282258   180.19039742
 C     32  31  30     2.633200269766   119.40194232   180.20990314
 N     33  32  31     2.565584470841   120.12819942     0.00000000
 C     34  33  32     2.568954578990   122.01082212     0.00000000
 C     35  34  33     2.666519862236   120.42287146     0.00000000
 H      1   2   3     2.098191792146   109.69269980   241.40935906
 H      1   2   3     2.092505591911   113.13200104     1.64694085
 H      1   2   3     2.098672586858   109.65518867   121.01733836
 H      5   4   3     2.101726169583   109.78061147   310.77060483
 H      5   4   3     2.101616472151   110.39055847   193.46310477
 H      7   6   5     2.046255091169   120.36812478     2.84956619
 H      8   7   6     2.045835020316   119.51670251   180.10165509
 H     15   9   8     2.042781539024   121.30349651   179.40842520
 H     16  15   9     2.047720387932   119.29072473   178.85384714
 H     21  20  17     2.045268919225   120.56882543     0.50009534
 H     22  21  20     2.046233581824   118.78473469   180.20595489
 H     27  23  22     2.046272219950   120.75191900   179.75247609
 H     28  27  23     2.046602682241   119.48684524   179.68805486
 H     30  29   3     2.046299016649   119.13619087   180.14295493
 H     32  31  30     2.047380347205   121.06701856     0.15110622
 H     33  32  31     2.044633254476   120.09261644   179.96704102
 H     35  34  33     2.043064455633   118.04942284   180.11373335

---------------------
BASIS SET INFORMATION
---------------------
There are 6 groups of distinct atoms

 Group   1 Type C   : 10s4p1d contracted to 3s2p1d pattern {631/31/1}
 Group   2 Type N   : 10s4p1d contracted to 3s2p1d pattern {631/31/1}
 Group   3 Type O   : 10s4p1d contracted to 3s2p1d pattern {631/31/1}
 Group   4 Type F   : 10s4p1d contracted to 3s2p1d pattern {631/31/1}
 Group   5 Type S   : 16s10p1d contracted to 4s3p1d pattern {6631/631/1}
 Group   6 Type H   : 4s contracted to 2s pattern {31}

Atom   0C    basis set group =>   1
Atom   1C    basis set group =>   1
Atom   2C    basis set group =>   1
Atom   3N    basis set group =>   2
Atom   4C    basis set group =>   1
Atom   5C    basis set group =>   1
Atom   6C    basis set group =>   1
Atom   7C    basis set group =>   1
Atom   8C    basis set group =>   1
Atom   9O    basis set group =>   3
Atom  10C    basis set group =>   1
Atom  11F    basis set group =>   4
Atom  12F    basis set group =>   4
Atom  13F    basis set group =>   4
Atom  14C    basis set group =>   1
Atom  15C    basis set group =>   1
Atom  16S    basis set group =>   5
Atom  17O    basis set group =>   3
Atom  18O    basis set group =>   3
Atom  19C    basis set group =>   1
Atom  20C    basis set group =>   1
Atom  21C    basis set group =>   1
Atom  22C    basis set group =>   1
Atom  23C    basis set group =>   1
Atom  24O    basis set group =>   3
Atom  25O    basis set group =>   3
Atom  26C    basis set group =>   1
Atom  27C    basis set group =>   1
Atom  28N    basis set group =>   2
Atom  29C    basis set group =>   1
Atom  30C    basis set group =>   1
Atom  31C    basis set group =>   1
Atom  32C    basis set group =>   1
Atom  33N    basis set group =>   2
Atom  34C    basis set group =>   1
Atom  35C    basis set group =>   1
Atom  36H    basis set group =>   6
Atom  37H    basis set group =>   6
Atom  38H    basis set group =>   6
Atom  39H    basis set group =>   6
Atom  40H    basis set group =>   6
Atom  41H    basis set group =>   6
Atom  42H    basis set group =>   6
Atom  43H    basis set group =>   6
Atom  44H    basis set group =>   6
Atom  45H    basis set group =>   6
Atom  46H    basis set group =>   6
Atom  47H    basis set group =>   6
Atom  48H    basis set group =>   6
Atom  49H    basis set group =>   6
Atom  50H    basis set group =>   6
Atom  51H    basis set group =>   6
Atom  52H    basis set group =>   6
---------------------------------
AUXILIARY/J BASIS SET INFORMATION
---------------------------------
There are 6 groups of distinct atoms

 Group   1 Type C   : 12s5p4d2f1g contracted to 6s4p3d1f1g pattern {711111/2111/211/2/1}
 Group   2 Type N   : 12s5p4d2f1g contracted to 6s4p3d1f1g pattern {711111/2111/211/2/1}
 Group   3 Type O   : 12s5p4d2f1g contracted to 6s4p3d1f1g pattern {711111/2111/211/2/1}
 Group   4 Type F   : 12s5p4d2f1g contracted to 6s4p3d1f1g pattern {711111/2111/211/2/1}
 Group   5 Type S   : 14s5p5d2f1g contracted to 8s4p3d1f1g pattern {71111111/2111/311/2/1}
 Group   6 Type H   : 5s2p1d contracted to 3s1p1d pattern {311/2/1}

Atom   0C    basis set group =>   1
Atom   1C    basis set group =>   1
Atom   2C    basis set group =>   1
Atom   3N    basis set group =>   2
Atom   4C    basis set group =>   1
Atom   5C    basis set group =>   1
Atom   6C    basis set group =>   1
Atom   7C    basis set group =>   1
Atom   8C    basis set group =>   1
Atom   9O    basis set group =>   3
Atom  10C    basis set group =>   1
Atom  11F    basis set group =>   4
Atom  12F    basis set group =>   4
Atom  13F    basis set group =>   4
Atom  14C    basis set group =>   1
Atom  15C    basis set group =>   1
Atom  16S    basis set group =>   5
Atom  17O    basis set group =>   3
Atom  18O    basis set group =>   3
Atom  19C    basis set group =>   1
Atom  20C    basis set group =>   1
Atom  21C    basis set group =>   1
Atom  22C    basis set group =>   1
Atom  23C    basis set group =>   1
Atom  24O    basis set group =>   3
Atom  25O    basis set group =>   3
Atom  26C    basis set group =>   1
Atom  27C    basis set group =>   1
Atom  28N    basis set group =>   2
Atom  29C    basis set group =>   1
Atom  30C    basis set group =>   1
Atom  31C    basis set group =>   1
Atom  32C    basis set group =>   1
Atom  33N    basis set group =>   2
Atom  34C    basis set group =>   1
Atom  35C    basis set group =>   1
Atom  36H    basis set group =>   6
Atom  37H    basis set group =>   6
Atom  38H    basis set group =>   6
Atom  39H    basis set group =>   6
Atom  40H    basis set group =>   6
Atom  41H    basis set group =>   6
Atom  42H    basis set group =>   6
Atom  43H    basis set group =>   6
Atom  44H    basis set group =>   6
Atom  45H    basis set group =>   6
Atom  46H    basis set group =>   6
Atom  47H    basis set group =>   6
Atom  48H    basis set group =>   6
Atom  49H    basis set group =>   6
Atom  50H    basis set group =>   6
Atom  51H    basis set group =>   6
Atom  52H    basis set group =>   6
------------------------------------------------------------------------------
                             ORCA STARTUP CALCULATIONS
                           -- RI-GTO INTEGRALS CHOSEN --
------------------------------------------------------------------------------
------------------------------------------------------------------------------
                   ___                                                        
                  /   \      - P O W E R E D   B Y -                         
                 /     \                                                     
                 |  |  |   _    _      __       _____    __    __             
                 |  |  |  | |  | |    /  \     |  _  \  |  |  /  |          
                  \  \/   | |  | |   /    \    | | | |  |  | /  /          
                 / \  \   | |__| |  /  /\  \   | |_| |  |  |/  /          
                |  |  |   |  __  | /  /__\  \  |    /   |      \           
                |  |  |   | |  | | |   __   |  |    \   |  |\   \          
                \     /   | |  | | |  |  |  |  | |\  \  |  | \   \       
                 \___/    |_|  |_| |__|  |__|  |_| \__\ |__|  \__/        
                                                                              
                      - O R C A' S   B I G   F R I E N D -                    
                                      &                                       
                       - I N T E G R A L  F E E D E R -                       
                                                                              
 v1 FN, 2020, v2 2021, v3 2022-2024                                           
------------------------------------------------------------------------------


----------------------
SHARK INTEGRAL PACKAGE
----------------------

Number of atoms                             ...     53
Number of basis functions                   ...    542
Number of shells                            ...    252
Maximum angular momentum                    ...      2
Integral batch strategy                     ... SHARK/LIBINT Hybrid
RI-J (if used) integral strategy            ... SPLIT-RIJ (Revised 2003 algorithm where possible)
Printlevel                                  ...      1
Contraction scheme used                     ... SEGMENTED contraction
Prescreening option                         ... SCHWARTZ
   Thresh                                   ... 1.000e-10
   Tcut                                     ... 1.000e-11
   Tpresel                                  ... 1.000e-11 
Coulomb Range Separation                    ... NOT USED
Exchange Range Separation                   ... NOT USED
Multipole approximations                    ... NOT USED
Finite Nucleus Model                        ... NOT USED
CABS basis                                  ... NOT available
Auxiliary Coulomb fitting basis             ... AVAILABLE
   # of basis functions in Aux-J            ...   1953
   # of shells in Aux-J                     ...    627
   Maximum angular momentum in Aux-J        ...      4
Auxiliary J/K fitting basis                 ... NOT available
Auxiliary Correlation fitting basis         ... NOT available
Auxiliary 'external' fitting basis          ... NOT available

Checking pre-screening integrals            ... done (  0.0 sec) Dimension = 252
Check shell pair data                       ... done (  0.0 sec)
Shell pair information
Shell pair cut-off parameter TPreSel        ...   1.0e-11
Total number of shell pairs                 ...     31878
Shell pairs after pre-screening             ...     16999
Total number of primitive shell pairs       ...    193347
Primitive shell pairs kept                  ...     52211
          la=0 lb=0:   5232 shell pairs
          la=1 lb=0:   6068 shell pairs
          la=1 lb=1:   1760 shell pairs
          la=2 lb=0:   2286 shell pairs
          la=2 lb=1:   1395 shell pairs
          la=2 lb=2:    258 shell pairs

Calculating one electron integrals          ... done (  0.2 sec)
Calculating RI/J V-Matrix + Cholesky decomp.... done (  0.5 sec)
Calculating Nuclear repulsion               ... done (  0.0 sec) ENN=   3978.867820357444 Eh

Diagonalization of the overlap matrix:
Smallest eigenvalue                        ... 4.653e-04
Time for diagonalization                   ...    0.038 sec
Threshold for overlap eigenvalues          ... 1.000e-07
Number of eigenvalues below threshold      ... 0
Time for construction of square roots      ...    0.046 sec
Total time needed                          ...    0.098 sec

-------------------
DFT GRID GENERATION
-------------------

General Integration Accuracy     IntAcc      ... 4.388
Radial Grid Type                 RadialGrid  ... OptM3 with GC (2021)
Angular Grid (max. ang.)         AngularGrid ... 4 (Lebedev-302)
Angular grid pruning method      GridPruning ... 4 (adaptive)
Weight generation scheme         WeightScheme... mBecke (2022)
Basis function cutoff            BFCut       ... 1.0000e-10
Integration weight cutoff        WCut        ... 1.0000e-14
Partially contracted basis set               ... off
Rotationally invariant grid construction     ... off
Angular grids for H and He will be reduced by one unit

Total number of grid points                  ...   270456
Total number of batches                      ...     4251
Average number of points per batch           ...       63
Average number of grid points per atom       ...     5103

--------------------
COSX GRID GENERATION
--------------------

GRIDX 1
-------
General Integration Accuracy     IntAcc      ... 3.816
Radial Grid Type                 RadialGrid  ... OptM3 with GC (2021)
Angular Grid (max. ang.)         AngularGrid ... 1 (Lebedev-50)
Angular grid pruning method      GridPruning ... 4 (adaptive)
Weight generation scheme         WeightScheme... mBecke (2022)
Basis function cutoff            BFCut       ... 1.0000e-10
Integration weight cutoff        WCut        ... 1.0000e-14
Partially contracted basis set               ... on
Rotationally invariant grid construction     ... off
Angular grids for H and He will be reduced by one unit

Total number of grid points                  ...    35166
Total number of batches                      ...      302
Average number of points per batch           ...      116
Average number of grid points per atom       ...      664
UseSFitting                                  ... on

GRIDX 2
-------
General Integration Accuracy     IntAcc      ... 4.020
Radial Grid Type                 RadialGrid  ... OptM3 with GC (2021)
Angular Grid (max. ang.)         AngularGrid ... 2 (Lebedev-110)
Angular grid pruning method      GridPruning ... 4 (adaptive)
Weight generation scheme         WeightScheme... mBecke (2022)
Basis function cutoff            BFCut       ... 1.0000e-10
Integration weight cutoff        WCut        ... 1.0000e-14
Partially contracted basis set               ... on
Rotationally invariant grid construction     ... off
Angular grids for H and He will be reduced by one unit

Total number of grid points                  ...    75707
Total number of batches                      ...      621
Average number of points per batch           ...      121
Average number of grid points per atom       ...     1428
UseSFitting                                  ... on

GRIDX 3
-------
General Integration Accuracy     IntAcc      ... 4.338
Radial Grid Type                 RadialGrid  ... OptM3 with GC (2021)
Angular Grid (max. ang.)         AngularGrid ... 3 (Lebedev-194)
Angular grid pruning method      GridPruning ... 4 (adaptive)
Weight generation scheme         WeightScheme... mBecke (2022)
Basis function cutoff            BFCut       ... 1.0000e-10
Integration weight cutoff        WCut        ... 1.0000e-14
Partially contracted basis set               ... on
Rotationally invariant grid construction     ... off
Angular grids for H and He will be reduced by one unit

Total number of grid points                  ...   166388
Total number of batches                      ...     1326
Average number of points per batch           ...      125
Average number of grid points per atom       ...     3139
UseSFitting                                  ... on
Initializing property integral containers    ... done (  0.0 sec)

SHARK setup successfully completed in  10.4 seconds

Maximum memory used throughout the entire STARTUP-calculation: 117.7 MB
-------------------------------------------------------------------------------
                                 ORCA GUESS
                   Start orbitals & Density for SCF / CASSCF
-------------------------------------------------------------------------------

------------
SCF SETTINGS
------------
Hamiltonian:
 Density Functional     Method          .... DFT(GTOs)
 Exchange Functional    Exchange        .... B88
   X-Alpha parameter    XAlpha          ....  0.666667
   Becke's b parameter  XBeta           ....  0.004200
 Correlation Functional Correlation     .... LYP
 LDA part of GGA corr.  LDAOpt          .... VWN-5
 Gradients option       PostSCFGGA      .... off
 Hybrid DFT is turned on
   Fraction HF Exchange ScalHFX         ....  0.200000
   Scaling of DF-GGA-X  ScalDFX         ....  0.720000
   Scaling of DF-GGA-C  ScalDFC         ....  0.810000
   Scaling of DF-LDA-C  ScalLDAC        ....  1.000000
   Perturbative correction              ....  0.000000
   NL short-range parameter             ....  4.800000
 RI-approximation to the Coulomb term is turned on
   Number of AuxJ basis functions       .... 1953
   RIJ-COSX (HFX calculated with COS-X)).... on


General Settings:
 Integral files         IntName         .... /home/nmrbox/aojoawo/Documents/ERDOS/inputs/CHEMBL3687330
 Hartree-Fock type      HFTyp           .... RHF
 Total Charge           Charge          ....   -1
 Multiplicity           Mult            ....    1
 Number of Electrons    NEL             ....  266
 Basis Dimension        Dim             ....  542
 Nuclear Repulsion      ENuc            ....   3978.8678203574 Eh

Convergence Acceleration:
 AO-DIIS                CNVDIIS         .... on
   Start iteration      DIISMaxIt       ....    12
   Startup error        DIISStart       ....  0.200000
   # of expansion vecs  DIISMaxEq       ....     5
   Bias factor          DIISBfac        ....   1.050
   Max. coefficient     DIISMaxC        ....  10.000
 MO-DIIS                CNVKDIIS        .... off
 Trust-Rad. Augm. Hess. CNVTRAH         .... auto
   Auto Start mean grad. ratio tolernc. ....  1.125000
   Auto Start start iteration           ....    50
   Auto Start num. interpolation iter.  ....    10
   Max. Number of Micro iterations      ....    24
   Max. Number of Macro iterations      .... Maxiter - #DIIS iter
   Number of Davidson start vectors     ....     2
   Converg. threshold    (grad. norm)   ....   5.000e-05
   Grad. Scal. Fac. for Micro threshold ....   0.100
   Minimum threshold for Micro iter.    ....   1.000e-02
   NR start threshold (gradient norm)   ....   1.000e-04
   Initial trust radius                 ....   0.400
   Minimum AH scaling param. (alpha)    ....   1.000
   Maximum AH scaling param. (alpha)    .... 1000.000
   Quad. conv. algorithm                .... NR
   White noise on init. David. guess    .... on
   Maximum white noise                  ....   0.010
   Pseudo random numbers                .... off
   Inactive MOs                         .... canonical
   Orbital update algorithm             .... Taylor
   Preconditioner                       .... Diag
   Full preconditioner red. dimension   ....   250
 SOSCF                  CNVSOSCF        .... on
   Start iteration      SOSCFMaxIt      ....   150
   Startup grad/error   SOSCFStart      ....  0.003300
   Hessian update       SOSCFHessUp     .... L-BFGS
 Level Shifting         CNVShift        .... on
   Level shift para.    LevelShift      ....    0.2500
   Turn off err/grad.   ShiftErr        ....    0.0010
 Zerner damping         CNVZerner       .... off
 Static damping         CNVDamp         .... on
   Fraction old density DampFac         ....    0.7000
   Max. Damping (<1)    DampMax         ....    0.9800
   Min. Damping (>=0)   DampMin         ....    0.0000
   Turn off err/grad.   DampErr         ....    0.1000

SCF Procedure:
 Maximum # iterations   MaxIter         ....   125
 SCF integral mode      SCFMode         .... Direct
   Integral package                     .... SHARK and LIBINT hybrid scheme
 Reset frequency        DirectResetFreq ....    20
 Integral Threshold     Thresh          ....  1.000e-10 Eh
 Primitive CutOff       TCut            ....  1.000e-11 Eh

Convergence Tolerance:
 Convergence Check Mode ConvCheckMode   .... Total+1el-Energy
 Convergence forced     ConvForced      .... 0
 Energy Change          TolE            ....  1.000e-06 Eh
 1-El. energy change                    ....  1.000e-03 Eh
 Orbital Gradient       TolG            ....  5.000e-05
 Orbital Rotation angle TolX            ....  5.000e-05
 DIIS Error             TolErr          ....  1.000e-06

------------------------------
INITIAL GUESS: MODEL POTENTIAL
------------------------------
Loading Hartree-Fock densities                     ... done
Calculating cut-offs                               ... done
Initializing the effective Hamiltonian             ... done
Setting up the integral package (SHARK)            ... done
Starting the Coulomb interaction                   ... done (   2.5 sec)
Making the grid                                    ... done (   1.3 sec)
Mapping shells                                     ... done
Starting the XC term evaluation                    ... done (   1.0 sec)
  promolecular density results
     # of electrons  =    264.984435474
     EX              =   -244.259877432
     EC              =     -9.384264553
     EX+EC           =   -253.644141985
Transforming the Hamiltonian                       ... done (   0.0 sec)
Diagonalizing the Hamiltonian                      ... done (   0.0 sec)
Back transforming the eigenvectors                 ... done (   0.0 sec)
Now organizing SCF variables                       ... done
                      ------------------
                      INITIAL GUESS DONE (   4.9 sec)
                      ------------------
             **** ENERGY FILE WAS UPDATED (/home/nmrbox/aojoawo/Documents/ERDOS/inputs/CHEMBL3687330.en.tmp) ****
Finished Guess after   5.3 sec
Maximum memory used throughout the entire GUESS-calculation: 65.3 MB

-------------------------------------------------------------------------------------------
                                      ORCA LEAN-SCF
                              memory conserving SCF solver
-------------------------------------------------------------------------------------------

----------------------------------------D-I-I-S--------------------------------------------
Iteration    Energy (Eh)           Delta-E    RMSDP     MaxDP     DIISErr   Damp  Time(sec)
-------------------------------------------------------------------------------------------
               ***  Starting incremental Fock matrix formation  ***
    1    -2160.6977275828662641     0.00e+00  2.68e-03  1.87e-01  3.24e-01  0.700  53.7
Warning: op=0 Small HOMO/LUMO gap (  -0.072) - skipping pre-diagonalization
         Will do a full diagonalization
    2    -2161.2272885737988872    -5.30e-01  1.62e-03  9.68e-02  1.21e-01  0.700  23.6
                               ***Turning on AO-DIIS***
    3    -2161.4163335140997333    -1.89e-01  6.30e-04  1.92e-02  3.43e-02  0.700  24.4
    4    -2161.5337107721347820    -1.17e-01  1.05e-03  2.42e-02  1.65e-02  0.000  21.2
    5    -2161.7978992205594295    -2.64e-01  2.68e-04  1.17e-02  7.63e-03  0.000  22.4
                              *** Initializing SOSCF ***
---------------------------------------S-O-S-C-F--------------------------------------
Iteration    Energy (Eh)           Delta-E    RMSDP     MaxDP     MaxGrad    Time(sec)
--------------------------------------------------------------------------------------
    6    -2161.7995454402412179    -1.65e-03  9.85e-05  3.74e-03  2.28e-03    19.3
               *** Restarting incremental Fock matrix formation ***
    7    -2161.7997649108851874    -2.19e-04  8.95e-05  4.48e-03  8.70e-04    51.9
    8    -2161.7997591076214121     5.80e-06  5.14e-05  2.07e-03  1.02e-03    32.3
    9    -2161.7998568631660419    -9.78e-05  2.99e-05  1.62e-03  3.28e-04    28.9
   10    -2161.7998593216666450    -2.46e-06  2.09e-05  1.02e-03  3.34e-04    24.9
   11    -2161.7998676486672593    -8.33e-06  1.53e-05  7.11e-04  1.57e-04    22.6
   12    -2161.7998685230299998    -8.74e-07  1.04e-05  4.61e-04  1.76e-04    22.1
                 **** Energy Check signals convergence ****

               *****************************************************
               *                     SUCCESS                       *
               *           SCF CONVERGED AFTER  12 CYCLES          *
               *****************************************************

Recomputing exchange energy using gridx3       ... done (   89.932 sec)
Old exchange energy                            :    -49.362162040 Eh
New exchange energy                            :    -49.362202513 Eh
Exchange energy change after final integration :     -0.000040472 Eh
Total energy after final integration           :  -2161.799908995 Eh
             **** ENERGY FILE WAS UPDATED (/home/nmrbox/aojoawo/Documents/ERDOS/inputs/CHEMBL3687330.en.tmp) ****

----------------
TOTAL SCF ENERGY
----------------

Total Energy       :      -2161.79990899547693 Eh          -58825.56616 eV

Components:
Nuclear Repulsion  :       3978.86782035744409 Eh          108270.49776 eV
Electronic Energy  :      -6140.66768888047409 Eh         -167096.06281 eV
One Electron Energy:     -10905.48036911293457 Eh         -296753.20749 eV
Two Electron Energy:       4764.81268023246048 Eh          129657.14467 eV

Virial components:
Potential Energy   :      -4311.37917215726884 Eh         -117318.59164 eV
Kinetic Energy     :       2149.57926316179191 Eh           58493.02548 eV
Virial Ratio       :          2.00568513385066

DFT components:
N(Alpha)           :      132.999896902405 electrons
N(Beta)            :      132.999896902405 electrons
N(Total)           :      265.999793804809 electrons
E(X)               :     -196.305599006033 Eh       
E(C)               :      -11.052327744032 Eh       
E(XC)              :     -207.357926750066 Eh       

---------------
SCF CONVERGENCE
---------------

  Last Energy change         ...    8.7436e-07  Tolerance :   1.0000e-06
  Last MAX-Density change    ...    4.6146e-04  Tolerance :   1.0000e-05
  Last RMS-Density change    ...    1.0366e-05  Tolerance :   1.0000e-06
  Last DIIS Error            ...    2.2778e-03  Tolerance :   1.0000e-06
  Last Orbital Gradient      ...    1.7617e-04  Tolerance :   5.0000e-05
  Last Orbital Rotation      ...    1.5682e-03  Tolerance :   5.0000e-05


----------------
ORBITAL ENERGIES
----------------

  NO   OCC          E(Eh)            E(eV) 
   0   2.0000     -89.008039     -2422.0319 
   1   2.0000     -24.696650      -672.0300 
   2   2.0000     -24.692752      -671.9239 
   3   2.0000     -24.692309      -671.9119 
   4   2.0000     -19.161947      -521.4231 
   5   2.0000     -19.040672      -518.1230 
   6   2.0000     -19.039120      -518.0808 
   7   2.0000     -18.907399      -514.4965 
   8   2.0000     -18.886729      -513.9340 
   9   2.0000     -14.291905      -388.9025 
  10   2.0000     -14.280061      -388.5802 
  11   2.0000     -14.277258      -388.5039 
  12   2.0000     -10.457025      -284.5501 
  13   2.0000     -10.212483      -277.8958 
  14   2.0000     -10.198357      -277.5114 
  15   2.0000     -10.173824      -276.8438 
  16   2.0000     -10.169748      -276.7329 
  17   2.0000     -10.169176      -276.7173 
  18   2.0000     -10.162599      -276.5384 
  19   2.0000     -10.152702      -276.2691 
  20   2.0000     -10.151275      -276.2302 
  21   2.0000     -10.150530      -276.2100 
  22   2.0000     -10.145398      -276.0703 
  23   2.0000     -10.140534      -275.9380 
  24   2.0000     -10.139500      -275.9098 
  25   2.0000     -10.137815      -275.8640 
  26   2.0000     -10.136179      -275.8194 
  27   2.0000     -10.134250      -275.7670 
  28   2.0000     -10.118285      -275.3325 
  29   2.0000     -10.114783      -275.2372 
  30   2.0000     -10.095270      -274.7063 
  31   2.0000     -10.094433      -274.6835 
  32   2.0000     -10.092691      -274.6361 
  33   2.0000     -10.076138      -274.1857 
  34   2.0000     -10.075285      -274.1625 
  35   2.0000     -10.073528      -274.1146 
  36   2.0000      -8.043850      -218.8843 
  37   2.0000      -6.009290      -163.5211 
  38   2.0000      -6.007115      -163.4619 
  39   2.0000      -6.005752      -163.4248 
  40   2.0000      -1.258248       -34.2387 
  41   2.0000      -1.179459       -32.0947 
  42   2.0000      -1.178418       -32.0664 
  43   2.0000      -1.031949       -28.0808 
  44   2.0000      -0.997312       -27.1382 
  45   2.0000      -0.900230       -24.4965 
  46   2.0000      -0.879356       -23.9285 
  47   2.0000      -0.876680       -23.8557 
  48   2.0000      -0.845493       -23.0070 
  49   2.0000      -0.816501       -22.2181 
  50   2.0000      -0.805544       -21.9200 
  51   2.0000      -0.765646       -20.8343 
  52   2.0000      -0.758753       -20.6467 
  53   2.0000      -0.749427       -20.3930 
  54   2.0000      -0.725829       -19.7508 
  55   2.0000      -0.701279       -19.0828 
  56   2.0000      -0.698005       -18.9937 
  57   2.0000      -0.695176       -18.9167 
  58   2.0000      -0.673813       -18.3354 
  59   2.0000      -0.662517       -18.0280 
  60   2.0000      -0.644504       -17.5379 
  61   2.0000      -0.641452       -17.4548 
  62   2.0000      -0.622352       -16.9351 
  63   2.0000      -0.603754       -16.4290 
  64   2.0000      -0.598936       -16.2979 
  65   2.0000      -0.579497       -15.7689 
  66   2.0000      -0.568429       -15.4677 
  67   2.0000      -0.553249       -15.0547 
  68   2.0000      -0.549984       -14.9658 
  69   2.0000      -0.544680       -14.8215 
  70   2.0000      -0.542601       -14.7649 
  71   2.0000      -0.517010       -14.0686 
  72   2.0000      -0.508253       -13.8303 
  73   2.0000      -0.502691       -13.6789 
  74   2.0000      -0.478032       -13.0079 
  75   2.0000      -0.464683       -12.6447 
  76   2.0000      -0.459055       -12.4915 
  77   2.0000      -0.445457       -12.1215 
  78   2.0000      -0.439287       -11.9536 
  79   2.0000      -0.428477       -11.6594 
  80   2.0000      -0.424083       -11.5399 
  81   2.0000      -0.422895       -11.5076 
  82   2.0000      -0.419037       -11.4026 
  83   2.0000      -0.412663       -11.2291 
  84   2.0000      -0.409342       -11.1388 
  85   2.0000      -0.398674       -10.8485 
  86   2.0000      -0.396760       -10.7964 
  87   2.0000      -0.396195       -10.7810 
  88   2.0000      -0.389185       -10.5903 
  89   2.0000      -0.385631       -10.4935 
  90   2.0000      -0.384281       -10.4568 
  91   2.0000      -0.373004       -10.1500 
  92   2.0000      -0.372006       -10.1228 
  93   2.0000      -0.371001       -10.0955 
  94   2.0000      -0.370437       -10.0801 
  95   2.0000      -0.361017        -9.8238 
  96   2.0000      -0.359494        -9.7823 
  97   2.0000      -0.354972        -9.6593 
  98   2.0000      -0.345862        -9.4114 
  99   2.0000      -0.342815        -9.3285 
 100   2.0000      -0.337228        -9.1764 
 101   2.0000      -0.333109        -9.0644 
 102   2.0000      -0.325996        -8.8708 
 103   2.0000      -0.319285        -8.6882 
 104   2.0000      -0.317899        -8.6505 
 105   2.0000      -0.313333        -8.5262 
 106   2.0000      -0.310893        -8.4598 
 107   2.0000      -0.303834        -8.2677 
 108   2.0000      -0.293623        -7.9899 
 109   2.0000      -0.290738        -7.9114 
 110   2.0000      -0.289191        -7.8693 
 111   2.0000      -0.275008        -7.4833 
 112   2.0000      -0.248499        -6.7620 
 113   2.0000      -0.245633        -6.6840 
 114   2.0000      -0.239090        -6.5060 
 115   2.0000      -0.231594        -6.3020 
 116   2.0000      -0.228773        -6.2252 
 117   2.0000      -0.217583        -5.9207 
 118   2.0000      -0.212944        -5.7945 
 119   2.0000      -0.204554        -5.5662 
 120   2.0000      -0.204166        -5.5556 
 121   2.0000      -0.199370        -5.4251 
 122   2.0000      -0.194510        -5.2929 
 123   2.0000      -0.189458        -5.1554 
 124   2.0000      -0.186238        -5.0678 
 125   2.0000      -0.184718        -5.0264 
 126   2.0000      -0.174958        -4.7609 
 127   2.0000      -0.169350        -4.6082 
 128   2.0000      -0.150633        -4.0989 
 129   2.0000      -0.131092        -3.5672 
 130   2.0000      -0.061493        -1.6733 
 131   2.0000      -0.039729        -1.0811 
 132   2.0000      -0.023143        -0.6297 
 133   0.0000      -0.013279        -0.3613 
 134   0.0000       0.018134         0.4934 
 135   0.0000       0.043728         1.1899 
 136   0.0000       0.046930         1.2770 
 137   0.0000       0.064517         1.7556 
 138   0.0000       0.072763         1.9800 
 139   0.0000       0.100155         2.7254 
 140   0.0000       0.110638         3.0106 
 141   0.0000       0.129103         3.5131 
 142   0.0000       0.139985         3.8092 
 143   0.0000       0.150729         4.1015 
*Only the first 10 virtual orbitals were printed.

                    ********************************
                    * MULLIKEN POPULATION ANALYSIS *
                    ********************************

-----------------------
MULLIKEN ATOMIC CHARGES
-----------------------
   0 C :   -0.546173
   1 C :    0.130407
   2 C :    0.320308
   3 N :   -0.612538
   4 C :   -0.240784
   5 C :    0.163343
   6 C :   -0.163025
   7 C :   -0.174061
   8 C :    0.346665
   9 O :   -0.547231
  10 C :    1.083170
  11 F :   -0.293170
  12 F :   -0.283740
  13 F :   -0.293551
  14 C :   -0.193687
  15 C :   -0.173342
  16 S :    1.208149
  17 O :   -0.562387
  18 O :   -0.575297
  19 C :   -0.145957
  20 C :   -0.160897
  21 C :   -0.150224
  22 C :    0.105402
  23 C :    0.411325
  24 O :   -0.551492
  25 O :   -0.657280
  26 C :   -0.158313
  27 C :   -0.145107
  28 N :   -0.380865
  29 C :   -0.052627
  30 C :    0.159605
  31 C :   -0.213676
  32 C :    0.012387
  33 N :   -0.372514
  34 C :   -0.036102
  35 C :    0.089961
  36 H :    0.172729
  37 H :    0.208346
  38 H :    0.149678
  39 H :    0.172610
  40 H :    0.183133
  41 H :    0.170974
  42 H :    0.143403
  43 H :    0.143095
  44 H :    0.141922
  45 H :    0.144494
  46 H :    0.152087
  47 H :    0.147186
  48 H :    0.145032
  49 H :    0.150453
  50 H :    0.131598
  51 H :    0.139473
  52 H :    0.157102
Sum of atomic charges:   -1.0000000

--------------------------------
MULLIKEN REDUCED ORBITAL CHARGES
--------------------------------
  0 C s       :     3.320370  s :     3.320370
      pz      :     1.052450  p :     3.191978
      px      :     1.029780
      py      :     1.109748
      dz2     :     0.009343  d :     0.033824
      dxz     :     0.005829
      dyz     :     0.004501
      dx2y2   :     0.009704
      dxy     :     0.004446

  1 C s       :     3.182674  s :     3.182674
      pz      :     0.879068  p :     2.646912
      px      :     0.891215
      py      :     0.876629
      dz2     :     0.008782  d :     0.040007
      dxz     :     0.005540
      dyz     :     0.009648
      dx2y2   :     0.008489
      dxy     :     0.007548

  2 C s       :     3.048358  s :     3.048358
      pz      :     0.911516  p :     2.557318
      px      :     0.943008
      py      :     0.702795
      dz2     :     0.014682  d :     0.074015
      dxz     :     0.008687
      dyz     :     0.019438
      dx2y2   :     0.015671
      dxy     :     0.015536

  3 N s       :     3.595648  s :     3.595648
      pz      :     1.400130  p :     3.983989
      px      :     1.458484
      py      :     1.125375
      dz2     :     0.005760  d :     0.032901
      dxz     :     0.004826
      dyz     :     0.007677
      dx2y2   :     0.007229
      dxy     :     0.007408

  4 C s       :     3.261519  s :     3.261519
      pz      :     0.936761  p :     2.923883
      px      :     0.922312
      py      :     1.064811
      dz2     :     0.015267  d :     0.055382
      dxz     :     0.011471
      dyz     :     0.008226
      dx2y2   :     0.012790
      dxy     :     0.007628

  5 C s       :     3.116323  s :     3.116323
      pz      :     0.925787  p :     2.680334
      px      :     0.861884
      py      :     0.892663
      dz2     :     0.005595  d :     0.040000
      dxz     :     0.006958
      dyz     :     0.005763
      dx2y2   :     0.010916
      dxy     :     0.010767

  6 C s       :     3.207474  s :     3.207474
      pz      :     0.962789  p :     2.919242
      px      :     0.947952
      py      :     1.008501
      dz2     :     0.004934  d :     0.036309
      dxz     :     0.007094
      dyz     :     0.004947
      dx2y2   :     0.008660
      dxy     :     0.010674

  7 C s       :     3.195975  s :     3.195975
      pz      :     1.010014  p :     2.943443
      px      :     0.974709
      py      :     0.958719
      dz2     :     0.003087  d :     0.034644
      dxz     :     0.007534
      dyz     :     0.005818
      dx2y2   :     0.007558
      dxy     :     0.010647

  8 C s       :     3.072670  s :     3.072670
      pz      :     0.960588  p :     2.515589
      px      :     0.628993
      py      :     0.926008
      dz2     :     0.008679  d :     0.065075
      dxz     :     0.014267
      dyz     :     0.006778
      dx2y2   :     0.020070
      dxy     :     0.015281

  9 O s       :     3.883869  s :     3.883869
      pz      :     1.760048  p :     4.637334
      px      :     1.318619
      py      :     1.558667
      dz2     :     0.003591  d :     0.026028
      dxz     :     0.005789
      dyz     :     0.003911
      dx2y2   :     0.006256
      dxy     :     0.006482

 10 C s       :     2.716607  s :     2.716607
      pz      :     0.659263  p :     2.035683
      px      :     0.674313
      py      :     0.702107
      dz2     :     0.040001  d :     0.164540
      dxz     :     0.029250
      dyz     :     0.028386
      dx2y2   :     0.032309
      dxy     :     0.034594

 11 F s       :     3.981863  s :     3.981863
      pz      :     1.846469  p :     5.295111
      px      :     1.860097
      py      :     1.588545
      dz2     :     0.002187  d :     0.016195
      dxz     :     0.001246
      dyz     :     0.004467
      dx2y2   :     0.004145
      dxy     :     0.004150

 12 F s       :     3.978321  s :     3.978321
      pz      :     1.850394  p :     5.289374
      px      :     1.541965
      py      :     1.897016
      dz2     :     0.002162  d :     0.016045
      dxz     :     0.004859
      dyz     :     0.000817
      dx2y2   :     0.004923
      dxy     :     0.003284

 13 F s       :     3.981785  s :     3.981785
      pz      :     1.475905  p :     5.295588
      px      :     1.910558
      py      :     1.909124
      dz2     :     0.008503  d :     0.016178
      dxz     :     0.003660
      dyz     :     0.003500
      dx2y2   :     0.000276
      dxy     :     0.000239

 14 C s       :     3.179278  s :     3.179278
      pz      :     1.005035  p :     2.979823
      px      :     0.996800
      py      :     0.977988
      dz2     :     0.004939  d :     0.034586
      dxz     :     0.006656
      dyz     :     0.004655
      dx2y2   :     0.007148
      dxy     :     0.011188

 15 C s       :     3.200691  s :     3.200691
      pz      :     1.000034  p :     2.936269
      px      :     0.956734
      py      :     0.979501
      dz2     :     0.003024  d :     0.036382
      dxz     :     0.007330
      dyz     :     0.006354
      dx2y2   :     0.009272
      dxy     :     0.010402

 16 S s       :     5.222878  s :     5.222878
      pz      :     3.040364  p :     9.037776
      px      :     3.026081
      py      :     2.971332
      dz2     :     0.079935  d :     0.531197
      dxz     :     0.121695
      dyz     :     0.123718
      dx2y2   :     0.089143
      dxy     :     0.116706

 17 O s       :     3.924706  s :     3.924706
      pz      :     1.406817  p :     4.611210
      px      :     1.623393
      py      :     1.581000
      dz2     :     0.006895  d :     0.026471
      dxz     :     0.005774
      dyz     :     0.006367
      dx2y2   :     0.003936
      dxy     :     0.003500

 18 O s       :     3.923386  s :     3.923386
      pz      :     1.552856  p :     4.625976
      px      :     1.596656
      py      :     1.476464
      dz2     :     0.004629  d :     0.025935
      dxz     :     0.003845
      dyz     :     0.005923
      dx2y2   :     0.005870
      dxy     :     0.005668

 19 C s       :     3.210655  s :     3.210655
      pz      :     1.030898  p :     2.896651
      px      :     0.914607
      py      :     0.951147
      dz2     :     0.003519  d :     0.038651
      dxz     :     0.006253
      dyz     :     0.008868
      dx2y2   :     0.009293
      dxy     :     0.010718

 20 C s       :     3.205951  s :     3.205951
      pz      :     0.986025  p :     2.918307
      px      :     1.006416
      py      :     0.925866
      dz2     :     0.005062  d :     0.036639
      dxz     :     0.004910
      dyz     :     0.007895
      dx2y2   :     0.008243
      dxy     :     0.010529

 21 C s       :     3.218784  s :     3.218784
      pz      :     0.942424  p :     2.895972
      px      :     0.952056
      py      :     1.001492
      dz2     :     0.005691  d :     0.035469
      dxz     :     0.005484
      dyz     :     0.005392
      dx2y2   :     0.011252
      dxy     :     0.007649

 22 C s       :     3.211006  s :     3.211006
      pz      :     0.903381  p :     2.643616
      px      :     0.907582
      py      :     0.832653
      dz2     :     0.005591  d :     0.039976
      dxz     :     0.005671
      dyz     :     0.008099
      dx2y2   :     0.010331
      dxy     :     0.010284

 23 C s       :     3.003304  s :     3.003304
      pz      :     0.860111  p :     2.473100
      px      :     0.854958
      py      :     0.758030
      dz2     :     0.010843  d :     0.112272
      dxz     :     0.013558
      dyz     :     0.024525
      dx2y2   :     0.032297
      dxy     :     0.031049

 24 O s       :     3.843553  s :     3.843553
      pz      :     1.533779  p :     4.684952
      px      :     1.481803
      py      :     1.669370
      dz2     :     0.003775  d :     0.022987
      dxz     :     0.004706
      dyz     :     0.003695
      dx2y2   :     0.005130
      dxy     :     0.005681

 25 O s       :     3.910884  s :     3.910884
      pz      :     1.634158  p :     4.729304
      px      :     1.738801
      py      :     1.356346
      dz2     :     0.002238  d :     0.017092
      dxz     :     0.000332
      dyz     :     0.004700
      dx2y2   :     0.006197
      dxy     :     0.003624

 26 C s       :     3.216698  s :     3.216698
      pz      :     0.945334  p :     2.906215
      px      :     0.940505
      py      :     1.020376
      dz2     :     0.004610  d :     0.035399
      dxz     :     0.004943
      dyz     :     0.007202
      dx2y2   :     0.007880
      dxy     :     0.010763

 27 C s       :     3.197007  s :     3.197007
      pz      :     0.968033  p :     2.911496
      px      :     0.944932
      py      :     0.998532
      dz2     :     0.006741  d :     0.036603
      dxz     :     0.005446
      dyz     :     0.005675
      dx2y2   :     0.011408
      dxy     :     0.007333

 28 N s       :     3.690490  s :     3.690490
      pz      :     1.352646  p :     3.654994
      px      :     1.179917
      py      :     1.122431
      dz2     :     0.007361  d :     0.035381
      dxz     :     0.005831
      dyz     :     0.007631
      dx2y2   :     0.007524
      dxy     :     0.007034

 29 C s       :     3.159977  s :     3.159977
      pz      :     0.967848  p :     2.839147
      px      :     0.968330
      py      :     0.902970
      dz2     :     0.007635  d :     0.053503
      dxz     :     0.005433
      dyz     :     0.018180
      dx2y2   :     0.010057
      dxy     :     0.012198

 30 C s       :     3.127439  s :     3.127439
      pz      :     0.879415  p :     2.670841
      px      :     0.921958
      py      :     0.869467
      dz2     :     0.008495  d :     0.042115
      dxz     :     0.005667
      dyz     :     0.011420
      dx2y2   :     0.007955
      dxy     :     0.008579

 31 C s       :     3.220918  s :     3.220918
      pz      :     0.979261  p :     2.957204
      px      :     0.986326
      py      :     0.991618
      dz2     :     0.005984  d :     0.035553
      dxz     :     0.005319
      dyz     :     0.010488
      dx2y2   :     0.006334
      dxy     :     0.007428

 32 C s       :     3.139046  s :     3.139046
      pz      :     0.910356  p :     2.795085
      px      :     0.939448
      py      :     0.945280
      dz2     :     0.013567  d :     0.053482
      dxz     :     0.008956
      dyz     :     0.011361
      dx2y2   :     0.012823
      dxy     :     0.006774

 33 N s       :     3.657704  s :     3.657704
      pz      :     1.346244  p :     3.679505
      px      :     1.191468
      py      :     1.141794
      dz2     :     0.007569  d :     0.035304
      dxz     :     0.006021
      dyz     :     0.007317
      dx2y2   :     0.007859
      dxy     :     0.006538

 34 C s       :     3.170943  s :     3.170943
      pz      :     0.976573  p :     2.812515
      px      :     0.954972
      py      :     0.880971
      dz2     :     0.007561  d :     0.052644
      dxz     :     0.005597
      dyz     :     0.017541
      dx2y2   :     0.010014
      dxy     :     0.011932

 35 C s       :     3.144642  s :     3.144642
      pz      :     0.878147  p :     2.724999
      px      :     0.938507
      py      :     0.908345
      dz2     :     0.007765  d :     0.040397
      dxz     :     0.005421
      dyz     :     0.011370
      dx2y2   :     0.007597
      dxy     :     0.008244

 36 H s       :     0.827271  s :     0.827271

 37 H s       :     0.791654  s :     0.791654

 38 H s       :     0.850322  s :     0.850322

 39 H s       :     0.827390  s :     0.827390

 40 H s       :     0.816867  s :     0.816867

 41 H s       :     0.829026  s :     0.829026

 42 H s       :     0.856597  s :     0.856597

 43 H s       :     0.856905  s :     0.856905

 44 H s       :     0.858078  s :     0.858078

 45 H s       :     0.855506  s :     0.855506

 46 H s       :     0.847913  s :     0.847913

 47 H s       :     0.852814  s :     0.852814

 48 H s       :     0.854968  s :     0.854968

 49 H s       :     0.849547  s :     0.849547

 50 H s       :     0.868402  s :     0.868402

 51 H s       :     0.860527  s :     0.860527

 52 H s       :     0.842898  s :     0.842898



                     *******************************
                     * LOEWDIN POPULATION ANALYSIS *
                     *******************************

----------------------
LOEWDIN ATOMIC CHARGES
----------------------
   0 C :   -0.362338
   1 C :    0.010305
   2 C :    0.039228
   3 N :   -0.289002
   4 C :   -0.144780
   5 C :   -0.031983
   6 C :   -0.110957
   7 C :   -0.143066
   8 C :    0.079505
   9 O :   -0.162265
  10 C :    0.357820
  11 F :   -0.106874
  12 F :   -0.091629
  13 F :   -0.107140
  14 C :   -0.165699
  15 C :   -0.124631
  16 S :    1.261785
  17 O :   -0.586252
  18 O :   -0.597611
  19 C :   -0.217147
  20 C :   -0.129555
  21 C :   -0.109576
  22 C :   -0.001738
  23 C :    0.071627
  24 O :   -0.377009
  25 O :   -0.505649
  26 C :   -0.112049
  27 C :   -0.118201
  28 N :   -0.116674
  29 C :   -0.067201
  30 C :   -0.020244
  31 C :   -0.130681
  32 C :   -0.084416
  33 N :   -0.134281
  34 C :   -0.055529
  35 C :   -0.025470
  36 H :    0.144464
  37 H :    0.158012
  38 H :    0.131048
  39 H :    0.135327
  40 H :    0.149912
  41 H :    0.152501
  42 H :    0.142644
  43 H :    0.137456
  44 H :    0.138246
  45 H :    0.139897
  46 H :    0.150358
  47 H :    0.146902
  48 H :    0.139399
  49 H :    0.136289
  50 H :    0.135184
  51 H :    0.130437
  52 H :    0.141301

-------------------------------
LOEWDIN REDUCED ORBITAL CHARGES
-------------------------------
  0 C s       :     2.973360  s :     2.973360
      pz      :     1.092793  p :     3.323191
      px      :     1.093756
      py      :     1.136641
      dz2     :     0.018328  d :     0.065787
      dxz     :     0.011519
      dyz     :     0.009013
      dx2y2   :     0.018585
      dxy     :     0.008342

  1 C s       :     2.890491  s :     2.890491
      pz      :     1.005978  p :     3.001318
      px      :     0.954231
      py      :     1.041109
      dz2     :     0.019942  d :     0.097885
      dxz     :     0.013476
      dyz     :     0.025968
      dx2y2   :     0.020214
      dxy     :     0.018285

  2 C s       :     2.848115  s :     2.848115
      pz      :     1.019402  p :     2.934992
      px      :     0.992934
      py      :     0.922656
      dz2     :     0.035103  d :     0.177666
      dxz     :     0.021526
      dyz     :     0.046905
      dx2y2   :     0.038488
      dxy     :     0.035643

  3 N s       :     3.174980  s :     3.174980
      pz      :     1.416410  p :     4.029806
      px      :     1.450594
      py      :     1.162802
      dz2     :     0.013839  d :     0.084216
      dxz     :     0.012009
      dyz     :     0.021124
      dx2y2   :     0.017616
      dxy     :     0.019629

  4 C s       :     2.920329  s :     2.920329
      pz      :     1.010616  p :     3.106063
      px      :     1.003281
      py      :     1.092166
      dz2     :     0.032951  d :     0.118387
      dxz     :     0.025170
      dyz     :     0.016596
      dx2y2   :     0.028296
      dxy     :     0.015375

  5 C s       :     2.878558  s :     2.878558
      pz      :     0.991038  p :     3.052935
      px      :     1.022452
      py      :     1.039446
      dz2     :     0.012130  d :     0.100490
      dxz     :     0.016223
      dyz     :     0.014905
      dx2y2   :     0.029358
      dxy     :     0.027875

  6 C s       :     2.918646  s :     2.918646
      pz      :     0.996657  p :     3.107482
      px      :     1.053843
      py      :     1.056982
      dz2     :     0.010107  d :     0.084829
      dxz     :     0.017466
      dyz     :     0.010096
      dx2y2   :     0.022378
      dxy     :     0.024782

  7 C s       :     2.916540  s :     2.916540
      pz      :     1.034357  p :     3.144797
      px      :     1.066561
      py      :     1.043879
      dz2     :     0.006693  d :     0.081729
      dxz     :     0.016697
      dyz     :     0.011237
      dx2y2   :     0.020227
      dxy     :     0.026876

  8 C s       :     2.858798  s :     2.858798
      pz      :     1.013472  p :     2.906804
      px      :     0.826658
      py      :     1.066674
      dz2     :     0.018883  d :     0.154892
      dxz     :     0.033095
      dyz     :     0.015833
      dx2y2   :     0.048049
      dxy     :     0.039032

  9 O s       :     3.470660  s :     3.470660
      pz      :     1.740128  p :     4.634058
      px      :     1.329569
      py      :     1.564360
      dz2     :     0.006863  d :     0.057547
      dxz     :     0.012645
      dyz     :     0.005951
      dx2y2   :     0.014055
      dxy     :     0.018033

 10 C s       :     2.819788  s :     2.819788
      pz      :     0.803009  p :     2.443797
      px      :     0.813666
      py      :     0.827122
      dz2     :     0.098050  d :     0.378595
      dxz     :     0.064053
      dyz     :     0.062312
      dx2y2   :     0.073663
      dxy     :     0.080517

 11 F s       :     3.765253  s :     3.765253
      pz      :     1.844519  p :     5.310374
      px      :     1.856532
      py      :     1.609323
      dz2     :     0.004015  d :     0.031247
      dxz     :     0.002174
      dyz     :     0.008420
      dx2y2   :     0.008735
      dxy     :     0.007903

 12 F s       :     3.760003  s :     3.760003
      pz      :     1.847934  p :     5.301136
      px      :     1.561510
      py      :     1.891693
      dz2     :     0.003863  d :     0.030490
      dxz     :     0.009421
      dyz     :     0.001342
      dx2y2   :     0.010023
      dxy     :     0.005842

 13 F s       :     3.765147  s :     3.765147
      pz      :     1.505057  p :     5.310763
      px      :     1.901081
      py      :     1.904625
      dz2     :     0.018667  d :     0.031230
      dxz     :     0.005923
      dyz     :     0.005840
      dx2y2   :     0.000385
      dxy     :     0.000414

 14 C s       :     2.918648  s :     2.918648
      pz      :     1.035887  p :     3.165280
      px      :     1.073975
      py      :     1.055418
      dz2     :     0.010028  d :     0.081771
      dxz     :     0.016458
      dyz     :     0.009965
      dx2y2   :     0.019089
      dxy     :     0.026231

 15 C s       :     2.917667  s :     2.917667
      pz      :     1.014441  p :     3.121588
      px      :     1.057657
      py      :     1.049490
      dz2     :     0.006684  d :     0.085375
      dxz     :     0.016469
      dyz     :     0.012011
      dx2y2   :     0.024077
      dxy     :     0.026135

 16 S s       :     5.107406  s :     5.107406
      pz      :     2.995140  p :     8.957748
      px      :     2.998644
      py      :     2.963964
      dz2     :     0.091784  d :     0.673061
      dxz     :     0.159334
      dyz     :     0.163185
      dx2y2   :     0.106031
      dxy     :     0.152728

 17 O s       :     3.709948  s :     3.709948
      pz      :     1.503732  p :     4.821238
      px      :     1.673157
      py      :     1.644348
      dz2     :     0.010860  d :     0.055066
      dxz     :     0.012665
      dyz     :     0.017206
      dx2y2   :     0.006077
      dxy     :     0.008260

 18 O s       :     3.707865  s :     3.707865
      pz      :     1.612221  p :     4.835281
      px      :     1.654105
      py      :     1.568954
      dz2     :     0.007034  d :     0.054465
      dxz     :     0.008457
      dyz     :     0.014135
      dx2y2   :     0.009442
      dxy     :     0.015397

 19 C s       :     2.925565  s :     2.925565
      pz      :     1.072899  p :     3.192491
      px      :     1.032195
      py      :     1.087397
      dz2     :     0.008352  d :     0.099090
      dxz     :     0.015298
      dyz     :     0.021483
      dx2y2   :     0.025518
      dxy     :     0.028439

 20 C s       :     2.919026  s :     2.919026
      pz      :     1.014755  p :     3.123417
      px      :     1.056229
      py      :     1.052433
      dz2     :     0.010685  d :     0.087112
      dxz     :     0.010238
      dyz     :     0.019639
      dx2y2   :     0.021677
      dxy     :     0.024873

 21 C s       :     2.923837  s :     2.923837
      pz      :     0.987864  p :     3.101970
      px      :     1.020428
      py      :     1.093678
      dz2     :     0.011509  d :     0.083769
      dxz     :     0.015224
      dyz     :     0.012303
      dx2y2   :     0.025320
      dxy     :     0.019413

 22 C s       :     2.903039  s :     2.903039
      pz      :     0.943463  p :     2.996700
      px      :     1.000693
      py      :     1.052544
      dz2     :     0.012301  d :     0.101999
      dxz     :     0.014308
      dyz     :     0.020168
      dx2y2   :     0.027726
      dxy     :     0.027497

 23 C s       :     2.864426  s :     2.864426
      pz      :     0.898471  p :     2.796804
      px      :     0.943511
      py      :     0.954822
      dz2     :     0.025824  d :     0.267143
      dxz     :     0.033460
      dyz     :     0.054312
      dx2y2   :     0.079824
      dxy     :     0.073723

 24 O s       :     3.585122  s :     3.585122
      pz      :     1.538182  p :     4.744324
[...]
      pz      :     1.638871  p :     4.794744
      px      :     1.745018
      py      :     1.410855
      dz2     :     0.004699  d :     0.033667
      dxz     :     0.000453
      dyz     :     0.008197
      dx2y2   :     0.014293
      dxy     :     0.006024

 26 C s       :     2.921782  s :     2.921782
      pz      :     0.995972  p :     3.106792
      px      :     1.033171
      py      :     1.077650
      dz2     :     0.009491  d :     0.083474
      dxz     :     0.011190
      dyz     :     0.017390
      dx2y2   :     0.020086
      dxy     :     0.025317

 27 C s       :     2.916483  s :     2.916483
      pz      :     1.005671  p :     3.114568
      px      :     1.032680
      py      :     1.076217
      dz2     :     0.013888  d :     0.087150
      dxz     :     0.015171
      dyz     :     0.013125
      dx2y2   :     0.025973
      dxy     :     0.018993

 28 N s       :     3.239382  s :     3.239382
      pz      :     1.374655  p :     3.797674
      px      :     1.191396
      py      :     1.231623
      dz2     :     0.014721  d :     0.079618
      dxz     :     0.010443
      dyz     :     0.019222
      dx2y2   :     0.018804
      dxy     :     0.016428

 29 C s       :     2.911879  s :     2.911879
      pz      :     1.034114  p :     3.032239
      px      :     0.988995
      py      :     1.009131
      dz2     :     0.017494  d :     0.123082
      dxz     :     0.010082
      dyz     :     0.043448
      dx2y2   :     0.025406
      dxy     :     0.026651

 30 C s       :     2.858970  s :     2.858970
      pz      :     1.023126  p :     3.051350
      px      :     0.977331
      py      :     1.050893
      dz2     :     0.021881  d :     0.109924
      dxz     :     0.014174
      dyz     :     0.031015
      dx2y2   :     0.021744
      dxy     :     0.021109

 31 C s       :     2.923831  s :     2.923831
      pz      :     1.048769  p :     3.122518
      px      :     1.008811
      py      :     1.064938
      dz2     :     0.014189  d :     0.084332
      dxz     :     0.011155
      dyz     :     0.026151
      dx2y2   :     0.015739
      dxy     :     0.017097

 32 C s       :     2.913409  s :     2.913409
      pz      :     1.006332  p :     3.047306
      px      :     0.979264
      py      :     1.061710
      dz2     :     0.031211  d :     0.123701
      dxz     :     0.023312
      dyz     :     0.028048
      dx2y2   :     0.025748
      dxy     :     0.015383

 33 N s       :     3.242301  s :     3.242301
      pz      :     1.368703  p :     3.812658
      px      :     1.198280
      py      :     1.245675
      dz2     :     0.015299  d :     0.079322
      dxz     :     0.010746
      dyz     :     0.018527
      dx2y2   :     0.019365
      dxy     :     0.015386

 34 C s       :     2.918274  s :     2.918274
      pz      :     1.032089  p :     3.017050
      px      :     0.977838
      py      :     1.007122
      dz2     :     0.017210  d :     0.120205
      dxz     :     0.010099
      dyz     :     0.041664
      dx2y2   :     0.025170
      dxy     :     0.026061

 35 C s       :     2.862068  s :     2.862068
      pz      :     1.024645  p :     3.058110
      px      :     0.991421
      py      :     1.042043
      dz2     :     0.019945  d :     0.105292
      dxz     :     0.013523
      dyz     :     0.030992
      dx2y2   :     0.020534
      dxy     :     0.020298

 36 H s       :     0.855536  s :     0.855536

 37 H s       :     0.841988  s :     0.841988

 38 H s       :     0.868952  s :     0.868952

 39 H s       :     0.864673  s :     0.864673

 40 H s       :     0.850088  s :     0.850088

 41 H s       :     0.847499  s :     0.847499

 42 H s       :     0.857356  s :     0.857356

 43 H s       :     0.862544  s :     0.862544

 44 H s       :     0.861754  s :     0.861754

 45 H s       :     0.860103  s :     0.860103

 46 H s       :     0.849642  s :     0.849642

 47 H s       :     0.853098  s :     0.853098

 48 H s       :     0.860601  s :     0.860601

 49 H s       :     0.863711  s :     0.863711

 50 H s       :     0.864816  s :     0.864816

 51 H s       :     0.869563  s :     0.869563

 52 H s       :     0.858699  s :     0.858699



                      *****************************
                      * MAYER POPULATION ANALYSIS *
                      *****************************

  NA   - Mulliken gross atomic population
  ZA   - Total nuclear charge
  QA   - Mulliken gross atomic charge
  VA   - Mayer's total valence
  BVA  - Mayer's bonded valence
  FA   - Mayer's free valence

  ATOM       NA         ZA         QA         VA         BVA        FA
  0 C      6.5462     6.0000    -0.5462     3.8199     3.8199     0.0000
  1 C      5.8696     6.0000     0.1304     3.8706     3.8706    -0.0000
  2 C      5.6797     6.0000     0.3203     3.8933     3.8933     0.0000
  3 N      7.6125     7.0000    -0.6125     2.7769     2.7769    -0.0000
  4 C      6.2408     6.0000    -0.2408     3.8244     3.8244     0.0000
  5 C      5.8367     6.0000     0.1633     3.9134     3.9134     0.0000
  6 C      6.1630     6.0000    -0.1630     3.9324     3.9324    -0.0000
  7 C      6.1741     6.0000    -0.1741     3.9073     3.9073    -0.0000
  8 C      5.6533     6.0000     0.3467     3.7993     3.7993     0.0000
  9 O      8.5472     8.0000    -0.5472     1.9571     1.9571    -0.0000
 10 C      4.9168     6.0000     1.0832     3.9983     3.9983     0.0000
 11 F      9.2932     9.0000    -0.2932     1.0627     1.0627    -0.0000
 12 F      9.2837     9.0000    -0.2837     1.0822     1.0822     0.0000
 13 F      9.2936     9.0000    -0.2936     1.0623     1.0623    -0.0000
 14 C      6.1937     6.0000    -0.1937     3.9018     3.9018    -0.0000
 15 C      6.1733     6.0000    -0.1733     3.9444     3.9444     0.0000
 16 S     14.7919    16.0000     1.2081     5.0563     5.0563    -0.0000
 17 O      8.5624     8.0000    -0.5624     1.8708     1.8708     0.0000
 18 O      8.5753     8.0000    -0.5753     1.8598     1.8598     0.0000
 19 C      6.1460     6.0000    -0.1460     3.7952     3.7952    -0.0000
 20 C      6.1609     6.0000    -0.1609     3.8930     3.8930     0.0000
 21 C      6.1502     6.0000    -0.1502     3.8694     3.8694    -0.0000
 22 C      5.8946     6.0000     0.1054     3.8378     3.8378     0.0000
 23 C      5.5887     6.0000     0.4113     4.2056     4.2056     0.0000
 24 O      8.5515     8.0000    -0.5515     1.9563     1.9563    -0.0000
 25 O      8.6573     8.0000    -0.6573     1.8371     1.8371    -0.0000
 26 C      6.1583     6.0000    -0.1583     3.8814     3.8814    -0.0000
 27 C      6.1451     6.0000    -0.1451     3.9035     3.9035    -0.0000
 28 N      7.3809     7.0000    -0.3809     2.9619     2.9619    -0.0000
 29 C      6.0526     6.0000    -0.0526     3.8602     3.8602     0.0000
 30 C      5.8404     6.0000     0.1596     3.9453     3.9453    -0.0000
 31 C      6.2137     6.0000    -0.2137     3.8825     3.8825     0.0000
 32 C      5.9876     6.0000     0.0124     3.9014     3.9014    -0.0000
 33 N      7.3725     7.0000    -0.3725     3.0072     3.0072    -0.0000
 34 C      6.0361     6.0000    -0.0361     3.8288     3.8288     0.0000
 35 C      5.9100     6.0000     0.0900     3.9480     3.9480     0.0000
 36 H      0.8273     1.0000     0.1727     0.9288     0.9288     0.0000
 37 H      0.7917     1.0000     0.2083     0.9372     0.9372     0.0000
 38 H      0.8503     1.0000     0.1497     0.9319     0.9319    -0.0000
 39 H      0.8274     1.0000     0.1726     0.9293     0.9293     0.0000
 40 H      0.8169     1.0000     0.1831     0.9371     0.9371    -0.0000
 41 H      0.8290     1.0000     0.1710     0.9405     0.9405     0.0000
 42 H      0.8566     1.0000     0.1434     0.9372     0.9372     0.0000
 43 H      0.8569     1.0000     0.1431     0.9502     0.9502    -0.0000
 44 H      0.8581     1.0000     0.1419     0.9408     0.9408    -0.0000
 45 H      0.8555     1.0000     0.1445     0.9452     0.9452    -0.0000
 46 H      0.8479     1.0000     0.1521     0.9647     0.9647    -0.0000
 47 H      0.8528     1.0000     0.1472     0.9588     0.9588    -0.0000
 48 H      0.8550     1.0000     0.1450     0.9435     0.9435     0.0000
 49 H      0.8495     1.0000     0.1505     0.9349     0.9349     0.0000
 50 H      0.8684     1.0000     0.1316     0.9402     0.9402     0.0000
 51 H      0.8605     1.0000     0.1395     0.9354     0.9354     0.0000
 52 H      0.8429     1.0000     0.1571     0.9402     0.9402     0.0000

  Mayer bond orders larger than 0.100000
B(  0-C ,  1-C ) :   1.0081 B(  0-C , 36-H ) :   0.9232 B(  0-C , 37-H ) :   0.9120 
B(  0-C , 38-H ) :   0.9268 B(  1-C ,  2-C ) :   1.4264 B(  1-C , 29-C ) :   0.1052 
B(  1-C , 35-C ) :   1.2560 B(  2-C ,  3-N ) :   0.9188 B(  2-C , 28-N ) :   1.2797 
B(  3-N ,  4-C ) :   0.9294 B(  3-N , 16-S ) :   0.7692 B(  4-C ,  5-C ) :   0.9501 
B(  4-C , 39-H ) :   0.9198 B(  4-C , 40-H ) :   0.9167 B(  5-C ,  6-C ) :   1.4327 
B(  5-C , 15-C ) :   1.4374 B(  6-C ,  7-C ) :   1.4344 B(  6-C , 41-H ) :   0.9097 
B(  7-C ,  8-C ) :   1.4140 B(  7-C , 42-H ) :   0.9200 B(  8-C ,  9-O ) :   0.8123 
B(  8-C , 14-C ) :   1.3972 B(  9-O , 10-C ) :   1.0019 B( 10-C , 11-F ) :   0.9671 
B( 10-C , 12-F ) :   1.0031 B( 10-C , 13-F ) :   0.9663 B( 14-C , 15-C ) :   1.4238 
B( 14-C , 43-H ) :   0.9117 B( 15-C , 44-H ) :   0.9203 B( 16-S , 17-O ) :   1.6408 
B( 16-S , 18-O ) :   1.5953 B( 16-S , 19-C ) :   0.8466 B( 19-C , 20-C ) :   1.3658 
B( 19-C , 27-C ) :   1.3598 B( 20-C , 21-C ) :   1.3991 B( 20-C , 45-H ) :   0.9203 
B( 21-C , 22-C ) :   1.4054 B( 21-C , 46-H ) :   0.9012 B( 22-C , 23-C ) :   0.9268 
B( 22-C , 26-C ) :   1.3822 B( 23-C , 24-O ) :   1.7067 B( 23-C , 25-O ) :   1.5493 
B( 24-O , 25-O ) :   0.1490 B( 26-C , 27-C ) :   1.4247 B( 26-C , 47-H ) :   0.9076 
B( 27-C , 48-H ) :   0.9184 B( 28-N , 29-C ) :   1.5003 B( 29-C , 30-C ) :   1.2342 
B( 29-C , 49-H ) :   0.9272 B( 30-C , 31-C ) :   1.2904 B( 30-C , 35-C ) :   1.2871 
B( 31-C , 32-C ) :   1.4831 B( 31-C , 34-C ) :   0.1124 B( 31-C , 50-H ) :   0.9193 
B( 32-C , 33-N ) :   1.3393 B( 32-C , 51-H ) :   0.9336 B( 33-N , 34-C ) :   1.4985 
B( 34-C , 35-C ) :   1.2385 B( 34-C , 52-H ) :   0.9202 

-------
TIMINGS
-------

Total SCF time: 0 days 0 hours 7 min 17 sec 

Total time                  ....     437.900 sec
Sum of individual times     ....     437.483 sec  ( 99.9%)

SCF preparation             ....       0.323 sec  (  0.1%)
Fock matrix formation       ....     434.824 sec  ( 99.3%)
  Startup                   ....       0.102 sec  (  0.0% of F)
  Split-RI-J                ....      57.689 sec  ( 13.3% of F)
  Chain of spheres X        ....     341.108 sec  ( 78.4% of F)
  XC integration            ....      34.885 sec  (  8.0% of F)
    XC Preparation          ....       0.000 sec  (  0.0% of XC)
    Basis function eval.    ....      13.510 sec  ( 38.7% of XC)
    Density eval.           ....       8.549 sec  ( 24.5% of XC)
    XC-Functional eval.     ....       1.543 sec  (  4.4% of XC)
    XC-Potential eval.      ....       9.593 sec  ( 27.5% of XC)
Diagonalization             ....       0.000 sec  (  0.0%)
Density matrix formation    ....       0.416 sec  (  0.1%)
Total Energy calculation    ....       0.098 sec  (  0.0%)
Population analysis         ....       0.071 sec  (  0.0%)
Orbital Transformation      ....       0.202 sec  (  0.0%)
Orbital Orthonormalization  ....       0.000 sec  (  0.0%)
DIIS solution               ....       0.916 sec  (  0.2%)
SOSCF solution              ....       0.633 sec  (  0.1%)
Finished LeanSCF after 438.0 sec

Maximum memory used throughout the entire LEANSCF-calculation: 92.4 MB

-------------------------   --------------------
FINAL SINGLE POINT ENERGY     -2161.799908995477
-------------------------   --------------------


------------------------------------------------------------------------------
                              ORCA PROPERTY CALCULATIONS
------------------------------------------------------------------------------

GBWName                                 ... /home/nmrbox/aojoawo/Documents/ERDOS/inputs/CHEMBL3687330.gbw
Number of atoms                         ...     53
Number of basis functions               ...    542
Max core memory                         ...   1024 MB

Electric properties:
Dipole moment                           ... YES
Quadrupole moment                       ...  NO
Static polarizability (Dipole/Dipole)   ...  NO
Static polarizability (Dipole/Quad.)    ...  NO
Static polarizability (Quad./Quad.)     ...  NO
Static polarizability (Velocity)        ...  NO

Atomic electric properties:
Dipole moment                           ...  NO
Quadrupole moment                       ...  NO
Static polarizability                   ...  NO

Choice of electric origin               ... Center of mass
Position of electric origin             ...     0.345798    -0.332982     0.069893

General magnetic properties:
Magnetizability                         ...  NO

EPR properties:
g-Tensor (aka g-matrix)                 ...  NO
Zero-Field splitting spin-orbit         ...  NO
Zero-field splitting spin-spin          ...  NO
Hyperfine couplings                     ...  NO (   0 nuclei)
Quadrupole couplings                    ...  NO (   0 nuclei)
Contact density                         ...  NO (   0 nuclei)

NMR properties:
Chemical shifts                         ...  NO (   0 nuclei)
Spin-rotation constants                 ...  NO (   0 nuclei)
Spin-spin couplings                     ...  NO (   0 nuclei,    0 pairs)

Choice of magnetic origin               ... GIAO
Position of magnetic origin             ...     0.000000     0.000000     0.000000

Properties with geometric perturbations:
SCF Hessian                             ...  NO
IR spectrum                             ...  NO
VCD spectrum                            ...  NO
X-ray spectroscopy properties:
SCF XES/XAS/RIXS spectra                ...  NO


-------------
DIPOLE MOMENT
-------------

Method             : SCF
Type of density    : Electron Density
Multiplicity       :   1
Irrep              :   0
Energy             : -2161.7999089954769261 Eh
Relativity type    : 
Basis              : AO
                                X                 Y                 Z
Electronic contribution:     33.468290756       2.705871372      -0.778410565
Nuclear contribution   :    -23.861894594       3.628818505       2.997982168
                        -----------------------------------------
Total Dipole Moment    :      9.606396162       6.334689876       2.219571603
                        -----------------------------------------
Magnitude (a.u.)       :     11.719114350
Magnitude (Debye)      :     29.787621417



--------------------
Rotational spectrum 
--------------------
 
Rotational constants in cm-1:             0.004669             0.001790             0.001439 
Rotational constants in MHz :           139.977625            53.671606            43.152454 

Dipole components along the rotational axes: 
x,y,z [a.u.] :   -11.509965    -2.203444     0.056445 
x,y,z [Debye]:   -29.256005    -5.600710     0.143472 

 

Dipole moment calculation done in   0.1 sec 

Maximum memory used throughout the entire PROP-calculation: 45.6 MB

--------------------------------
SUGGESTED CITATIONS FOR THIS RUN
--------------------------------

Below you find a list of papers that are relevant to this ORCA run
We neither can nor want to force you to cite these papers, but we appreciate if you do
You receive ORCA, which is the product of decades of hard work by many enthusiastic individuals, for free
The only thing we kindly ask in return is that you cite our papers,
We deeply appreciate it, if you show your appreciation for ORCA by not just citing the generic ORCA reference.

Please note that relegating all ORCA citations to the supporting information does *not* help us.
SI sections are not indexed - citations you put there will not count into any citation statistics
But we need these citations in order to attract the funding resources that allow us to do what we are doing

Therefore, if you are a happy ORCA user, please consider citing a few of the papers listed below in the main body of your paper

In addition to the list printed below, the program has created the file /home/nmrbox/aojoawo/Documents/ERDOS/inputs/CHEMBL3687330.bibtex that contains the list in bibtex format
You can import this file easily into all common literature databanks and citation aid programs


List of essential papers. We consider these as the minimum necessary citations

  1. Neese,F.
     Software update: the ORCA program system, version 5.0
     WIRES Comput. Molec. Sci., 2022 12(1)e1606
     doi.org/10.1002/wcms.1606

List of papers to cite with high priority. The work reported in these papers was absolutely
necessary for this run to complete.
Our perspective: the developers of density functionals and basis sets usually get cited in chemistry papers
Good! But without the algorithms to do something with them, the functionals or basis sets would not do anything.
Hence, in our opinion, the algorithm design and method developments papers are equally worthy of getting cited

  1. Neese,F.
     An improvement of the resolution of the identity approximation for the formation of the Coulomb matrix
     J. Comp. Chem., 2003 24(14)1740-1747
     doi.org/10.1002/jcc.10318
  2. Neese,F.; Wennmohs,F.; Hansen,A.; Becker,U.
     Efficient, approximate and parallel Hartree-Fock and hybrid DFT calculations. A 'chain-of-spheres' algorithm for the Hartree-Fock exchange
     Chem. Phys., 2009 356(1-3)98-109
     doi.org/10.1016/j.chemphys.2008.10.036
  3. Helmich-Paris,B.; de Souza,B.; Neese,F.; Izsák,R.
     An improved chain of spheres for exchange algorithm
     J. Chem. Phys., 2021 155 104109
     doi.org/doi: 10.1063/5.0058766.
  4. Neese,F.
     The SHARK Integral Generation and Digestion System
     J. Comp. Chem., 2022  1-16
     doi.org/10.1002/jcc.26942

List of suggested additional citations. These are papers that are important in the 'surrounding' of 
of this run, or papers that preceded the highly important papers. If you like your results we are grateful for a citation.

  1. Izsak,R.; Neese,F.
     An overlap fitted chain of spheres exchange method
     J. Chem. Phys., 2011 135 144105
     doi.org/10.1063/1.3646921
  2. Izsak,R.; Hansen,A.; Neese,F.
     The resolution of identity and chain of spheres approximations for the LPNO-CCSD singles Fock term
     Molec. Phys., 2012 110 2413-2417
     doi.org/10.1080/00268976.2012.687466
  3. Neese,F.
     The ORCA program system
     WIRES Comput. Molec. Sci., 2012 2(1)73-78
     doi.org/10.1002/wcms.81
  4. Izsak,R.; Neese,F.; Klopper,W.
     Robust fitting techniques in the chain of spheres approximation to the Fock exchange: The role of the complementary space
     J. Chem. Phys., 2013 139 
     doi.org/10.1063/1.4819264
  5. Neese,F.
     Software update: the ORCA program system, version 4.0
     WIRES Comput. Molec. Sci., 2018 8(1)1-6
     doi.org/10.1002/wcms.1327
  6. Neese,F.; Wennmohs,F.; Becker,U.; Riplinger,C.
     The ORCA quantum chemistry program package
     J. Chem. Phys., 2020 152 Art. No. L224108
     doi.org/10.1063/5.0004608

List of optional additional citations

  1. Neese,F.
     Approximate second-order SCF convergence for spin unrestricted wavefunctions
     Chem. Phys. Lett., 2000 325(1-3)93-98
     doi.org/10.1016/s0009-2614(00)00662-x

Timings for individual modules:

Sum of individual times          ...      454.112 sec (=   7.569 min)
Startup calculation              ...       10.453 sec (=   0.174 min)   2.3 %
SCF iterations                   ...      443.430 sec (=   7.391 min)  97.6 %
Property calculations            ...        0.229 sec (=   0.004 min)   0.1 %
                             ****ORCA TERMINATED NORMALLY****
TOTAL RUN TIME: 0 days 0 hours 7 minutes 35 seconds 4 msec
