
                                 *****************
                                 * O   R   C   A *
                                 *****************

                                            #,                                       
                                            ###                                      
                                            ####                                     
                                            #####                                    
                                            ######                                   
                                           ########,                                 
                                     ,,################,,,,,                         
                               ,,#################################,,                 
                          ,,##########################################,,             
                       ,#########################################, ''#####,          
                    ,#############################################,,   '####,        
                  ,##################################################,,,,####,       
                ,###########''''           ''''###############################       
              ,#####''   ,,,,##########,,,,          '''####'''          '####       
            ,##' ,,,,###########################,,,                        '##       
           ' ,,###''''                  '''############,,,                           
         ,,##''                                '''############,,,,        ,,,,,,###''
      ,#''                                            '''#######################'''  
     '                                                          ''''####''''         
             ,#######,   #######,   ,#######,      ##                                
            ,#'     '#,  ##    ##  ,#'     '#,    #''#        ,####,   ,####,        
            ##       ##  ##   ,#'  ##            #'  '#       #'       #'  '#        
            ##       ##  #######   ##           ,######,      #####,   #    #        
            '#,     ,#'  ##    ##  '#,     ,#' ,#      #,     #,   #   #,  ,#        
             '#######'   ##     ##  '#######'  #'      '#     '####' # '####'        



                #########################################################
                #                        -***-                          #
                #          Department of theory and spectroscopy        #
                #                                                       #
                #                      Frank Neese                      #
                #                                                       #
                #     Directorship, Architecture, Infrastructure        #
                #                    SHARK, DRIVERS                     #
                #        Core code/Algorithms in most modules           #
                #                                                       #
                #        Max Planck Institute fuer Kohlenforschung      #
                #                Kaiser Wilhelm Platz 1                 #
                #                 D-45470 Muelheim/Ruhr                 #
                #                      Germany                          #
                #                                                       #
                #                  All rights reserved                  #
                #                        -***-                          #
                #########################################################


                         Program Version 6.0.0  -   RELEASE  -


 With contributions from (in alphabetic order):
   Daniel Aravena         : Magnetic Suceptibility
   Michael Atanasov       : Ab Initio Ligand Field Theory (pilot matlab implementation)
   Alexander A. Auer      : GIAO ZORA, VPT2 properties, NMR spectrum
   Ute Becker             : All parallelization in ORCA, NUMFREQ, NUMCALC
   Giovanni Bistoni       : ED, misc. LED, open-shell LED, HFLD
   Martin Brehm           : Molecular dynamics
   Dmytro Bykov           : pre 5.0 version of the SCF Hessian
   Marcos Casanova-Páez   : Triplet and SCS-CIS(D). UHF-(DLPNO)-IP/EA/STEOM-CCSD. UHF-CVS-IP/STEOM-CCSD
   Vijay G. Chilkuri      : MRCI spin determinant printing, contributions to CSF-ICE
   Pauline Colinet        : FMM embedding
   Dipayan Datta          : RHF DLPNO-CCSD density
   Achintya Kumar Dutta   : EOM-CC, STEOM-CC
   Nicolas Foglia         : Exact transition moments, OPA infrastructure, MCD improvements
   Dmitry Ganyushin       : Spin-Orbit,Spin-Spin,Magnetic field MRCI
   Miquel Garcia          : C-PCM and meta-GGA Hessian, CCSD/C-PCM, Gaussian charge scheme
   Tiago L. C. Gouveia    : GS-ROHF, GS-ROCIS
   Yang Guo               : DLPNO-NEVPT2, F12-NEVPT2, CIM, IAO-localization
   Andreas Hansen         : Spin unrestricted coupled pair/coupled cluster methods
   Ingolf Harden          : AUTO-CI MPn and infrastructure 
   Benjamin Helmich-Paris : MC-RPA, TRAH-(SCF,CASSCF), AVAS, COSX integrals, SCF dyn. polar.
   Lee Huntington         : MR-EOM, pCC
   Robert Izsak           : Overlap fitted RIJCOSX, COSX-SCS-MP3, EOM
   Riya Kayal             : Wick's Theorem for AUTO-CI, AUTO-CI UHF-CCSDT
   Emily Kempfer          : AUTO-CI, RHF CISDT and CCSDT
   Christian Kollmar      : KDIIS, OOCD, Brueckner-CCSD(T), CCSD density, CASPT2, CASPT2-K, improved NEVPT2
   Axel Koslowski         : Symmetry handling
   Simone Kossmann        : Meta GGA functionals, TD-DFT gradient, OOMP2, (MP2 Hessian; deprecated post 5.0)
   Lucas Lang             : DCDCAS
   Marvin Lechner         : AUTO-CI (C++ implementation), FIC-MRCC
   Spencer Leger          : CASSCF response
   Dagmar Lenk            : GEPOL surface, SMD, ORCA-2-JSON
   Dimitrios Liakos       : Extrapolation schemes; Compound Job, initial MDCI parallelization
   Dimitrios Manganas     : Further ROCIS development; embedding schemes. LFT, Crystal Embedding
   Dimitrios Pantazis     : SARC Basis sets
   Anastasios Papadopoulos: AUTO-CI, single reference methods and gradients
   Taras Petrenko         : pre 6.0 DFT Hessian and TD-DFT gradient, (ASA, deprecated), ECA, 1-Electron XAS/XES, NRVS
   Peter Pinski           : DLPNO-MP2, DLPNO-MP2 Gradient
   Christoph Reimann      : Effective Core Potentials
   Marius Retegan         : Local ZFS, SOC
   Christoph Riplinger    : Optimizer, TS searches, QM/MM, DLPNO-CCSD(T), (RO)-DLPNO pert. Triples
   Michael Roemelt        : Original ROCIS implementation
   Masaaki Saitow         : Open-shell DLPNO-CCSD energy and density
   Barbara Sandhoefer     : DKH picture change effects
   Kantharuban Sivalingam : CASSCF convergence/infrastructure, NEVPT2 and variants, FIC-MRCI
   Bernardo de Souza      : ESD, SOC TD-DFT
   Georgi Stoychev        : AutoAux, RI-MP2 NMR, DLPNO-MP2 response, X2C
   Van Anh Tran           : RI-MP2 g-tensors
   Willem Van den Heuvel  : Paramagnetic NMR
   Zikuan Wang            : NOTCH, Electric field optimization 
   Frank Wennmohs         : Technical directorship and infrastructure
   Hang Xu                : AUTO-CI-Response properties 


 We gratefully acknowledge several colleagues who have allowed us to
 interface, adapt or use parts of their codes:
   Stefan Grimme, W. Hujo, H. Kruse, P. Pracht,  : VdW corrections, initial TS optimization,
                  C. Bannwarth, S. Ehlert,         DFT functionals, gCP, sTDA/sTD-DF
                  L. Wittmann, M. Mueller
   Ed Valeev, F. Pavosevic, A. Kumar             : LibInt (2-el integral package), F12 methods
   Garnet Chan, S. Sharma, J. Yang, R. Olivares  : DMRG
   Ulf Ekstrom                                   : XCFun DFT Library
   Mihaly Kallay                                 : mrcc  (arbitrary order and MRCC methods)
   Frank Weinhold                                : gennbo (NPA and NBO analysis)
   Simon Mueller                                 : openCOSMO-RS
   Christopher J. Cramer and Donald G. Truhlar   : smd solvation model
   Lars Goerigk                                  : TD-DFT with DH, B97 family of functionals
   V. Asgeirsson, H. Jonsson                     : NEB implementation
   FAccTs GmbH                                   : IRC, NEB, NEB-TS, DLPNO-Multilevel, CI-OPT
                                                   MM, QMMM, 2- and 3-layer-ONIOM, Crystal-QMMM,
                                                   LR-CPCM, SF, NACMEs, symmetry and pop. for TD-DFT,
                                                   nearIR, NL-DFT gradient (VV10), updates on ESD,
                                                   ML-optimized integration grids, MBIS, APM,
                                                   GOAT, DOCKER, SOLVATOR, interface openCOSMO-RS
   S Lehtola, MJT Oliveira, MAL Marques          : LibXC Library
   Liviu Ungur et al                             : ANISO software


 Your calculation uses the libint2 library for the computation of 2-el integrals
 For citations please refer to: http://libint.valeyev.net

 Your ORCA version has been built with support for libXC version: 6.2.2
 For citations please refer to: https://libxc.gitlab.io

 This ORCA versions uses:
   CBLAS   interface :  Fast vector & matrix operations
   LAPACKE interface :  Fast linear algebra routines
   SCALAPACK package :  Parallel linear algebra routines
   Shared memory     :  Shared parallel matrices
   BLAS/LAPACK       :  OpenBLAS 0.3.27  USE64BITINT DYNAMIC_ARCH NO_AFFINITY SkylakeX SINGLE_THREADED
        Core in use  :  SkylakeX
   Copyright (c) 2011-2014, The OpenBLAS Project


Warning: RI is on but no J-basis has been assigned. Assigning Def2/J (nothing to worry about!)
================================================================================

----- Orbital basis set information -----
Your calculation utilizes the basis: 6-31G*
   H-He, Li-Ne : W. J. Hehre, R. Ditchfield and J.A. Pople, J. Chem. Phys. 56, 2257 (1972).
                 Note: He and Ne are unpublished basis sets taken from the Gaussian program.
                 Note: Li and B from J. D. Dill and J. A. Pople, J. Chem. Phys. 62, 2921 (1975).
   Na - Ar     : M. M. Francl, W. J. Pietro, W. J. Hehre, J. S. Binkley, M. S. Gordon, 
                 D. J. DeFrees and J. A. Pople, J. Chem. Phys. 77, 3654 (1982).
   K - Zn      : V. A. Rassolov, J. A. Pople, M. A. Ratner, and T. L. Windus, J. Chem. Phys. 109, 1223 (1998).

----- AuxJ basis set information -----
Your calculation utilizes the auxiliary basis: def2/J
   F. Weigend, Phys. Chem. Chem. Phys. 8, 1057 (2006).

================================================================================
                                        WARNINGS
                       Please study these warnings very carefully!
================================================================================


================================================================================
                                       INPUT FILE
================================================================================
NAME = /home/nmrbox/aojoawo/Documents/ERDOS/inputs/CHEMBL3900789.inp
|  1> ! B3LYP 6-31G* SP
|  2> 
|  3> * xyz 0 1
|  4> C -2.3595 -3.4262 0.3780
|  5> N -3.1131 -2.1796 0.4552
|  6> N -4.1551 -1.9118 -0.3243
|  7> C -4.6018 -0.6953 0.0411
|  8> C -3.8505 -0.1868 1.0543
|  9> C -2.8974 -1.1562 1.3216
| 10> C -1.7682 -1.0882 2.3147
| 11> C -0.4924 -0.6862 1.6369
| 12> O 0.4709 -1.4982 1.6080
| 13> N -0.3762 0.6085 1.0252
| 14> C 0.8056 1.0754 0.3627
| 15> N 1.9748 0.4010 0.3291
| 16> C 2.9360 1.0751 -0.3631
| 17> C 4.3078 0.5267 -0.5157
| 18> C 5.1910 1.0187 -1.4940
| 19> C 6.4797 0.4909 -1.6200
| 20> C 6.9134 -0.5418 -0.7687
| 21> O 8.1999 -1.1004 -0.8483
| 22> C 9.2108 -0.7133 -1.7776
| 23> F 8.7783 -0.9358 -3.0730
| 24> F 9.5290 0.6230 -1.6088
| 25> F 10.3423 -1.4723 -1.5495
| 26> C 6.0332 -1.0385 0.1991
| 27> F 6.4315 -2.0359 1.0272
| 28> C 4.7432 -0.5138 0.3235
| 29> C 2.5182 2.3067 -0.8793
| 30> S 0.9079 2.5387 -0.4513
| 31> C -4.1395 1.0691 1.5738
| 32> O -3.4649 1.5372 2.5316
| 33> N -5.1780 1.7831 1.0196
| 34> C -5.5234 3.1096 1.5572
| 35> C -5.9419 1.2315 0.0041
| 36> O -6.9118 1.8839 -0.4768
| 37> N -5.6588 -0.0231 -0.4901
| 38> C -6.4385 -0.5905 -1.5982
| 39> H -2.7056 -4.0300 -0.4878
| 40> H -2.5120 -4.0143 1.3072
| 41> H -1.2788 -3.2100 0.2480
| 42> H -1.9954 -0.3677 3.1248
| 43> H -1.6460 -2.0818 2.7966
| 44> H -1.2021 1.2460 1.0453
| 45> H 4.8888 1.8003 -2.1771
| 46> H 7.1270 0.8939 -2.3855
| 47> H 4.0894 -0.9160 1.0870
| 48> H 3.1166 3.0145 -1.4354
| 49> H -4.6308 3.6230 1.9736
| 50> H -6.2854 2.9999 2.3569
| 51> H -5.9222 3.7738 0.7611
| 52> H -6.1368 -0.1065 -2.5507
| 53> H -7.5240 -0.4235 -1.4307
| 54> H -6.2855 -1.6871 -1.6888
| 55> *
| 56> 
| 57>                          ****END OF INPUT****
================================================================================

                       ****************************
                       * Single Point Calculation *
                       ****************************

---------------------------------
CARTESIAN COORDINATES (ANGSTROEM)
---------------------------------
  C     -2.359500   -3.426200    0.378000
  N     -3.113100   -2.179600    0.455200
  N     -4.155100   -1.911800   -0.324300
  C     -4.601800   -0.695300    0.041100
  C     -3.850500   -0.186800    1.054300
  C     -2.897400   -1.156200    1.321600
  C     -1.768200   -1.088200    2.314700
  C     -0.492400   -0.686200    1.636900
  O      0.470900   -1.498200    1.608000
  N     -0.376200    0.608500    1.025200
  C      0.805600    1.075400    0.362700
  N      1.974800    0.401000    0.329100
  C      2.936000    1.075100   -0.363100
  C      4.307800    0.526700   -0.515700
  C      5.191000    1.018700   -1.494000
  C      6.479700    0.490900   -1.620000
  C      6.913400   -0.541800   -0.768700
  O      8.199900   -1.100400   -0.848300
  C      9.210800   -0.713300   -1.777600
  F      8.778300   -0.935800   -3.073000
  F      9.529000    0.623000   -1.608800
  F     10.342300   -1.472300   -1.549500
  C      6.033200   -1.038500    0.199100
  F      6.431500   -2.035900    1.027200
  C      4.743200   -0.513800    0.323500
  C      2.518200    2.306700   -0.879300
  S      0.907900    2.538700   -0.451300
  C     -4.139500    1.069100    1.573800
  O     -3.464900    1.537200    2.531600
  N     -5.178000    1.783100    1.019600
  C     -5.523400    3.109600    1.557200
  C     -5.941900    1.231500    0.004100
  O     -6.911800    1.883900   -0.476800
  N     -5.658800   -0.023100   -0.490100
  C     -6.438500   -0.590500   -1.598200
  H     -2.705600   -4.030000   -0.487800
  H     -2.512000   -4.014300    1.307200
  H     -1.278800   -3.210000    0.248000
  H     -1.995400   -0.367700    3.124800
  H     -1.646000   -2.081800    2.796600
  H     -1.202100    1.246000    1.045300
  H      4.888800    1.800300   -2.177100
  H      7.127000    0.893900   -2.385500
  H      4.089400   -0.916000    1.087000
  H      3.116600    3.014500   -1.435400
  H     -4.630800    3.623000    1.973600
  H     -6.285400    2.999900    2.356900
  H     -5.922200    3.773800    0.761100
  H     -6.136800   -0.106500   -2.550700
  H     -7.524000   -0.423500   -1.430700
  H     -6.285500   -1.687100   -1.688800

----------------------------
CARTESIAN COORDINATES (A.U.)
----------------------------
  NO LB      ZA    FRAG     MASS         X           Y           Z
   0 C     6.0000    0    12.011   -4.458809   -6.474580    0.714316
   1 N     7.0000    0    14.007   -5.882906   -4.118847    0.860203
   2 N     7.0000    0    14.007   -7.852001   -3.612778   -0.612838
   3 C     6.0000    0    12.011   -8.696142   -1.313927    0.077668
   4 C     6.0000    0    12.011   -7.276390   -0.353001    1.992338
   5 C     6.0000    0    12.011   -5.475293   -2.184901    2.497462
   6 C     6.0000    0    12.011   -3.341414   -2.056400    4.374149
   7 C     6.0000    0    12.011   -0.930501   -1.296730    3.093293
   8 O     8.0000    0    15.999    0.889872   -2.831188    3.038680
   9 N     7.0000    0    14.007   -0.710915    1.149898    1.937347
  10 C     6.0000    0    12.011    1.522363    2.032211    0.685404
  11 N     7.0000    0    14.007    3.731831    0.757780    0.621909
  12 C     6.0000    0    12.011    5.548236    2.031645   -0.686160
  13 C     6.0000    0    12.011    8.140562    0.995319   -0.974532
  14 C     6.0000    0    12.011    9.809568    1.925064   -2.823251
  15 C     6.0000    0    12.011   12.244858    0.927667   -3.061356
  16 C     6.0000    0    12.011   13.064433   -1.023854   -1.452632
  17 O     8.0000    0    15.999   15.495565   -2.079455   -1.603055
  18 C     6.0000    0    12.011   17.405889   -1.347942   -3.359177
  19 F     9.0000    0    18.998   16.588583   -1.768406   -5.807128
  20 F     9.0000    0    18.998   18.007200    1.177299   -3.040191
  21 F     9.0000    0    18.998   19.544115   -2.782244   -2.928131
  22 C     6.0000    0    12.011   11.401096   -1.962481    0.376244
  23 F     9.0000    0    18.998   12.153774   -3.847293    1.941127
  24 C     6.0000    0    12.011    8.963349   -0.970941    0.611326
  25 C     6.0000    0    12.011    4.758708    4.359031   -1.661636
  26 S    16.0000    0    32.060    1.715682    4.797448   -0.852833
  27 C     6.0000    0    12.011   -7.822521    2.020306    2.974051
  28 O     8.0000    0    15.999   -6.547712    2.904887    4.784031
  29 N     7.0000    0    14.007   -9.785002    3.369571    1.926765
  30 C     6.0000    0    12.011  -10.437713    5.876292    2.942682
  31 C     6.0000    0    12.011  -11.228564    2.327198    0.007748
  32 O     8.0000    0    15.999  -13.061409    3.560055   -0.901021
  33 N     7.0000    0    14.007  -10.693582   -0.043653   -0.926155
  34 C     6.0000    0    12.011  -12.167002   -1.115883   -3.020160
  35 H     1.0000    0     1.008   -5.112843   -7.615596   -0.921808
  36 H     1.0000    0     1.008   -4.746992   -7.585928    2.470250
  37 H     1.0000    0     1.008   -2.416582   -6.066021    0.468652
  38 H     1.0000    0     1.008   -3.770760   -0.694852    5.905016
  39 H     1.0000    0     1.008   -3.110489   -3.934032    5.284808
  40 H     1.0000    0     1.008   -2.271640    2.354599    1.975331
  41 H     1.0000    0     1.008    9.238493    3.402074   -4.114123
  42 H     1.0000    0     1.008   13.468078    1.689226   -4.507942
  43 H     1.0000    0     1.008    7.727846   -1.730989    2.054132
  44 H     1.0000    0     1.008    5.889520    5.696579   -2.712513
  45 H     1.0000    0     1.008   -8.750944    6.846478    3.729563
  46 H     1.0000    0     1.008  -11.877685    5.668989    4.453896
  47 H     1.0000    0     1.008  -11.191336    7.131448    1.438271
  48 H     1.0000    0     1.008  -11.596871   -0.201256   -4.820124
  49 H     1.0000    0     1.008  -14.218299   -0.800299   -2.703631
  50 H     1.0000    0     1.008  -11.877874   -3.188157   -3.191369

--------------------------------
INTERNAL COORDINATES (ANGSTROEM)
--------------------------------
 C      0   0   0     0.000000000000     0.00000000     0.00000000
 N      1   0   0     1.458726965542     0.00000000     0.00000000
 N      2   1   0     1.328571070737   123.11960364     0.00000000
 C      3   2   1     1.346451001708   106.44483261   179.13257626
 C      4   3   2     1.359999330882   110.89862746   359.82909037
 C      2   1   3     1.358132176925   126.56029931   178.28469344
 C      6   2   1     1.505312010847   125.03266413     4.17987988
 C      7   6   2     1.499560762357   110.61712823    78.45741489
 O      8   7   6     1.260208752549   119.20712350   244.06114491
 N      8   7   6     1.436637539535   120.18950816    63.84686548
 C     10   8   7     1.433022365492   123.86054975   179.72281895
 N     11  10   8     1.350175159007   124.25754752   354.47313610
 C     12  11  10     1.362885574801   112.10594058   180.29400630
 C     13  12  11     1.485215324456   121.39704607   179.30700072
 C     14  13  12     1.406832303439   121.47798832   163.19868968
 C     15  14  13     1.398283422629   120.61377572   179.86950794
 C     16  15  14     1.406867680345   120.44171108     0.00000000
 O     17  16  15     1.404796202301   122.67751169   180.41090102
 C     18  17  16     1.426661736362   125.30478994   359.75242704
 F     19  18  17     1.383699266459   110.16376250   298.75007726
 F     19  18  17     1.383995075858   110.20913569    60.25790357
 F     19  18  17     1.381449550291   108.88939433   179.50975354
 C     17  16  15     1.399321181859   119.02204134     0.43142394
 F     23  17  16     1.356170807826   119.90942742   179.85190791
 C     23  17  16     1.398172181815   120.57613239   359.73861863
 C     13  12  11     1.399234733703   114.33921086     0.29043069
 S     11  10   8     1.677589991625   123.97340529   175.23406313
 C      5   4   3     1.389491295403   120.10520034   179.50188410
 O     28   5   4     1.261579807226   120.53084564   178.56394523
 N     28   5   4     1.376741039557   118.36859451   358.69869986
 C     30  28   5     1.472384857977   119.81526811   179.18326019
 C     30  28   5     1.385296365403   120.30089119     2.44965881
 O     32  30  28     1.263960671857   119.77040783   178.40954491
 N      4   3   2     1.360615772362   126.73675250   180.18207000
 C     34   4   3     1.468931741096   121.06616270   358.66714760
 H      1   2   3     1.110841703394   110.16946980     6.89467060
 H      1   2   3     1.110193901983   109.72073115   247.18274492
 H      1   2   3     1.109754445812   110.04763679   126.54241595
 H      7   6   2     1.107701268393   110.97771331   199.96779972
 H      7   6   2     1.111036187529   109.16312184   317.27098151
 H     10   8   7     1.043513809204   118.57715212   358.58583442
 H     15  14  13     1.081133206409   121.11265266   358.84918350
 H     16  15  14     1.080461262610   118.37225179   179.83588009
 H     25  23  17     1.082659470933   118.71775636   180.40590468
 H     26  13  12     1.080884179734   126.93278061   178.36368520
 H     31  30  28     1.110721963409   111.39452455    30.12165509
 H     31  30  28     1.110044224344   109.57508086   269.30124657
 H     31  30  28     1.110845754369   111.17569338   148.49366605
 H     35  34   4     1.110195991706   109.54604494   258.09055849
 H     35  34   4     1.110970521661   110.29339978   137.83268824
 H     35  34   4     1.110922553556   111.69743724    18.75998575

---------------------------
INTERNAL COORDINATES (A.U.)
---------------------------
 C      0   0   0     0.000000000000     0.00000000     0.00000000
 N      1   0   0     2.756594469041     0.00000000     0.00000000
 N      2   1   0     2.510635473144   123.11960364     0.00000000
 C      3   2   1     2.544423645972   106.44483261   179.13257626
 C      4   3   2     2.570026277683   110.89862746   359.82909037
 C      2   1   3     2.566497868055   126.56029931   178.28469344
 C      6   2   1     2.844627446603   125.03266413     4.17987988
 C      7   6   2     2.833759162028   110.61712823    78.45741489
 O      8   7   6     2.381449413887   119.20712350   244.06114491
 N      8   7   6     2.714851503431   120.18950816    63.84686548
 C     10   8   7     2.708019814564   123.86054975   179.72281895
 N     11  10   8     2.551461283347   124.25754752   354.47313610
 C     12  11  10     2.575480488245   112.10594058   180.29400630
 C     13  12  11     2.806650213126   121.39704607   179.30700072
 C     14  13  12     2.658527769854   121.47798832   163.19868968
 C     15  14  13     2.642372726372   120.61377572   179.86950794
 C     16  15  14     2.658594622518   120.44171108     0.00000000
 O     17  16  15     2.654680096322   122.67751169   180.41090102
 C     18  17  16     2.695999967469   125.30478994   359.75242704
 F     19  18  17     2.614812665316   110.16376250   298.75007726
 F     19  18  17     2.615371664068   110.20913569    60.25790357
 F     19  18  17     2.610561317879   108.88939433   179.50975354
 C     17  16  15     2.644333807109   119.02204134     0.43142394
 F     23  17  16     2.562791417610   119.90942742   179.85190791
 C     23  17  16     2.642162511697   120.57613239   359.73861863
 C     13  12  11     2.644170443768   114.33921086     0.29043069
 S     11  10   8     3.170185649178   123.97340529   175.23406313
 C      5   4   3     2.625758013779   120.10520034   179.50188410
 O     28   5   4     2.384040331742   120.53084564   178.56394523
 N     28   5   4     2.601663522092   118.36859451   358.69869986
 C     30  28   5     2.782404145309   119.81526811   179.18326019
 C     30  28   5     2.617830744929   120.30089119     2.44965881
 O     32  30  28     2.388539513856   119.77040783   178.40954491
 N      4   3   2     2.571191183258   126.73675250   180.18207000
 C     34   4   3     2.775878700096   121.06616270   358.66714760
 H      1   2   3     2.099186597554   110.16946980     6.89467060
 H      1   2   3     2.097962430297   109.72073115   247.18274492
 H      1   2   3     2.097131978487   110.04763679   126.54241595
 H      7   6   2     2.093252035460   110.97771331   199.96779972
 H      7   6   2     2.099554119307   109.16312184   317.27098151
 H     10   8   7     1.971955316361   118.57715212   358.58583442
 H     15  14  13     2.043045674401   121.11265266   358.84918350
 H     16  15  14     2.041775884643   118.37225179   179.83588009
 H     25  23  17     2.045929896359   118.71775636   180.40590468
 H     26  13  12     2.042575082186   126.93278061   178.36368520
 H     31  30  28     2.098960321775   111.39452455    30.12165509
 H     31  30  28     2.097679580552   109.57508086   269.30124657
 H     31  30  28     2.099194252787   111.17569338   148.49366605
 H     35  34   4     2.097966379301   109.54604494   258.09055849
 H     35  34   4     2.099430028799   110.29339978   137.83268824
 H     35  34   4     2.099339382218   111.69743724    18.75998575

---------------------
BASIS SET INFORMATION
---------------------
There are 6 groups of distinct atoms

 Group   1 Type C   : 10s4p1d contracted to 3s2p1d pattern {631/31/1}
 Group   2 Type N   : 10s4p1d contracted to 3s2p1d pattern {631/31/1}
 Group   3 Type O   : 10s4p1d contracted to 3s2p1d pattern {631/31/1}
 Group   4 Type F   : 10s4p1d contracted to 3s2p1d pattern {631/31/1}
 Group   5 Type S   : 16s10p1d contracted to 4s3p1d pattern {6631/631/1}
 Group   6 Type H   : 4s contracted to 2s pattern {31}

Atom   0C    basis set group =>   1
Atom   1N    basis set group =>   2
Atom   2N    basis set group =>   2
Atom   3C    basis set group =>   1
Atom   4C    basis set group =>   1
Atom   5C    basis set group =>   1
Atom   6C    basis set group =>   1
Atom   7C    basis set group =>   1
Atom   8O    basis set group =>   3
Atom   9N    basis set group =>   2
Atom  10C    basis set group =>   1
Atom  11N    basis set group =>   2
Atom  12C    basis set group =>   1
Atom  13C    basis set group =>   1
Atom  14C    basis set group =>   1
Atom  15C    basis set group =>   1
Atom  16C    basis set group =>   1
Atom  17O    basis set group =>   3
Atom  18C    basis set group =>   1
Atom  19F    basis set group =>   4
Atom  20F    basis set group =>   4
Atom  21F    basis set group =>   4
Atom  22C    basis set group =>   1
Atom  23F    basis set group =>   4
Atom  24C    basis set group =>   1
Atom  25C    basis set group =>   1
Atom  26S    basis set group =>   5
Atom  27C    basis set group =>   1
Atom  28O    basis set group =>   3
Atom  29N    basis set group =>   2
Atom  30C    basis set group =>   1
Atom  31C    basis set group =>   1
Atom  32O    basis set group =>   3
Atom  33N    basis set group =>   2
Atom  34C    basis set group =>   1
Atom  35H    basis set group =>   6
Atom  36H    basis set group =>   6
Atom  37H    basis set group =>   6
Atom  38H    basis set group =>   6
Atom  39H    basis set group =>   6
Atom  40H    basis set group =>   6
Atom  41H    basis set group =>   6
Atom  42H    basis set group =>   6
Atom  43H    basis set group =>   6
Atom  44H    basis set group =>   6
Atom  45H    basis set group =>   6
Atom  46H    basis set group =>   6
Atom  47H    basis set group =>   6
Atom  48H    basis set group =>   6
Atom  49H    basis set group =>   6
Atom  50H    basis set group =>   6
---------------------------------
AUXILIARY/J BASIS SET INFORMATION
---------------------------------
There are 6 groups of distinct atoms

 Group   1 Type C   : 12s5p4d2f1g contracted to 6s4p3d1f1g pattern {711111/2111/211/2/1}
 Group   2 Type N   : 12s5p4d2f1g contracted to 6s4p3d1f1g pattern {711111/2111/211/2/1}
 Group   3 Type O   : 12s5p4d2f1g contracted to 6s4p3d1f1g pattern {711111/2111/211/2/1}
 Group   4 Type F   : 12s5p4d2f1g contracted to 6s4p3d1f1g pattern {711111/2111/211/2/1}
 Group   5 Type S   : 14s5p5d2f1g contracted to 8s4p3d1f1g pattern {71111111/2111/311/2/1}
 Group   6 Type H   : 5s2p1d contracted to 3s1p1d pattern {311/2/1}

Atom   0C    basis set group =>   1
Atom   1N    basis set group =>   2
Atom   2N    basis set group =>   2
Atom   3C    basis set group =>   1
Atom   4C    basis set group =>   1
Atom   5C    basis set group =>   1
Atom   6C    basis set group =>   1
Atom   7C    basis set group =>   1
Atom   8O    basis set group =>   3
Atom   9N    basis set group =>   2
Atom  10C    basis set group =>   1
Atom  11N    basis set group =>   2
Atom  12C    basis set group =>   1
Atom  13C    basis set group =>   1
Atom  14C    basis set group =>   1
Atom  15C    basis set group =>   1
Atom  16C    basis set group =>   1
Atom  17O    basis set group =>   3
Atom  18C    basis set group =>   1
Atom  19F    basis set group =>   4
Atom  20F    basis set group =>   4
Atom  21F    basis set group =>   4
Atom  22C    basis set group =>   1
Atom  23F    basis set group =>   4
Atom  24C    basis set group =>   1
Atom  25C    basis set group =>   1
Atom  26S    basis set group =>   5
Atom  27C    basis set group =>   1
Atom  28O    basis set group =>   3
Atom  29N    basis set group =>   2
Atom  30C    basis set group =>   1
Atom  31C    basis set group =>   1
Atom  32O    basis set group =>   3
Atom  33N    basis set group =>   2
Atom  34C    basis set group =>   1
Atom  35H    basis set group =>   6
Atom  36H    basis set group =>   6
Atom  37H    basis set group =>   6
Atom  38H    basis set group =>   6
Atom  39H    basis set group =>   6
Atom  40H    basis set group =>   6
Atom  41H    basis set group =>   6
Atom  42H    basis set group =>   6
Atom  43H    basis set group =>   6
Atom  44H    basis set group =>   6
Atom  45H    basis set group =>   6
Atom  46H    basis set group =>   6
Atom  47H    basis set group =>   6
Atom  48H    basis set group =>   6
Atom  49H    basis set group =>   6
Atom  50H    basis set group =>   6
------------------------------------------------------------------------------
                             ORCA STARTUP CALCULATIONS
                           -- RI-GTO INTEGRALS CHOSEN --
------------------------------------------------------------------------------
------------------------------------------------------------------------------
                   ___                                                        
                  /   \      - P O W E R E D   B Y -                         
                 /     \                                                     
                 |  |  |   _    _      __       _____    __    __             
                 |  |  |  | |  | |    /  \     |  _  \  |  |  /  |          
                  \  \/   | |  | |   /    \    | | | |  |  | /  /          
                 / \  \   | |__| |  /  /\  \   | |_| |  |  |/  /          
                |  |  |   |  __  | /  /__\  \  |    /   |      \           
                |  |  |   | |  | | |   __   |  |    \   |  |\   \          
                \     /   | |  | | |  |  |  |  | |\  \  |  | \   \       
                 \___/    |_|  |_| |__|  |__|  |_| \__\ |__|  \__/        
                                                                              
                      - O R C A' S   B I G   F R I E N D -                    
                                      &                                       
                       - I N T E G R A L  F E E D E R -                       
                                                                              
 v1 FN, 2020, v2 2021, v3 2022-2024                                           
------------------------------------------------------------------------------


----------------------
SHARK INTEGRAL PACKAGE
----------------------

Number of atoms                             ...     51
Number of basis functions                   ...    526
Number of shells                            ...    244
Maximum angular momentum                    ...      2
Integral batch strategy                     ... SHARK/LIBINT Hybrid
RI-J (if used) integral strategy            ... SPLIT-RIJ (Revised 2003 algorithm where possible)
Printlevel                                  ...      1
Contraction scheme used                     ... SEGMENTED contraction
Prescreening option                         ... SCHWARTZ
   Thresh                                   ... 1.000e-10
   Tcut                                     ... 1.000e-11
   Tpresel                                  ... 1.000e-11 
Coulomb Range Separation                    ... NOT USED
Exchange Range Separation                   ... NOT USED
Multipole approximations                    ... NOT USED
Finite Nucleus Model                        ... NOT USED
CABS basis                                  ... NOT available
Auxiliary Coulomb fitting basis             ... AVAILABLE
   # of basis functions in Aux-J            ...   1893
   # of shells in Aux-J                     ...    607
   Maximum angular momentum in Aux-J        ...      4
Auxiliary J/K fitting basis                 ... NOT available
Auxiliary Correlation fitting basis         ... NOT available
Auxiliary 'external' fitting basis          ... NOT available

Checking pre-screening integrals            ... done (  0.0 sec) Dimension = 244
Check shell pair data                       ... done (  0.0 sec)
Shell pair information
Shell pair cut-off parameter TPreSel        ...   1.0e-11
Total number of shell pairs                 ...     29890
Shell pairs after pre-screening             ...     14130
Total number of primitive shell pairs       ...    181714
Primitive shell pairs kept                  ...     45072
          la=0 lb=0:   4258 shell pairs
          la=1 lb=0:   4991 shell pairs
          la=1 lb=1:   1489 shell pairs
          la=2 lb=0:   1946 shell pairs
          la=2 lb=1:   1200 shell pairs
          la=2 lb=2:    246 shell pairs

Calculating one electron integrals          ... done (  0.2 sec)
Calculating RI/J V-Matrix + Cholesky decomp.... done (  0.5 sec)
Calculating Nuclear repulsion               ... done (  0.0 sec) ENN=   3704.777091243153 Eh

Diagonalization of the overlap matrix:
Smallest eigenvalue                        ... 4.647e-04
Time for diagonalization                   ...    0.046 sec
Threshold for overlap eigenvalues          ... 1.000e-07
Number of eigenvalues below threshold      ... 0
Time for construction of square roots      ...    0.036 sec
Total time needed                          ...    0.093 sec

-------------------
DFT GRID GENERATION
-------------------

General Integration Accuracy     IntAcc      ... 4.388
Radial Grid Type                 RadialGrid  ... OptM3 with GC (2021)
Angular Grid (max. ang.)         AngularGrid ... 4 (Lebedev-302)
Angular grid pruning method      GridPruning ... 4 (adaptive)
Weight generation scheme         WeightScheme... mBecke (2022)
Basis function cutoff            BFCut       ... 1.0000e-10
Integration weight cutoff        WCut        ... 1.0000e-14
Partially contracted basis set               ... off
Rotationally invariant grid construction     ... off
Angular grids for H and He will be reduced by one unit

Total number of grid points                  ...   262493
Total number of batches                      ...     4125
Average number of points per batch           ...       63
Average number of grid points per atom       ...     5147

--------------------
COSX GRID GENERATION
--------------------

GRIDX 1
-------
General Integration Accuracy     IntAcc      ... 3.816
Radial Grid Type                 RadialGrid  ... OptM3 with GC (2021)
Angular Grid (max. ang.)         AngularGrid ... 1 (Lebedev-50)
Angular grid pruning method      GridPruning ... 4 (adaptive)
Weight generation scheme         WeightScheme... mBecke (2022)
Basis function cutoff            BFCut       ... 1.0000e-10
Integration weight cutoff        WCut        ... 1.0000e-14
Partially contracted basis set               ... on
Rotationally invariant grid construction     ... off
Angular grids for H and He will be reduced by one unit

Total number of grid points                  ...    34207
Total number of batches                      ...      298
Average number of points per batch           ...      114
Average number of grid points per atom       ...      671
UseSFitting                                  ... on

GRIDX 2
-------
General Integration Accuracy     IntAcc      ... 4.020
Radial Grid Type                 RadialGrid  ... OptM3 with GC (2021)
Angular Grid (max. ang.)         AngularGrid ... 2 (Lebedev-110)
Angular grid pruning method      GridPruning ... 4 (adaptive)
Weight generation scheme         WeightScheme... mBecke (2022)
Basis function cutoff            BFCut       ... 1.0000e-10
Integration weight cutoff        WCut        ... 1.0000e-14
Partially contracted basis set               ... on
Rotationally invariant grid construction     ... off
Angular grids for H and He will be reduced by one unit

Total number of grid points                  ...    73879
Total number of batches                      ...      604
Average number of points per batch           ...      122
Average number of grid points per atom       ...     1449
UseSFitting                                  ... on

GRIDX 3
-------
General Integration Accuracy     IntAcc      ... 4.338
Radial Grid Type                 RadialGrid  ... OptM3 with GC (2021)
Angular Grid (max. ang.)         AngularGrid ... 3 (Lebedev-194)
Angular grid pruning method      GridPruning ... 4 (adaptive)
Weight generation scheme         WeightScheme... mBecke (2022)
Basis function cutoff            BFCut       ... 1.0000e-10
Integration weight cutoff        WCut        ... 1.0000e-14
Partially contracted basis set               ... on
Rotationally invariant grid construction     ... off
Angular grids for H and He will be reduced by one unit

Total number of grid points                  ...   162647
Total number of batches                      ...     1299
Average number of points per batch           ...      125
Average number of grid points per atom       ...     3189
UseSFitting                                  ... on
Initializing property integral containers    ... done (  0.0 sec)

SHARK setup successfully completed in  13.5 seconds

Maximum memory used throughout the entire STARTUP-calculation: 110.3 MB
-------------------------------------------------------------------------------
                                 ORCA GUESS
                   Start orbitals & Density for SCF / CASSCF
-------------------------------------------------------------------------------

------------
SCF SETTINGS
------------
Hamiltonian:
 Density Functional     Method          .... DFT(GTOs)
 Exchange Functional    Exchange        .... B88
   X-Alpha parameter    XAlpha          ....  0.666667
   Becke's b parameter  XBeta           ....  0.004200
 Correlation Functional Correlation     .... LYP
 LDA part of GGA corr.  LDAOpt          .... VWN-5
 Gradients option       PostSCFGGA      .... off
 Hybrid DFT is turned on
   Fraction HF Exchange ScalHFX         ....  0.200000
   Scaling of DF-GGA-X  ScalDFX         ....  0.720000
   Scaling of DF-GGA-C  ScalDFC         ....  0.810000
   Scaling of DF-LDA-C  ScalLDAC        ....  1.000000
   Perturbative correction              ....  0.000000
   NL short-range parameter             ....  4.800000
 RI-approximation to the Coulomb term is turned on
   Number of AuxJ basis functions       .... 1893
   RIJ-COSX (HFX calculated with COS-X)).... on


General Settings:
 Integral files         IntName         .... /home/nmrbox/aojoawo/Documents/ERDOS/inputs/CHEMBL3900789
 Hartree-Fock type      HFTyp           .... RHF
 Total Charge           Charge          ....    0
 Multiplicity           Mult            ....    1
 Number of Electrons    NEL             ....  262
 Basis Dimension        Dim             ....  526
 Nuclear Repulsion      ENuc            ....   3704.7770912432 Eh

Convergence Acceleration:
 AO-DIIS                CNVDIIS         .... on
   Start iteration      DIISMaxIt       ....    12
   Startup error        DIISStart       ....  0.200000
   # of expansion vecs  DIISMaxEq       ....     5
   Bias factor          DIISBfac        ....   1.050
   Max. coefficient     DIISMaxC        ....  10.000
 MO-DIIS                CNVKDIIS        .... off
 Trust-Rad. Augm. Hess. CNVTRAH         .... auto
   Auto Start mean grad. ratio tolernc. ....  1.125000
   Auto Start start iteration           ....    50
   Auto Start num. interpolation iter.  ....    10
   Max. Number of Micro iterations      ....    24
   Max. Number of Macro iterations      .... Maxiter - #DIIS iter
   Number of Davidson start vectors     ....     2
   Converg. threshold    (grad. norm)   ....   5.000e-05
   Grad. Scal. Fac. for Micro threshold ....   0.100
   Minimum threshold for Micro iter.    ....   1.000e-02
   NR start threshold (gradient norm)   ....   1.000e-04
   Initial trust radius                 ....   0.400
   Minimum AH scaling param. (alpha)    ....   1.000
   Maximum AH scaling param. (alpha)    .... 1000.000
   Quad. conv. algorithm                .... NR
   White noise on init. David. guess    .... on
   Maximum white noise                  ....   0.010
   Pseudo random numbers                .... off
   Inactive MOs                         .... canonical
   Orbital update algorithm             .... Taylor
   Preconditioner                       .... Diag
   Full preconditioner red. dimension   ....   250
 SOSCF                  CNVSOSCF        .... on
   Start iteration      SOSCFMaxIt      ....   150
   Startup grad/error   SOSCFStart      ....  0.003300
   Hessian update       SOSCFHessUp     .... L-BFGS
 Level Shifting         CNVShift        .... on
   Level shift para.    LevelShift      ....    0.2500
   Turn off err/grad.   ShiftErr        ....    0.0010
 Zerner damping         CNVZerner       .... off
 Static damping         CNVDamp         .... on
   Fraction old density DampFac         ....    0.7000
   Max. Damping (<1)    DampMax         ....    0.9800
   Min. Damping (>=0)   DampMin         ....    0.0000
   Turn off err/grad.   DampErr         ....    0.1000

SCF Procedure:
 Maximum # iterations   MaxIter         ....   125
 SCF integral mode      SCFMode         .... Direct
   Integral package                     .... SHARK and LIBINT hybrid scheme
 Reset frequency        DirectResetFreq ....    20
 Integral Threshold     Thresh          ....  1.000e-10 Eh
 Primitive CutOff       TCut            ....  1.000e-11 Eh

Convergence Tolerance:
 Convergence Check Mode ConvCheckMode   .... Total+1el-Energy
 Convergence forced     ConvForced      .... 0
 Energy Change          TolE            ....  1.000e-06 Eh
 1-El. energy change                    ....  1.000e-03 Eh
 Orbital Gradient       TolG            ....  5.000e-05
 Orbital Rotation angle TolX            ....  5.000e-05
 DIIS Error             TolErr          ....  1.000e-06

------------------------------
INITIAL GUESS: MODEL POTENTIAL
------------------------------
Loading Hartree-Fock densities                     ... done
Calculating cut-offs                               ... done
Initializing the effective Hamiltonian             ... done
Setting up the integral package (SHARK)            ... done
Starting the Coulomb interaction                   ... done (   3.6 sec)
Making the grid                                    ... done (   1.7 sec)
Mapping shells                                     ... done
Starting the XC term evaluation                    ... done (   1.2 sec)
  promolecular density results
     # of electrons  =    261.982680664
     EX              =   -245.126952650
     EC              =     -9.354942516
     EX+EC           =   -254.481895166
Transforming the Hamiltonian                       ... done (   0.0 sec)
Diagonalizing the Hamiltonian                      ... done (   0.1 sec)
Back transforming the eigenvectors                 ... done (   0.0 sec)
Now organizing SCF variables                       ... done
                      ------------------
                      INITIAL GUESS DONE (   6.6 sec)
                      ------------------
             **** ENERGY FILE WAS UPDATED (/home/nmrbox/aojoawo/Documents/ERDOS/inputs/CHEMBL3900789.en.tmp) ****
Finished Guess after   6.8 sec
Maximum memory used throughout the entire GUESS-calculation: 59.9 MB

-------------------------------------------------------------------------------------------
                                      ORCA LEAN-SCF
                              memory conserving SCF solver
-------------------------------------------------------------------------------------------

----------------------------------------D-I-I-S--------------------------------------------
Iteration    Energy (Eh)           Delta-E    RMSDP     MaxDP     DIISErr   Damp  Time(sec)
-------------------------------------------------------------------------------------------
               ***  Starting incremental Fock matrix formation  ***
    1    -2196.7708372418228464     0.00e+00  2.46e-03  1.15e-01  2.85e-01  0.700  65.8
    2    -2197.2269642818273496    -4.56e-01  1.44e-03  6.01e-02  9.88e-02  0.700  29.4
                               ***Turning on AO-DIIS***
    3    -2197.3713660536332100    -1.44e-01  5.37e-04  2.32e-02  3.69e-02  0.700  28.4
    4    -2197.4701925450162889    -9.88e-02  9.84e-04  6.13e-02  1.73e-02  0.000  26.3
    5    -2197.6972085157904075    -2.27e-01  2.45e-04  1.18e-02  8.76e-03  0.000  27.9
                              *** Initializing SOSCF ***
---------------------------------------S-O-S-C-F--------------------------------------
Iteration    Energy (Eh)           Delta-E    RMSDP     MaxDP     MaxGrad    Time(sec)
--------------------------------------------------------------------------------------
    6    -2197.6989754372962125    -1.77e-03  8.94e-05  4.14e-03  2.97e-03    23.1
               *** Restarting incremental Fock matrix formation ***
    7    -2197.6991781836641167    -2.03e-04  7.75e-05  3.82e-03  6.26e-04    64.1
    8    -2197.6991044892629361     7.37e-05  4.79e-05  2.51e-03  1.44e-03    38.2
    9    -2197.6992206851291485    -1.16e-04  8.93e-06  4.62e-04  5.94e-05    33.6
   10    -2197.6992193444648365     1.34e-06  5.76e-06  3.44e-04  1.10e-04    26.5
   11    -2197.6992211757806217    -1.83e-06  2.31e-06  1.20e-04  1.97e-05    23.1
   12    -2197.6992211337274057     4.21e-08  1.36e-06  6.94e-05  2.87e-05    20.3
                 **** Energy Check signals convergence ****

               *****************************************************
               *                     SUCCESS                       *
               *           SCF CONVERGED AFTER  12 CYCLES          *
               *****************************************************

Recomputing exchange energy using gridx3       ... done (  112.795 sec)
Old exchange energy                            :    -49.440594027 Eh
New exchange energy                            :    -49.440655587 Eh
Exchange energy change after final integration :     -0.000061560 Eh
Total energy after final integration           :  -2197.699282694 Eh
             **** ENERGY FILE WAS UPDATED (/home/nmrbox/aojoawo/Documents/ERDOS/inputs/CHEMBL3900789.en.tmp) ****

----------------
TOTAL SCF ENERGY
----------------

Total Energy       :      -2197.69928269409684 Eh          -59802.43778 eV

Components:
Nuclear Repulsion  :       3704.77709124315334 Eh          100812.10984 eV
Electronic Energy  :      -5902.47631237688074 Eh         -160614.54595 eV
One Electron Energy:     -10387.37862169832442 Eh         -282654.94220 eV
Two Electron Energy:       4484.90230932144368 Eh          122040.39625 eV

Virial components:
Potential Energy   :      -4383.59147614685753 Eh         -119283.58833 eV
Kinetic Energy     :       2185.89219345276024 Eh           59481.15055 eV
Virial Ratio       :          2.00540149659562

DFT components:
N(Alpha)           :      130.999879367250 electrons
N(Beta)            :      130.999879367250 electrons
N(Total)           :      261.999758734500 electrons
E(X)               :     -196.658357369169 Eh       
E(C)               :      -10.969986185775 Eh       
E(XC)              :     -207.628343554944 Eh       

---------------
SCF CONVERGENCE
---------------

  Last Energy change         ...   -4.2053e-08  Tolerance :   1.0000e-06
  Last MAX-Density change    ...    6.9371e-05  Tolerance :   1.0000e-05
  Last RMS-Density change    ...    1.3573e-06  Tolerance :   1.0000e-06
  Last DIIS Error            ...    2.9679e-03  Tolerance :   1.0000e-06
  Last Orbital Gradient      ...    2.8690e-05  Tolerance :   5.0000e-05
  Last Orbital Rotation      ...    4.1762e-05  Tolerance :   5.0000e-05


----------------
ORBITAL ENERGIES
----------------

  NO   OCC          E(Eh)            E(eV) 
   0   2.0000     -88.911711     -2419.4107 
   1   2.0000     -24.739975      -673.2089 
   2   2.0000     -24.738656      -673.1731 
   3   2.0000     -24.738510      -673.1691 
   4   2.0000     -24.700554      -672.1362 
   5   2.0000     -19.213043      -522.8135 
   6   2.0000     -19.128682      -520.5179 
   7   2.0000     -19.123373      -520.3734 
   8   2.0000     -19.115469      -520.1584 
   9   2.0000     -14.442064      -392.9885 
  10   2.0000     -14.403096      -391.9282 
  11   2.0000     -14.402055      -391.8998 
  12   2.0000     -14.398679      -391.8080 
  13   2.0000     -14.359803      -390.7501 
  14   2.0000     -14.329826      -389.9344 
  15   2.0000     -10.503824      -285.8236 
  16   2.0000     -10.331141      -281.1246 
  17   2.0000     -10.313745      -280.6513 
  18   2.0000     -10.304138      -280.3899 
  19   2.0000     -10.294559      -280.1292 
  20   2.0000     -10.277777      -279.6725 
  21   2.0000     -10.271262      -279.4953 
  22   2.0000     -10.261076      -279.2181 
  23   2.0000     -10.254429      -279.0372 
  24   2.0000     -10.245151      -278.7847 
  25   2.0000     -10.230727      -278.3922 
  26   2.0000     -10.228390      -278.3286 
  27   2.0000     -10.225092      -278.2389 
  28   2.0000     -10.220604      -278.1168 
  29   2.0000     -10.213930      -277.9352 
  30   2.0000     -10.208060      -277.7754 
  31   2.0000     -10.201633      -277.6006 
  32   2.0000     -10.197515      -277.4885 
  33   2.0000     -10.195530      -277.4345 
  34   2.0000     -10.193473      -277.3785 
  35   2.0000      -7.989377      -217.4020 
  36   2.0000      -5.952457      -161.9746 
  37   2.0000      -5.948343      -161.8626 
  38   2.0000      -5.946196      -161.8042 
  39   2.0000      -1.303231       -35.4627 
  40   2.0000      -1.224300       -33.3149 
  41   2.0000      -1.223265       -33.2867 
  42   2.0000      -1.213629       -33.0245 
  43   2.0000      -1.090400       -29.6713 
  44   2.0000      -1.082179       -29.4476 
  45   2.0000      -1.067001       -29.0346 
  46   2.0000      -1.031531       -28.0694 
  47   2.0000      -1.028986       -28.0001 
  48   2.0000      -0.980091       -26.6696 
  49   2.0000      -0.973356       -26.4864 
  50   2.0000      -0.946040       -25.7431 
  51   2.0000      -0.920937       -25.0600 
  52   2.0000      -0.868850       -23.6426 
  53   2.0000      -0.862426       -23.4678 
  54   2.0000      -0.844060       -22.9681 
  55   2.0000      -0.817540       -22.2464 
  56   2.0000      -0.790531       -21.5114 
  57   2.0000      -0.779698       -21.2167 
  58   2.0000      -0.757480       -20.6121 
  59   2.0000      -0.748655       -20.3719 
  60   2.0000      -0.734385       -19.9836 
  61   2.0000      -0.730012       -19.8646 
  62   2.0000      -0.719048       -19.5663 
  63   2.0000      -0.699372       -19.0309 
  64   2.0000      -0.659995       -17.9594 
  65   2.0000      -0.653568       -17.7845 
  66   2.0000      -0.648032       -17.6338 
  67   2.0000      -0.634042       -17.2532 
  68   2.0000      -0.622277       -16.9330 
  69   2.0000      -0.606337       -16.4993 
  70   2.0000      -0.604630       -16.4528 
  71   2.0000      -0.595597       -16.2070 
  72   2.0000      -0.591272       -16.0893 
  73   2.0000      -0.581949       -15.8357 
  74   2.0000      -0.571420       -15.5491 
  75   2.0000      -0.558323       -15.1927 
  76   2.0000      -0.547732       -14.9045 
  77   2.0000      -0.534360       -14.5407 
  78   2.0000      -0.521296       -14.1852 
  79   2.0000      -0.512910       -13.9570 
  80   2.0000      -0.510320       -13.8865 
  81   2.0000      -0.501185       -13.6379 
  82   2.0000      -0.498761       -13.5720 
  83   2.0000      -0.493380       -13.4255 
  84   2.0000      -0.488373       -13.2893 
  85   2.0000      -0.477755       -13.0004 
  86   2.0000      -0.471541       -12.8313 
  87   2.0000      -0.471517       -12.8306 
  88   2.0000      -0.469138       -12.7659 
  89   2.0000      -0.462425       -12.5832 
  90   2.0000      -0.460790       -12.5387 
  91   2.0000      -0.460059       -12.5189 
  92   2.0000      -0.456771       -12.4294 
  93   2.0000      -0.445616       -12.1258 
  94   2.0000      -0.440962       -11.9992 
  95   2.0000      -0.438958       -11.9446 
  96   2.0000      -0.437119       -11.8946 
  97   2.0000      -0.434330       -11.8187 
  98   2.0000      -0.432607       -11.7718 
  99   2.0000      -0.429045       -11.6749 
 100   2.0000      -0.426053       -11.5935 
 101   2.0000      -0.423640       -11.5278 
 102   2.0000      -0.421333       -11.4651 
 103   2.0000      -0.415562       -11.3080 
 104   2.0000      -0.414425       -11.2771 
 105   2.0000      -0.403527       -10.9805 
 106   2.0000      -0.398510       -10.8440 
 107   2.0000      -0.397553       -10.8180 
 108   2.0000      -0.397259       -10.8100 
 109   2.0000      -0.394117       -10.7245 
 110   2.0000      -0.386102       -10.5064 
 111   2.0000      -0.384713       -10.4686 
 112   2.0000      -0.382408       -10.4059 
 113   2.0000      -0.379910       -10.3379 
 114   2.0000      -0.361167        -9.8279 
 115   2.0000      -0.355700        -9.6791 
 116   2.0000      -0.352150        -9.5825 
 117   2.0000      -0.329509        -8.9664 
 118   2.0000      -0.313571        -8.5327 
 119   2.0000      -0.308004        -8.3812 
 120   2.0000      -0.294222        -8.0062 
 121   2.0000      -0.289372        -7.8742 
 122   2.0000      -0.279332        -7.6010 
 123   2.0000      -0.274155        -7.4601 
 124   2.0000      -0.270254        -7.3540 
 125   2.0000      -0.257892        -7.0176 
 126   2.0000      -0.255461        -6.9515 
 127   2.0000      -0.249158        -6.7799 
 128   2.0000      -0.244032        -6.6404 
 129   2.0000      -0.229614        -6.2481 
 130   2.0000      -0.213623        -5.8130 
 131   0.0000      -0.049872        -1.3571 
 132   0.0000      -0.039033        -1.0622 
 133   0.0000      -0.024952        -0.6790 
 134   0.0000      -0.008947        -0.2434 
 135   0.0000       0.008464         0.2303 
 136   0.0000       0.016095         0.4380 
 137   0.0000       0.018373         0.5000 
 138   0.0000       0.029041         0.7902 
 139   0.0000       0.059848         1.6285 
 140   0.0000       0.065143         1.7726 
 141   0.0000       0.071942         1.9576 
*Only the first 10 virtual orbitals were printed.

                    ********************************
                    * MULLIKEN POPULATION ANALYSIS *
                    ********************************

-----------------------
MULLIKEN ATOMIC CHARGES
-----------------------
   0 C :   -0.343354
   1 N :   -0.253329
   2 N :   -0.342330
   3 C :    0.461504
   4 C :   -0.065385
   5 C :    0.291703
   6 C :   -0.426932
   7 C :    0.565380
   8 O :   -0.431422
   9 N :   -0.661848
  10 C :    0.253466
  11 N :   -0.376796
  12 C :    0.215731
  13 C :    0.130834
  14 C :   -0.182519
  15 C :   -0.190143
  16 C :    0.283654
  17 O :   -0.537728
  18 C :    1.088589
  19 F :   -0.291249
  20 F :   -0.291587
  21 F :   -0.277273
  22 C :    0.378182
  23 F :   -0.305819
  24 C :   -0.263420
  25 C :   -0.394864
  26 S :    0.258274
  27 C :    0.499615
  28 O :   -0.517602
  29 N :   -0.486618
  30 C :   -0.315870
  31 C :    0.676037
  32 O :   -0.505633
  33 N :   -0.492003
  34 C :   -0.323368
  35 H :    0.201826
  36 H :    0.183700
  37 H :    0.212926
  38 H :    0.223932
  39 H :    0.188539
  40 H :    0.361068
  41 H :    0.134016
  42 H :    0.159636
  43 H :    0.191777
  44 H :    0.183623
  45 H :    0.191713
  46 H :    0.180095
  47 H :    0.196219
  48 H :    0.178243
  49 H :    0.192482
  50 H :    0.194330
Sum of atomic charges:    0.0000000

--------------------------------
MULLIKEN REDUCED ORBITAL CHARGES
--------------------------------
  0 C s       :     3.283232  s :     3.283232
      pz      :     1.117535  p :     3.014664
      px      :     1.040517
      py      :     0.856612
      dz2     :     0.008832  d :     0.045457
      dxz     :     0.003125
      dyz     :     0.011297
      dx2y2   :     0.011403
      dxy     :     0.010802

  1 N s       :     3.539031  s :     3.539031
      pz      :     1.248012  p :     3.648575
      px      :     1.209109
      py      :     1.191453
      dz2     :     0.015259  d :     0.065723
      dxz     :     0.010095
      dyz     :     0.011607
      dx2y2   :     0.013471
      dxy     :     0.015291

  2 N s       :     3.681731  s :     3.681731
      pz      :     1.303332  p :     3.607875
      px      :     1.034706
      py      :     1.269837
      dz2     :     0.008731  d :     0.052723
      dxz     :     0.013645
      dyz     :     0.009453
      dx2y2   :     0.014348
      dxy     :     0.006547

  3 C s       :     2.930242  s :     2.930242
      pz      :     0.931900  p :     2.528631
      px      :     0.797769
      py      :     0.798961
      dz2     :     0.013926  d :     0.079623
      dxz     :     0.011733
      dyz     :     0.016128
      dx2y2   :     0.019580
      dxy     :     0.018256

  4 C s       :     3.149960  s :     3.149960
      pz      :     0.983465  p :     2.875347
      px      :     0.996075
      py      :     0.895807
      dz2     :     0.008116  d :     0.040079
      dxz     :     0.006142
      dyz     :     0.008034
      dx2y2   :     0.008706
      dxy     :     0.009080

  5 C s       :     3.062582  s :     3.062582
      pz      :     0.810180  p :     2.586881
      px      :     0.915962
      py      :     0.860739
      dz2     :     0.009953  d :     0.058834
      dxz     :     0.009021
      dyz     :     0.015262
      dx2y2   :     0.012754
      dxy     :     0.011843

  6 C s       :     3.294815  s :     3.294815
      pz      :     1.027054  p :     3.093530
      px      :     0.959875
      py      :     1.106601
      dz2     :     0.004839  d :     0.038586
      dxz     :     0.010017
      dyz     :     0.009482
      dx2y2   :     0.009785
      dxy     :     0.004462

  7 C s       :     3.007922  s :     3.007922
      pz      :     0.796245  p :     2.327759
      px      :     0.812514
      py      :     0.719001
      dz2     :     0.008506  d :     0.098938
      dxz     :     0.014398
      dyz     :     0.017658
      dx2y2   :     0.036838
      dxy     :     0.021538

  8 O s       :     3.896419  s :     3.896419
      pz      :     1.488862  p :     4.508758
      px      :     1.477272
      py      :     1.542625
      dz2     :     0.002514  d :     0.026245
      dxz     :     0.005447
      dyz     :     0.003519
      dx2y2   :     0.006957
      dxy     :     0.007809

  9 N s       :     3.624354  s :     3.624354
      pz      :     1.528516  p :     4.009265
      px      :     1.232931
      py      :     1.247818
      dz2     :     0.005084  d :     0.028229
      dxz     :     0.003843
      dyz     :     0.003900
      dx2y2   :     0.004915
      dxy     :     0.010487

 10 C s       :     3.046567  s :     3.046567
      pz      :     0.954876  p :     2.626156
      px      :     0.792620
      py      :     0.878661
      dz2     :     0.009827  d :     0.073811
      dxz     :     0.016532
      dyz     :     0.008601
      dx2y2   :     0.021720
      dxy     :     0.017131

 11 N s       :     3.733811  s :     3.733811
      pz      :     1.228068  p :     3.603522
      px      :     0.984119
      py      :     1.391335
      dz2     :     0.006203  d :     0.039463
      dxz     :     0.006826
      dyz     :     0.007226
      dx2y2   :     0.006392
      dxy     :     0.012816

 12 C s       :     3.059009  s :     3.059009
      pz      :     0.929316  p :     2.665648
      px      :     0.875752
      py      :     0.860580
      dz2     :     0.008541  d :     0.059612
      dxz     :     0.010455
      dyz     :     0.008818
      dx2y2   :     0.016506
      dxy     :     0.015292

 13 C s       :     3.133895  s :     3.133895
      pz      :     0.883330  p :     2.695073
      px      :     0.905831
      py      :     0.905912
      dz2     :     0.007960  d :     0.040198
      dxz     :     0.008705
      dyz     :     0.006338
      dx2y2   :     0.008781
      dxy     :     0.008414

 14 C s       :     3.192925  s :     3.192925
      pz      :     0.989508  p :     2.953583
      px      :     0.970349
      py      :     0.993725
      dz2     :     0.005133  d :     0.036012
      dxz     :     0.008294
      dyz     :     0.007390
      dx2y2   :     0.007453
      dxy     :     0.007742

 15 C s       :     3.181340  s :     3.181340
      pz      :     0.993819  p :     2.973987
      px      :     1.007764
      py      :     0.972404
      dz2     :     0.004537  d :     0.034815
      dxz     :     0.009827
      dyz     :     0.005604
      dx2y2   :     0.007773
      dxy     :     0.007073

 16 C s       :     3.076670  s :     3.076670
      pz      :     0.971876  p :     2.575620
      px      :     0.656260
      py      :     0.947484
      dz2     :     0.011202  d :     0.064056
      dxz     :     0.013811
      dyz     :     0.007121
      dx2y2   :     0.015283
      dxy     :     0.016639

 17 O s       :     3.888311  s :     3.888311
      pz      :     1.619280  p :     4.623407
      px      :     1.286590
      py      :     1.717537
      dz2     :     0.004519  d :     0.026010
      dxz     :     0.006470
      dyz     :     0.003968
      dx2y2   :     0.004022
      dxy     :     0.007031

 18 C s       :     2.715996  s :     2.715996
      pz      :     0.689502  p :     2.030650
      px      :     0.690081
      py      :     0.651067
      dz2     :     0.038127  d :     0.164765
      dxz     :     0.034620
      dyz     :     0.025055
      dx2y2   :     0.032867
      dxy     :     0.034096

 19 F s       :     3.982090  s :     3.982090
      pz      :     1.529974  p :     5.292906
      px      :     1.867791
      py      :     1.895140
      dz2     :     0.006753  d :     0.016254
      dxz     :     0.004540
      dyz     :     0.003614
      dx2y2   :     0.000640
      dxy     :     0.000707

 20 F s       :     3.982222  s :     3.982222
      pz      :     1.901834  p :     5.293118
      px      :     1.890380
      py      :     1.500904
      dz2     :     0.002291  d :     0.016247
      dxz     :     0.000500
      dyz     :     0.003508
      dx2y2   :     0.005804
      dxy     :     0.004144

 21 F s       :     3.979363  s :     3.979363
      pz      :     1.898295  p :     5.281680
      px      :     1.605863
      py      :     1.777521
      dz2     :     0.002325  d :     0.016231
      dxz     :     0.002730
      dyz     :     0.001372
      dx2y2   :     0.003811
      dxy     :     0.005994

 22 C s       :     3.094734  s :     3.094734
      pz      :     0.808244  p :     2.455349
      px      :     0.882484
      py      :     0.764621
      dz2     :     0.013775  d :     0.071735
      dxz     :     0.014680
      dyz     :     0.013485
      dx2y2   :     0.014714
      dxy     :     0.015081

 23 F s       :     3.975030  s :     3.975030
      pz      :     1.749710  p :     5.313485
      px      :     1.885380
      py      :     1.678394
      dz2     :     0.003205  d :     0.017305
      dxz     :     0.002343
      dyz     :     0.005469
      dx2y2   :     0.003324
      dxy     :     0.002965

 24 C s       :     3.235546  s :     3.235546
      pz      :     1.022562  p :     2.993763
      px      :     0.955119
      py      :     1.016083
      dz2     :     0.005176  d :     0.034110
      dxz     :     0.008094
      dyz     :     0.005829
      dx2y2   :     0.007507
      dxy     :     0.007505

 25 C s       :     3.267232  s :     3.267232
      pz      :     1.136680  p :     3.093774
      px      :     0.879853
      py      :     1.077241
      dz2     :     0.003362  d :     0.033857
      dxz     :     0.006352
      dyz     :     0.006743
      dx2y2   :     0.009859
      dxy     :     0.007540

 26 S s       :     5.795907  s :     5.795907
      pz      :     3.434141  p :     9.838884
      px      :     3.151674
      py      :     3.253070
      dz2     :     0.017837  d :     0.106935
      dxz     :     0.015867
      dyz     :     0.020560
      dx2y2   :     0.036216
      dxy     :     0.016455

 27 C s       :     2.976274  s :     2.976274
      pz      :     0.774175  p :     2.415106
      px      :     0.748067
      py      :     0.892864
      dz2     :     0.021976  d :     0.109004
      dxz     :     0.020211
      dyz     :     0.024627
      dx2y2   :     0.023853
      dxy     :     0.018337

 28 O s       :     3.887963  s :     3.887963
      pz      :     1.387829  p :     4.604591
      px      :     1.532404
      py      :     1.684359
      dz2     :     0.008076  d :     0.025048
      dxz     :     0.006268
      dyz     :     0.004775
      dx2y2   :     0.002555
      dxy     :     0.003374

 29 N s       :     3.610042  s :     3.610042
      pz      :     1.325029  p :     3.839389
      px      :     1.297454
      py      :     1.216906
      dz2     :     0.006574  d :     0.037186
      dxz     :     0.006378
      dyz     :     0.007977
      dx2y2   :     0.007013
      dxy     :     0.009244

 30 C s       :     3.268935  s :     3.268935
      pz      :     1.066538  p :     3.001650
      px      :     1.093871
      py      :     0.841241
      dz2     :     0.004635  d :     0.045285
      dxz     :     0.010867
      dyz     :     0.011226
      dx2y2   :     0.010270
      dxy     :     0.008287

 31 C s       :     2.850736  s :     2.850736
      pz      :     0.800678  p :     2.351253
      px      :     0.777081
      py      :     0.773494
      dz2     :     0.022676  d :     0.121975
      dxz     :     0.023167
      dyz     :     0.019501
      dx2y2   :     0.030811
      dxy     :     0.025820

 32 O s       :     3.888013  s :     3.888013
      pz      :     1.584905  p :     4.592037
      px      :     1.396841
      py      :     1.610291
      dz2     :     0.003660  d :     0.025583
      dxz     :     0.005152
      dyz     :     0.003731
      dx2y2   :     0.006741
      dxy     :     0.006298

 33 N s       :     3.608225  s :     3.608225
      pz      :     1.345678  p :     3.844174
      px      :     1.306301
      py      :     1.192196
      dz2     :     0.007224  d :     0.039604
      dxz     :     0.006817
      dyz     :     0.008332
      dx2y2   :     0.009938
      dxy     :     0.007293

 34 C s       :     3.273200  s :     3.273200
      pz      :     0.908834  p :     3.004105
      px      :     1.028991
      py      :     1.066280
      dz2     :     0.013651  d :     0.046063
      dxz     :     0.009056
      dyz     :     0.007740
      dx2y2   :     0.011404
      dxy     :     0.004211

 35 H s       :     0.798174  s :     0.798174

 36 H s       :     0.816300  s :     0.816300

 37 H s       :     0.787074  s :     0.787074

 38 H s       :     0.776068  s :     0.776068

 39 H s       :     0.811461  s :     0.811461

 40 H s       :     0.638932  s :     0.638932

 41 H s       :     0.865984  s :     0.865984

 42 H s       :     0.840364  s :     0.840364

 43 H s       :     0.808223  s :     0.808223

 44 H s       :     0.816377  s :     0.816377

 45 H s       :     0.808287  s :     0.808287

 46 H s       :     0.819905  s :     0.819905

 47 H s       :     0.803781  s :     0.803781

 48 H s       :     0.821757  s :     0.821757

 49 H s       :     0.807518  s :     0.807518

 50 H s       :     0.805670  s :     0.805670



                     *******************************
                     * LOEWDIN POPULATION ANALYSIS *
                     *******************************

----------------------
LOEWDIN ATOMIC CHARGES
----------------------
   0 C :   -0.272181
   1 N :    0.079406
   2 N :   -0.170249
   3 C :    0.027011
   4 C :   -0.130663
   5 C :    0.027569
   6 C :   -0.249462
   7 C :    0.153061
   8 O :   -0.247989
   9 N :   -0.204987
  10 C :   -0.080823
  11 N :   -0.154382
  12 C :   -0.001897
  13 C :   -0.017384
  14 C :   -0.127134
  15 C :   -0.153475
  16 C :    0.059585
  17 O :   -0.154459
  18 C :    0.361160
  19 F :   -0.105052
  20 F :   -0.105323
  21 F :   -0.085720
  22 C :    0.107954
  23 F :   -0.093547
  24 C :   -0.132584
  25 C :   -0.347249
  26 S :    0.394463
  27 C :    0.111413
  28 O :   -0.314221
  29 N :   -0.031461
  30 C :   -0.260538
  31 C :    0.144217
  32 O :   -0.312175
  33 N :   -0.025030
  34 C :   -0.258467
  35 H :    0.159086
  36 H :    0.143511
  37 H :    0.158650
  38 H :    0.177700
  39 H :    0.159549
  40 H :    0.273296
  41 H :    0.135658
  42 H :    0.146228
  43 H :    0.168815
  44 H :    0.161315
  45 H :    0.150907
  46 H :    0.141301
  47 H :    0.153030
  48 H :    0.139511
  49 H :    0.150261
  50 H :    0.151796

-------------------------------
LOEWDIN REDUCED ORBITAL CHARGES
-------------------------------
  0 C s       :     2.974846  s :     2.974846
      pz      :     1.153424  p :     3.207735
      px      :     1.095231
      py      :     0.959081
      dz2     :     0.016304  d :     0.089599
      dxz     :     0.005116
      dyz     :     0.022737
      dx2y2   :     0.023630
      dxy     :     0.021812

  1 N s       :     3.051763  s :     3.051763
      pz      :     1.265065  p :     3.714056
      px      :     1.238602
      py      :     1.210389
      dz2     :     0.033933  d :     0.154775
      dxz     :     0.026079
      dyz     :     0.028791
      dx2y2   :     0.031232
      dxy     :     0.034741

  2 N s       :     3.259834  s :     3.259834
      pz      :     1.359215  p :     3.794792
      px      :     1.141098
      py      :     1.294478
      dz2     :     0.015732  d :     0.115624
      dxz     :     0.029962
      dyz     :     0.019218
      dx2y2   :     0.034279
      dxy     :     0.016432

  3 C s       :     2.813665  s :     2.813665
      pz      :     1.003159  p :     2.965402
      px      :     0.966679
      py      :     0.995564
      dz2     :     0.033308  d :     0.193923
      dxz     :     0.028947
      dyz     :     0.038495
      dx2y2   :     0.046870
      dxy     :     0.046302

  4 C s       :     2.837978  s :     2.837978
      pz      :     1.065721  p :     3.179148
      px      :     1.066293
      py      :     1.047134
      dz2     :     0.021019  d :     0.113538
      dxz     :     0.017562
      dyz     :     0.023502
      dx2y2   :     0.024072
      dxy     :     0.027382

  5 C s       :     2.857485  s :     2.857485
      pz      :     0.987739  p :     2.975532
      px      :     1.015457
      py      :     0.972337
      dz2     :     0.021339  d :     0.139414
      dxz     :     0.021004
      dyz     :     0.037792
      dx2y2   :     0.030540
      dxy     :     0.028739

  6 C s       :     2.930817  s :     2.930817
      pz      :     1.079579  p :     3.235696
      px      :     1.025066
      py      :     1.131051
      dz2     :     0.009769  d :     0.082949
      dxz     :     0.023831
      dyz     :     0.018267
      dx2y2   :     0.021604
      dxy     :     0.009478

  7 C s       :     2.867445  s :     2.867445
      pz      :     0.855040  p :     2.750697
      px      :     0.984401
      py      :     0.911257
      dz2     :     0.019630  d :     0.228797
      dxz     :     0.030396
      dyz     :     0.039675
      dx2y2   :     0.087415
      dxy     :     0.051680

  8 O s       :     3.593666  s :     3.593666
      pz      :     1.485537  p :     4.603105
      px      :     1.540377
      py      :     1.577191
      dz2     :     0.006576  d :     0.051218
      dxz     :     0.007800
      dyz     :     0.005247
      dx2y2   :     0.011722
      dxy     :     0.019873

  9 N s       :     3.149655  s :     3.149655
      pz      :     1.507605  p :     3.986357
      px      :     1.228359
      py      :     1.250393
      dz2     :     0.009725  d :     0.068975
      dxz     :     0.009481
      dyz     :     0.010219
      dx2y2   :     0.015201
      dxy     :     0.024349

 10 C s       :     2.896315  s :     2.896315
      pz      :     1.013364  p :     3.014249
      px      :     0.977215
      py      :     1.023669
      dz2     :     0.020704  d :     0.170259
      dxz     :     0.035258
      dyz     :     0.020165
      dx2y2   :     0.052613
      dxy     :     0.041519

 11 N s       :     3.253622  s :     3.253622
      pz      :     1.249789  p :     3.815745
      px      :     1.103552
      py      :     1.462403
      dz2     :     0.011969  d :     0.085016
      dxz     :     0.016841
      dyz     :     0.010760
      dx2y2   :     0.013794
      dxy     :     0.031652

 12 C s       :     2.861681  s :     2.861681
      pz      :     0.978841  p :     2.996798
      px      :     1.000699
      py      :     1.017259
      dz2     :     0.018017  d :     0.143418
      dxz     :     0.023478
      dyz     :     0.022004
      dx2y2   :     0.042005
      dxy     :     0.037914

 13 C s       :     2.867389  s :     2.867389
      pz      :     1.024270  p :     3.048457
      px      :     1.012734
      py      :     1.011453
      dz2     :     0.019009  d :     0.101538
      dxz     :     0.022239
      dyz     :     0.016858
      dx2y2   :     0.021871
      dxy     :     0.021560

 14 C s       :     2.912221  s :     2.912221
      pz      :     1.040938  p :     3.130828
      px      :     1.050359
      py      :     1.039531
      dz2     :     0.011995  d :     0.084085
      dxz     :     0.020815
      dyz     :     0.013976
      dx2y2   :     0.018638
      dxy     :     0.018661

 15 C s       :     2.916858  s :     2.916858
      pz      :     1.046080  p :     3.154032
      px      :     1.074200
      py      :     1.033752
      dz2     :     0.010525  d :     0.082585
      dxz     :     0.021452
      dyz     :     0.012960
      dx2y2   :     0.019220
      dxy     :     0.018428

 16 C s       :     2.859844  s :     2.859844
      pz      :     1.052925  p :     2.927625
      px      :     0.850094
      py      :     1.024606
      dz2     :     0.025390  d :     0.152946
      dxz     :     0.034377
      dyz     :     0.017051
      dx2y2   :     0.036015
      dxy     :     0.040112

 17 O s       :     3.469995  s :     3.469995
      pz      :     1.618767  p :     4.626789
      px      :     1.303055
      py      :     1.704967
      dz2     :     0.008092  d :     0.057675
      dxz     :     0.017698
      dyz     :     0.006001
      dx2y2   :     0.010667
      dxy     :     0.015217

 18 C s       :     2.819335  s :     2.819335
      pz      :     0.819231  p :     2.441190
      px      :     0.821467
      py      :     0.800492
      dz2     :     0.090239  d :     0.378315
      dxz     :     0.080521
      dyz     :     0.052918
      dx2y2   :     0.076162
      dxy     :     0.078475

 19 F s       :     3.765280  s :     3.765280
      pz      :     1.555227  p :     5.308474
      px      :     1.863970
      py      :     1.889277
      dz2     :     0.014809  d :     0.031298
      dxz     :     0.008618
      dyz     :     0.005752
      dx2y2   :     0.000982
      dxy     :     0.001137

 20 F s       :     3.765394  s :     3.765394
      pz      :     1.897316  p :     5.308654
      px      :     1.882661
      py      :     1.528677
      dz2     :     0.004881  d :     0.031276
      dxz     :     0.000792
      dyz     :     0.005740
      dx2y2   :     0.012218
      dxy     :     0.007645

 21 F s       :     3.760515  s :     3.760515
      pz      :     1.892659  p :     5.294513
      px      :     1.621058
      py      :     1.780796
      dz2     :     0.004699  d :     0.030693
      dxz     :     0.004718
      dyz     :     0.002261
      dx2y2   :     0.006476
      dxy     :     0.012539

 22 C s       :     2.862493  s :     2.862493
      pz      :     0.926201  p :     2.852256
      px      :     1.044270
      py      :     0.881785
      dz2     :     0.032052  d :     0.177297
      dxz     :     0.036238
      dyz     :     0.035633
      dx2y2   :     0.034531
      dxy     :     0.038843

 23 F s       :     3.735217  s :     3.735217
      pz      :     1.754010  p :     5.323391
      px      :     1.883228
      py      :     1.686153
      dz2     :     0.006503  d :     0.034938
      dxz     :     0.004667
      dyz     :     0.011126
      dx2y2   :     0.006772
      dxy     :     0.005870

 24 C s       :     2.921077  s :     2.921077
      pz      :     1.054818  p :     3.131471
      px      :     1.044271
      py      :     1.032382
      dz2     :     0.011806  d :     0.080036
      dxz     :     0.017502
      dyz     :     0.012709
      dx2y2   :     0.018676
      dxy     :     0.019343

 25 C s       :     2.981619  s :     2.981619
      pz      :     1.148659  p :     3.285840
      px      :     1.028371
      py      :     1.108810
      dz2     :     0.006586  d :     0.079791
      dxz     :     0.013866
      dyz     :     0.013908
      dx2y2   :     0.026928
      dxy     :     0.018503

 26 S s       :     5.520320  s :     5.520320
      pz      :     3.428502  p :     9.958833
      px      :     3.214843
      py      :     3.315487
      dz2     :     0.020547  d :     0.126384
      dxz     :     0.018477
      dyz     :     0.025038
      dx2y2   :     0.043746
      dxy     :     0.018577

 27 C s       :     2.821189  s :     2.821189
      pz      :     0.922655  p :     2.807683
      px      :     0.904042
      py      :     0.980985
      dz2     :     0.048289  d :     0.259715
      dxz     :     0.051513
      dyz     :     0.059583
      dx2y2   :     0.056167
      dxy     :     0.044163

 28 O s       :     3.580704  s :     3.580704
      pz      :     1.436501  p :     4.683371
      px      :     1.554869
      py      :     1.692001
      dz2     :     0.013065  d :     0.050146
      dxz     :     0.014953
      dyz     :     0.010724
      dx2y2   :     0.004978
      dxy     :     0.006425

 29 N s       :     3.084769  s :     3.084769
      pz      :     1.319496  p :     3.849690
      px      :     1.300141
      py      :     1.230054
      dz2     :     0.016047  d :     0.097002
      dxz     :     0.018257
      dyz     :     0.020153
      dx2y2   :     0.018687
      dxy     :     0.023859

 30 C s       :     2.970682  s :     2.970682
      pz      :     1.119287  p :     3.200187
      px      :     1.141134
      py      :     0.939766
      dz2     :     0.008897  d :     0.089670
      dxz     :     0.020267
      dyz     :     0.022474
      dx2y2   :     0.021376
      dxy     :     0.016656

 31 C s       :     2.805008  s :     2.805008
      pz      :     0.905101  p :     2.768222
      px      :     0.933251
      py      :     0.929870
      dz2     :     0.050646  d :     0.282553
      dxz     :     0.054856
      dyz     :     0.044858
      dx2y2   :     0.070300
      dxy     :     0.061894

 32 O s       :     3.586828  s :     3.586828
      pz      :     1.595811  p :     4.675085
      px      :     1.448022
      py      :     1.631253
      dz2     :     0.006483  d :     0.050261
      dxz     :     0.010884
      dyz     :     0.006840
      dx2y2   :     0.011194
      dxy     :     0.014859

 33 N s       :     3.059978  s :     3.059978
      pz      :     1.336836  p :     3.862457
      px      :     1.306256
      py      :     1.219365
      dz2     :     0.017044  d :     0.102594
      dxz     :     0.017159
      dyz     :     0.021465
      dx2y2   :     0.026158
      dxy     :     0.020768

 34 C s       :     2.970180  s :     2.970180
      pz      :     0.994957  p :     3.197339
      px      :     1.085417
      py      :     1.116964
      dz2     :     0.028000  d :     0.090949
      dxz     :     0.017985
      dyz     :     0.015292
      dx2y2   :     0.021425
      dxy     :     0.008248

 35 H s       :     0.840914  s :     0.840914

 36 H s       :     0.856489  s :     0.856489

 37 H s       :     0.841350  s :     0.841350

 38 H s       :     0.822300  s :     0.822300

 39 H s       :     0.840451  s :     0.840451

 40 H s       :     0.726704  s :     0.726704

 41 H s       :     0.864342  s :     0.864342

 42 H s       :     0.853772  s :     0.853772

 43 H s       :     0.831185  s :     0.831185

 44 H s       :     0.838685  s :     0.838685

 45 H s       :     0.849093  s :     0.849093

 46 H s       :     0.858699  s :     0.858699

 47 H s       :     0.846970  s :     0.846970

 48 H s       :     0.860489  s :     0.860489

 49 H s       :     0.849739  s :     0.849739

 50 H s       :     0.848204  s :     0.848204



                      *****************************
                      * MAYER POPULATION ANALYSIS *
                      *****************************

  NA   - Mulliken gross atomic population
  ZA   - Total nuclear charge
  QA   - Mulliken gross atomic charge
  VA   - Mayer's total valence
  BVA  - Mayer's bonded valence
  FA   - Mayer's free valence

  ATOM       NA         ZA         QA         VA         BVA        FA
  0 C      6.3434     6.0000    -0.3434     3.7289     3.7289    -0.0000
  1 N      7.2533     7.0000    -0.2533     3.4060     3.4060     0.0000
  2 N      7.3423     7.0000    -0.3423     2.8565     2.8565    -0.0000
  3 C      5.5385     6.0000     0.4615     3.7318     3.7318    -0.0000
  4 C      6.0654     6.0000    -0.0654     3.9796     3.9796    -0.0000
  5 C      5.7083     6.0000     0.2917     3.6655     3.6655     0.0000
  6 C      6.4269     6.0000    -0.4269     3.7628     3.7628     0.0000
  7 C      5.4346     6.0000     0.5654     3.8951     3.8951     0.0000
  8 O      8.4314     8.0000    -0.4314     2.0757     2.0757     0.0000
  9 N      7.6618     7.0000    -0.6618     2.9025     2.9025     0.0000
 10 C      5.7465     6.0000     0.2535     3.8170     3.8170     0.0000
 11 N      7.3768     7.0000    -0.3768     2.9763     2.9763     0.0000
 12 C      5.7843     6.0000     0.2157     3.9919     3.9919     0.0000
 13 C      5.8692     6.0000     0.1308     3.9608     3.9608    -0.0000
 14 C      6.1825     6.0000    -0.1825     3.9214     3.9214     0.0000
 15 C      6.1901     6.0000    -0.1901     3.9088     3.9088     0.0000
 16 C      5.7163     6.0000     0.2837     3.7248     3.7248    -0.0000
 17 O      8.5377     8.0000    -0.5377     1.9600     1.9600     0.0000
 18 C      4.9114     6.0000     1.0886     3.9938     3.9938     0.0000
 19 F      9.2912     9.0000    -0.2912     1.0656     1.0656    -0.0000
 20 F      9.2916     9.0000    -0.2916     1.0653     1.0653     0.0000
 21 F      9.2773     9.0000    -0.2773     1.0902     1.0902     0.0000
 22 C      5.6218     6.0000     0.3782     3.7658     3.7658     0.0000
 23 F      9.3058     9.0000    -0.3058     1.0598     1.0598    -0.0000
 24 C      6.2634     6.0000    -0.2634     3.8421     3.8421    -0.0000
 25 C      6.3949     6.0000    -0.3949     3.7600     3.7600    -0.0000
 26 S     15.7417    16.0000     0.2583     2.4681     2.4681    -0.0000
 27 C      5.5004     6.0000     0.4996     3.8646     3.8646    -0.0000
 28 O      8.5176     8.0000    -0.5176     2.0166     2.0166    -0.0000
 29 N      7.4866     7.0000    -0.4866     3.0481     3.0481     0.0000
 30 C      6.3159     6.0000    -0.3159     3.7702     3.7702    -0.0000
 31 C      5.3240     6.0000     0.6760     3.9510     3.9510    -0.0000
 32 O      8.5056     8.0000    -0.5056     2.0330     2.0330    -0.0000
 33 N      7.4920     7.0000    -0.4920     3.0827     3.0827    -0.0000
 34 C      6.3234     6.0000    -0.3234     3.7765     3.7765    -0.0000
 35 H      0.7982     1.0000     0.2018     0.9322     0.9322    -0.0000
 36 H      0.8163     1.0000     0.1837     0.9246     0.9246    -0.0000
 37 H      0.7871     1.0000     0.2129     0.9284     0.9284    -0.0000
 38 H      0.7761     1.0000     0.2239     0.9314     0.9314    -0.0000
 39 H      0.8115     1.0000     0.1885     0.9330     0.9330     0.0000
 40 H      0.6389     1.0000     0.3611     0.8583     0.8583     0.0000
 41 H      0.8660     1.0000     0.1340     0.9408     0.9408     0.0000
 42 H      0.8404     1.0000     0.1596     0.9492     0.9492     0.0000
 43 H      0.8082     1.0000     0.1918     0.9364     0.9364     0.0000
 44 H      0.8164     1.0000     0.1836     0.9372     0.9372     0.0000
 45 H      0.8083     1.0000     0.1917     0.9361     0.9361    -0.0000
 46 H      0.8199     1.0000     0.1801     0.9271     0.9271    -0.0000
 47 H      0.8038     1.0000     0.1962     0.9340     0.9340    -0.0000
 48 H      0.8218     1.0000     0.1782     0.9265     0.9265    -0.0000
 49 H      0.8075     1.0000     0.1925     0.9317     0.9317    -0.0000
 50 H      0.8057     1.0000     0.1943     0.9330     0.9330     0.0000

  Mayer bond orders larger than 0.100000
B(  0-C ,  1-N ) :   0.9215 B(  0-C , 35-H ) :   0.9322 B(  0-C , 36-H ) :   0.9313 
B(  0-C , 37-H ) :   0.9151 B(  1-N ,  2-N ) :   1.1882 B(  1-N ,  4-C ) :   0.1046 
B(  1-N ,  5-C ) :   1.1370 B(  2-N ,  3-C ) :   1.3920 B(  3-C ,  4-C ) :   1.2876 
B(  3-C , 33-N ) :   0.9583 B(  4-C ,  5-C ) :   1.3609 B(  4-C , 27-C ) :   1.0755 
B(  5-C ,  6-C ) :   0.9944 B(  6-C ,  7-C ) :   0.9554 B(  6-C , 38-H ) :   0.8830 
B(  6-C , 39-H ) :   0.9092 B(  7-C ,  8-O ) :   1.8670 B(  7-C ,  9-N ) :   1.0042 
B(  9-N , 10-C ) :   0.9532 B(  9-N , 40-H ) :   0.7923 B( 10-C , 11-N ) :   1.5094 
B( 10-C , 25-C ) :   0.1085 B( 10-C , 26-S ) :   1.1429 B( 11-N , 12-C ) :   1.2667 
B( 12-C , 13-C ) :   1.0517 B( 12-C , 25-C ) :   1.5131 B( 13-C , 14-C ) :   1.4028 
B( 13-C , 24-C ) :   1.3726 B( 14-C , 15-C ) :   1.4387 B( 14-C , 41-H ) :   0.9193 
B( 15-C , 16-C ) :   1.3811 B( 15-C , 42-H ) :   0.9085 B( 16-C , 17-O ) :   0.8317 
B( 16-C , 22-C ) :   1.3203 B( 17-O , 18-C ) :   0.9873 B( 18-C , 19-F ) :   0.9693 
B( 18-C , 20-F ) :   0.9678 B( 18-C , 21-F ) :   1.0095 B( 22-C , 23-F ) :   0.9391 
B( 22-C , 24-C ) :   1.3700 B( 24-C , 43-H ) :   0.8975 B( 25-C , 26-S ) :   1.1166 
B( 25-C , 44-H ) :   0.9020 B( 27-C , 28-O ) :   1.7357 B( 27-C , 29-N ) :   0.9947 
B( 29-N , 30-C ) :   0.9183 B( 29-N , 31-C ) :   1.0165 B( 30-C , 45-H ) :   0.9247 
B( 30-C , 46-H ) :   0.9403 B( 30-C , 47-H ) :   0.9260 B( 31-C , 32-O ) :   1.7936 
B( 31-C , 33-N ) :   1.0690 B( 33-N , 34-C ) :   0.9307 B( 34-C , 48-H ) :   0.9385 
B( 34-C , 49-H ) :   0.9303 B( 34-C , 50-H ) :   0.9239 

-------
TIMINGS
-------

Total SCF time: 0 days 0 hours 8 min 40 sec 

Total time                  ....     520.427 sec
Sum of individual times     ....     519.964 sec  ( 99.9%)

SCF preparation             ....       0.476 sec  (  0.1%)
Fock matrix formation       ....     515.806 sec  ( 99.1%)
  Startup                   ....       0.102 sec  (  0.0% of F)
  Split-RI-J                ....      70.180 sec  ( 13.6% of F)
  Chain of spheres X        ....     399.247 sec  ( 77.4% of F)
  XC integration            ....      44.232 sec  (  8.6% of F)
    XC Preparation          ....       0.000 sec  (  0.0% of XC)
    Basis function eval.    ....      17.178 sec  ( 38.8% of XC)
    Density eval.           ....      10.454 sec  ( 23.6% of XC)
    XC-Functional eval.     ....       2.318 sec  (  5.2% of XC)
    XC-Potential eval.      ....      11.848 sec  ( 26.8% of XC)
Diagonalization             ....       0.000 sec  (  0.0%)
Density matrix formation    ....       1.028 sec  (  0.2%)
Total Energy calculation    ....       0.098 sec  (  0.0%)
Population analysis         ....       0.080 sec  (  0.0%)
Orbital Transformation      ....       0.230 sec  (  0.0%)
Orbital Orthonormalization  ....       0.000 sec  (  0.0%)
DIIS solution               ....       1.386 sec  (  0.3%)
SOSCF solution              ....       0.860 sec  (  0.2%)
Finished LeanSCF after 520.5 sec

Maximum memory used throughout the entire LEANSCF-calculation: 82.5 MB

-------------------------   --------------------
FINAL SINGLE POINT ENERGY     -2197.699282694097
-------------------------   --------------------


------------------------------------------------------------------------------
                              ORCA PROPERTY CALCULATIONS
------------------------------------------------------------------------------

GBWName                                 ... /home/nmrbox/aojoawo/Documents/ERDOS/inputs/CHEMBL3900789.gbw
Number of atoms                         ...     51
Number of basis functions               ...    526
Max core memory                         ...   1024 MB

Electric properties:
Dipole moment                           ... YES
Quadrupole moment                       ...  NO
Static polarizability (Dipole/Dipole)   ...  NO
Static polarizability (Dipole/Quad.)    ...  NO
Static polarizability (Quad./Quad.)     ...  NO
Static polarizability (Velocity)        ...  NO

Atomic electric properties:
Dipole moment                           ...  NO
Quadrupole moment                       ...  NO
Static polarizability                   ...  NO

Choice of electric origin               ... Center of mass
Position of electric origin             ...     1.997187     0.070723    -0.060841

General magnetic properties:
Magnetizability                         ...  NO

EPR properties:
g-Tensor (aka g-matrix)                 ...  NO
Zero-Field splitting spin-orbit         ...  NO
Zero-field splitting spin-spin          ...  NO
Hyperfine couplings                     ...  NO (   0 nuclei)
Quadrupole couplings                    ...  NO (   0 nuclei)
Contact density                         ...  NO (   0 nuclei)

NMR properties:
Chemical shifts                         ...  NO (   0 nuclei)
Spin-rotation constants                 ...  NO (   0 nuclei)
Spin-spin couplings                     ...  NO (   0 nuclei,    0 pairs)

Choice of magnetic origin               ... GIAO
Position of magnetic origin             ...     0.000000     0.000000     0.000000

Properties with geometric perturbations:
SCF Hessian                             ...  NO
IR spectrum                             ...  NO
VCD spectrum                            ...  NO
X-ray spectroscopy properties:
SCF XES/XAS/RIXS spectra                ...  NO


-------------
DIPOLE MOMENT
-------------

Method             : SCF
Type of density    : Electron Density
Multiplicity       :   1
Irrep              :   0
Energy             : -2197.6992826940968371 Eh
Relativity type    : 
Basis              : AO
                                X                 Y                 Z
Electronic contribution:     70.441835588      -3.355287178      -8.209735173
Nuclear contribution   :    -71.776537309       3.528922740       7.640743633
                        -----------------------------------------
Total Dipole Moment    :     -1.334701721       0.173635562      -0.568991540
                        -----------------------------------------
Magnitude (a.u.)       :      1.461276621
Magnitude (Debye)      :      3.714269994



--------------------
Rotational spectrum 
--------------------
 
Rotational constants in cm-1:             0.009351             0.001072             0.001033 
Rotational constants in MHz :           280.324195            32.130124            30.964588 

Dipole components along the rotational axes: 
x,y,z [a.u.] :     1.253134     0.219721    -0.718823 
x,y,z [Debye]:     3.185214     0.558486    -1.827103 

 

Dipole moment calculation done in   0.0 sec 

Maximum memory used throughout the entire PROP-calculation: 40.7 MB

--------------------------------
SUGGESTED CITATIONS FOR THIS RUN
--------------------------------

Below you find a list of papers that are relevant to this ORCA run
We neither can nor want to force you to cite these papers, but we appreciate if you do
You receive ORCA, which is the product of decades of hard work by many enthusiastic individuals, for free
The only thing we kindly ask in return is that you cite our papers,
We deeply appreciate it, if you show your appreciation for ORCA by not just citing the generic ORCA reference.

Please note that relegating all ORCA citations to the supporting information does *not* help us.
SI sections are not indexed - citations you put there will not count into any citation statistics
But we need these citations in order to attract the funding resources that allow us to do what we are doing

Therefore, if you are a happy ORCA user, please consider citing a few of the papers listed below in the main body of your paper

In addition to the list printed below, the program has created the file /home/nmrbox/aojoawo/Documents/ERDOS/inputs/CHEMBL3900789.bibtex that contains the list in bibtex format
You can import this file easily into all common literature databanks and citation aid programs


List of essential papers. We consider these as the minimum necessary citations

  1. Neese,F.
     Software update: the ORCA program system, version 5.0
     WIRES Comput. Molec. Sci., 2022 12(1)e1606
     doi.org/10.1002/wcms.1606

List of papers to cite with high priority. The work reported in these papers was absolutely
necessary for this run to complete.
Our perspective: the developers of density functionals and basis sets usually get cited in chemistry papers
Good! But without the algorithms to do something with them, the functionals or basis sets would not do anything.
Hence, in our opinion, the algorithm design and method developments papers are equally worthy of getting cited

  1. Neese,F.
     An improvement of the resolution of the identity approximation for the formation of the Coulomb matrix
     J. Comp. Chem., 2003 24(14)1740-1747
     doi.org/10.1002/jcc.10318
  2. Neese,F.; Wennmohs,F.; Hansen,A.; Becker,U.
     Efficient, approximate and parallel Hartree-Fock and hybrid DFT calculations. A 'chain-of-spheres' algorithm for the Hartree-Fock exchange
     Chem. Phys., 2009 356(1-3)98-109
     doi.org/10.1016/j.chemphys.2008.10.036
  3. Helmich-Paris,B.; de Souza,B.; Neese,F.; Izsák,R.
     An improved chain of spheres for exchange algorithm
     J. Chem. Phys., 2021 155 104109
     doi.org/doi: 10.1063/5.0058766.
  4. Neese,F.
     The SHARK Integral Generation and Digestion System
     J. Comp. Chem., 2022  1-16
     doi.org/10.1002/jcc.26942

List of suggested additional citations. These are papers that are important in the 'surrounding' of 
of this run, or papers that preceded the highly important papers. If you like your results we are grateful for a citation.

  1. Izsak,R.; Neese,F.
     An overlap fitted chain of spheres exchange method
     J. Chem. Phys., 2011 135 144105
     doi.org/10.1063/1.3646921
  2. Izsak,R.; Hansen,A.; Neese,F.
     The resolution of identity and chain of spheres approximations for the LPNO-CCSD singles Fock term
     Molec. Phys., 2012 110 2413-2417
     doi.org/10.1080/00268976.2012.687466
  3. Neese,F.
     The ORCA program system
     WIRES Comput. Molec. Sci., 2012 2(1)73-78
     doi.org/10.1002/wcms.81
  4. Izsak,R.; Neese,F.; Klopper,W.
     Robust fitting techniques in the chain of spheres approximation to the Fock exchange: The role of the complementary space
     J. Chem. Phys., 2013 139 
     doi.org/10.1063/1.4819264
  5. Neese,F.
     Software update: the ORCA program system, version 4.0
     WIRES Comput. Molec. Sci., 2018 8(1)1-6
     doi.org/10.1002/wcms.1327
  6. Neese,F.; Wennmohs,F.; Becker,U.; Riplinger,C.
     The ORCA quantum chemistry program package
     J. Chem. Phys., 2020 152 Art. No. L224108
     doi.org/10.1063/5.0004608

List of optional additional citations

  1. Neese,F.
     Approximate second-order SCF convergence for spin unrestricted wavefunctions
     Chem. Phys. Lett., 2000 325(1-3)93-98
     doi.org/10.1016/s0009-2614(00)00662-x

Timings for individual modules:

Sum of individual times          ...      541.216 sec (=   9.020 min)
Startup calculation              ...       13.560 sec (=   0.226 min)   2.5 %
SCF iterations                   ...      527.438 sec (=   8.791 min)  97.5 %
Property calculations            ...        0.218 sec (=   0.004 min)   0.0 %
                             ****ORCA TERMINATED NORMALLY****
TOTAL RUN TIME: 0 days 0 hours 9 minutes 2 seconds 88 msec
