
                                 *****************
                                 * O   R   C   A *
                                 *****************

                                            #,                                       
                                            ###                                      
                                            ####                                     
                                            #####                                    
                                            ######                                   
                                           ########,                                 
                                     ,,################,,,,,                         
                               ,,#################################,,                 
                          ,,##########################################,,             
                       ,#########################################, ''#####,          
                    ,#############################################,,   '####,        
                  ,##################################################,,,,####,       
                ,###########''''           ''''###############################       
              ,#####''   ,,,,##########,,,,          '''####'''          '####       
            ,##' ,,,,###########################,,,                        '##       
           ' ,,###''''                  '''############,,,                           
         ,,##''                                '''############,,,,        ,,,,,,###''
      ,#''                                            '''#######################'''  
     '                                                          ''''####''''         
             ,#######,   #######,   ,#######,      ##                                
            ,#'     '#,  ##    ##  ,#'     '#,    #''#        ,####,   ,####,        
            ##       ##  ##   ,#'  ##            #'  '#       #'       #'  '#        
            ##       ##  #######   ##           ,######,      #####,   #    #        
            '#,     ,#'  ##    ##  '#,     ,#' ,#      #,     #,   #   #,  ,#        
             '#######'   ##     ##  '#######'  #'      '#     '####' # '####'        



                #########################################################
                #                        -***-                          #
                #          Department of theory and spectroscopy        #
                #                                                       #
                #                      Frank Neese                      #
                #                                                       #
                #     Directorship, Architecture, Infrastructure        #
                #                    SHARK, DRIVERS                     #
                #        Core code/Algorithms in most modules           #
                #                                                       #
                #        Max Planck Institute fuer Kohlenforschung      #
                #                Kaiser Wilhelm Platz 1                 #
                #                 D-45470 Muelheim/Ruhr                 #
                #                      Germany                          #
                #                                                       #
                #                  All rights reserved                  #
                #                        -***-                          #
                #########################################################


                         Program Version 6.0.0  -   RELEASE  -


 With contributions from (in alphabetic order):
   Daniel Aravena         : Magnetic Suceptibility
   Michael Atanasov       : Ab Initio Ligand Field Theory (pilot matlab implementation)
   Alexander A. Auer      : GIAO ZORA, VPT2 properties, NMR spectrum
   Ute Becker             : All parallelization in ORCA, NUMFREQ, NUMCALC
   Giovanni Bistoni       : ED, misc. LED, open-shell LED, HFLD
   Martin Brehm           : Molecular dynamics
   Dmytro Bykov           : pre 5.0 version of the SCF Hessian
   Marcos Casanova-Páez   : Triplet and SCS-CIS(D). UHF-(DLPNO)-IP/EA/STEOM-CCSD. UHF-CVS-IP/STEOM-CCSD
   Vijay G. Chilkuri      : MRCI spin determinant printing, contributions to CSF-ICE
   Pauline Colinet        : FMM embedding
   Dipayan Datta          : RHF DLPNO-CCSD density
   Achintya Kumar Dutta   : EOM-CC, STEOM-CC
   Nicolas Foglia         : Exact transition moments, OPA infrastructure, MCD improvements
   Dmitry Ganyushin       : Spin-Orbit,Spin-Spin,Magnetic field MRCI
   Miquel Garcia          : C-PCM and meta-GGA Hessian, CCSD/C-PCM, Gaussian charge scheme
   Tiago L. C. Gouveia    : GS-ROHF, GS-ROCIS
   Yang Guo               : DLPNO-NEVPT2, F12-NEVPT2, CIM, IAO-localization
   Andreas Hansen         : Spin unrestricted coupled pair/coupled cluster methods
   Ingolf Harden          : AUTO-CI MPn and infrastructure 
   Benjamin Helmich-Paris : MC-RPA, TRAH-(SCF,CASSCF), AVAS, COSX integrals, SCF dyn. polar.
   Lee Huntington         : MR-EOM, pCC
   Robert Izsak           : Overlap fitted RIJCOSX, COSX-SCS-MP3, EOM
   Riya Kayal             : Wick's Theorem for AUTO-CI, AUTO-CI UHF-CCSDT
   Emily Kempfer          : AUTO-CI, RHF CISDT and CCSDT
   Christian Kollmar      : KDIIS, OOCD, Brueckner-CCSD(T), CCSD density, CASPT2, CASPT2-K, improved NEVPT2
   Axel Koslowski         : Symmetry handling
   Simone Kossmann        : Meta GGA functionals, TD-DFT gradient, OOMP2, (MP2 Hessian; deprecated post 5.0)
   Lucas Lang             : DCDCAS
   Marvin Lechner         : AUTO-CI (C++ implementation), FIC-MRCC
   Spencer Leger          : CASSCF response
   Dagmar Lenk            : GEPOL surface, SMD, ORCA-2-JSON
   Dimitrios Liakos       : Extrapolation schemes; Compound Job, initial MDCI parallelization
   Dimitrios Manganas     : Further ROCIS development; embedding schemes. LFT, Crystal Embedding
   Dimitrios Pantazis     : SARC Basis sets
   Anastasios Papadopoulos: AUTO-CI, single reference methods and gradients
   Taras Petrenko         : pre 6.0 DFT Hessian and TD-DFT gradient, (ASA, deprecated), ECA, 1-Electron XAS/XES, NRVS
   Peter Pinski           : DLPNO-MP2, DLPNO-MP2 Gradient
   Christoph Reimann      : Effective Core Potentials
   Marius Retegan         : Local ZFS, SOC
   Christoph Riplinger    : Optimizer, TS searches, QM/MM, DLPNO-CCSD(T), (RO)-DLPNO pert. Triples
   Michael Roemelt        : Original ROCIS implementation
   Masaaki Saitow         : Open-shell DLPNO-CCSD energy and density
   Barbara Sandhoefer     : DKH picture change effects
   Kantharuban Sivalingam : CASSCF convergence/infrastructure, NEVPT2 and variants, FIC-MRCI
   Bernardo de Souza      : ESD, SOC TD-DFT
   Georgi Stoychev        : AutoAux, RI-MP2 NMR, DLPNO-MP2 response, X2C
   Van Anh Tran           : RI-MP2 g-tensors
   Willem Van den Heuvel  : Paramagnetic NMR
   Zikuan Wang            : NOTCH, Electric field optimization 
   Frank Wennmohs         : Technical directorship and infrastructure
   Hang Xu                : AUTO-CI-Response properties 


 We gratefully acknowledge several colleagues who have allowed us to
 interface, adapt or use parts of their codes:
   Stefan Grimme, W. Hujo, H. Kruse, P. Pracht,  : VdW corrections, initial TS optimization,
                  C. Bannwarth, S. Ehlert,         DFT functionals, gCP, sTDA/sTD-DF
                  L. Wittmann, M. Mueller
   Ed Valeev, F. Pavosevic, A. Kumar             : LibInt (2-el integral package), F12 methods
   Garnet Chan, S. Sharma, J. Yang, R. Olivares  : DMRG
   Ulf Ekstrom                                   : XCFun DFT Library
   Mihaly Kallay                                 : mrcc  (arbitrary order and MRCC methods)
   Frank Weinhold                                : gennbo (NPA and NBO analysis)
   Simon Mueller                                 : openCOSMO-RS
   Christopher J. Cramer and Donald G. Truhlar   : smd solvation model
   Lars Goerigk                                  : TD-DFT with DH, B97 family of functionals
   V. Asgeirsson, H. Jonsson                     : NEB implementation
   FAccTs GmbH                                   : IRC, NEB, NEB-TS, DLPNO-Multilevel, CI-OPT
                                                   MM, QMMM, 2- and 3-layer-ONIOM, Crystal-QMMM,
                                                   LR-CPCM, SF, NACMEs, symmetry and pop. for TD-DFT,
                                                   nearIR, NL-DFT gradient (VV10), updates on ESD,
                                                   ML-optimized integration grids, MBIS, APM,
                                                   GOAT, DOCKER, SOLVATOR, interface openCOSMO-RS
   S Lehtola, MJT Oliveira, MAL Marques          : LibXC Library
   Liviu Ungur et al                             : ANISO software


 Your calculation uses the libint2 library for the computation of 2-el integrals
 For citations please refer to: http://libint.valeyev.net

 Your ORCA version has been built with support for libXC version: 6.2.2
 For citations please refer to: https://libxc.gitlab.io

 This ORCA versions uses:
   CBLAS   interface :  Fast vector & matrix operations
   LAPACKE interface :  Fast linear algebra routines
   SCALAPACK package :  Parallel linear algebra routines
   Shared memory     :  Shared parallel matrices
   BLAS/LAPACK       :  OpenBLAS 0.3.27  USE64BITINT DYNAMIC_ARCH NO_AFFINITY SkylakeX SINGLE_THREADED
        Core in use  :  SkylakeX
   Copyright (c) 2011-2014, The OpenBLAS Project


Warning: RI is on but no J-basis has been assigned. Assigning Def2/J (nothing to worry about!)
================================================================================

----- Orbital basis set information -----
Your calculation utilizes the basis: 6-31G*
   H-He, Li-Ne : W. J. Hehre, R. Ditchfield and J.A. Pople, J. Chem. Phys. 56, 2257 (1972).
                 Note: He and Ne are unpublished basis sets taken from the Gaussian program.
                 Note: Li and B from J. D. Dill and J. A. Pople, J. Chem. Phys. 62, 2921 (1975).
   Na - Ar     : M. M. Francl, W. J. Pietro, W. J. Hehre, J. S. Binkley, M. S. Gordon, 
                 D. J. DeFrees and J. A. Pople, J. Chem. Phys. 77, 3654 (1982).
   K - Zn      : V. A. Rassolov, J. A. Pople, M. A. Ratner, and T. L. Windus, J. Chem. Phys. 109, 1223 (1998).

----- AuxJ basis set information -----
Your calculation utilizes the auxiliary basis: def2/J
   F. Weigend, Phys. Chem. Chem. Phys. 8, 1057 (2006).

================================================================================
                                        WARNINGS
                       Please study these warnings very carefully!
================================================================================


================================================================================
                                       INPUT FILE
================================================================================
NAME = /home/nmrbox/aojoawo/Documents/ERDOS/inputs/CHEMBL5290716.inp
|  1> ! B3LYP 6-31G* SP
|  2> 
|  3> * xyz 0 1
|  4> C 6.0289 -0.1716 1.2261
|  5> C 5.5141 0.5503 -0.0122
|  6> N 4.0980 0.8588 0.1388
|  7> N 3.6301 1.9665 0.6881
|  8> N 2.3090 1.9014 0.7224
|  9> C 2.0063 0.7043 0.1793
| 10> C 0.6378 0.1965 0.0178
| 11> S -0.7599 1.0194 0.4627
| 12> C -1.7855 -0.2235 -0.0388
| 13> C -3.2608 -0.1645 -0.0483
| 14> C -3.9388 -0.5765 -1.2092
| 15> C -5.3287 -0.4697 -1.2963
| 16> C -6.0586 0.0468 -0.2259
| 17> C -5.4024 0.4379 0.9427
| 18> C -4.0114 0.3166 1.0530
| 19> O -3.4213 0.6441 2.2749
| 20> N -1.0836 -1.2479 -0.5761
| 21> C 0.2574 -1.0238 -0.5347
| 22> O 1.1700 -1.9543 -1.0209
| 23> N 3.1168 0.0345 -0.1853
| 24> H 5.8994 0.4702 2.1234
| 25> H 5.4727 -1.1218 1.3729
| 26> H 7.1079 -0.4025 1.1025
| 27> H 6.0884 1.4903 -0.1599
| 28> H 5.6631 -0.0933 -0.9060
| 29> H -3.3883 -0.9563 -2.0615
| 30> H -5.8392 -0.7783 -2.1995
| 31> H -7.1350 0.1344 -0.2973
| 32> H -5.9798 0.8149 1.7774
| 33> H -2.4597 0.4276 2.4990
| 34> H 0.8536 -2.8304 -1.4184
| 35> *
| 36> 
| 37>                          ****END OF INPUT****
================================================================================

                       ****************************
                       * Single Point Calculation *
                       ****************************

---------------------------------
CARTESIAN COORDINATES (ANGSTROEM)
---------------------------------
  C      6.028900   -0.171600    1.226100
  C      5.514100    0.550300   -0.012200
  N      4.098000    0.858800    0.138800
  N      3.630100    1.966500    0.688100
  N      2.309000    1.901400    0.722400
  C      2.006300    0.704300    0.179300
  C      0.637800    0.196500    0.017800
  S     -0.759900    1.019400    0.462700
  C     -1.785500   -0.223500   -0.038800
  C     -3.260800   -0.164500   -0.048300
  C     -3.938800   -0.576500   -1.209200
  C     -5.328700   -0.469700   -1.296300
  C     -6.058600    0.046800   -0.225900
  C     -5.402400    0.437900    0.942700
  C     -4.011400    0.316600    1.053000
  O     -3.421300    0.644100    2.274900
  N     -1.083600   -1.247900   -0.576100
  C      0.257400   -1.023800   -0.534700
  O      1.170000   -1.954300   -1.020900
  N      3.116800    0.034500   -0.185300
  H      5.899400    0.470200    2.123400
  H      5.472700   -1.121800    1.372900
  H      7.107900   -0.402500    1.102500
  H      6.088400    1.490300   -0.159900
  H      5.663100   -0.093300   -0.906000
  H     -3.388300   -0.956300   -2.061500
  H     -5.839200   -0.778300   -2.199500
  H     -7.135000    0.134400   -0.297300
  H     -5.979800    0.814900    1.777400
  H     -2.459700    0.427600    2.499000
  H      0.853600   -2.830400   -1.418400

----------------------------
CARTESIAN COORDINATES (A.U.)
----------------------------
  NO LB      ZA    FRAG     MASS         X           Y           Z
   0 C     6.0000    0    12.011   11.392970   -0.324277    2.316993
   1 C     6.0000    0    12.011   10.420139    1.039916   -0.023055
   2 N     7.0000    0    14.007    7.744098    1.622897    0.262294
   3 N     7.0000    0    14.007    6.859895    3.716146    1.300321
   4 N     7.0000    0    14.007    4.363378    3.593125    1.365138
   5 C     6.0000    0    12.011    3.791358    1.330934    0.338828
   6 C     6.0000    0    12.011    1.205267    0.371331    0.033637
   7 S    16.0000    0    32.060   -1.436003    1.926387    0.874376
   8 C     6.0000    0    12.011   -3.374106   -0.422354   -0.073321
   9 C     6.0000    0    12.011   -6.162019   -0.310860   -0.091274
  10 C     6.0000    0    12.011   -7.443253   -1.089427   -2.285057
  11 C     6.0000    0    12.011  -10.069784   -0.887604   -2.449652
  12 C     6.0000    0    12.011  -11.449095    0.088439   -0.426889
  13 C     6.0000    0    12.011  -10.209056    0.827511    1.781445
  14 C     6.0000    0    12.011   -7.580447    0.598287    1.989882
  15 O     8.0000    0    15.999   -6.465320    1.217173    4.298938
  16 N     7.0000    0    14.007   -2.047707   -2.358189   -1.088671
  17 C     6.0000    0    12.011    0.486416   -1.934702   -1.010437
  18 O     8.0000    0    15.999    2.210980   -3.693092   -1.929221
  19 N     7.0000    0    14.007    5.889898    0.065196   -0.350166
  20 H     1.0000    0     1.008   11.148250    0.888549    4.012644
  21 H     1.0000    0     1.008   10.341904   -2.119895    2.594405
  22 H     1.0000    0     1.008   13.431984   -0.760615    2.083423
  23 H     1.0000    0     1.008   11.505409    2.816259   -0.302167
  24 H     1.0000    0     1.008   10.701708   -0.176311   -1.712092
  25 H     1.0000    0     1.008   -6.402959   -1.807145   -3.895670
  26 H     1.0000    0     1.008  -11.034489   -1.470774   -4.156453
  27 H     1.0000    0     1.008  -13.483196    0.253979   -0.561816
  28 H     1.0000    0     1.008  -11.300184    1.539938    3.358799
  29 H     1.0000    0     1.008   -4.648159    0.808047    4.722426
  30 H     1.0000    0     1.008    1.613070   -5.348681   -2.680388

--------------------------------
INTERNAL COORDINATES (ANGSTROEM)
--------------------------------
 C      0   0   0     0.000000000000     0.00000000     0.00000000
 C      1   0   0     1.523005430063     0.00000000     0.00000000
 N      2   1   0     1.457159037305   110.15665816     0.00000000
 N      3   2   1     1.321990994674   124.36173068    88.85188777
 N      4   3   2     1.323147652380   108.84044416   182.81492121
 C      5   4   3     1.348937845121   104.90856853     0.42132472
 C      6   5   4     1.468582765798   124.07213459   179.65019061
 S      7   6   5     1.681863760832   125.17927787     0.66449840
 C      8   7   6     1.687648666044    93.78927476   180.35712704
 C      9   8   7     1.476509850966   125.42907953   185.04689582
 C     10   9   8     1.406099857763   118.38496942   131.88155588
 C     11  10   9     1.396715668989   120.59144228   183.60317870
 C     12  11  10     1.394733816898   120.08137505   359.88037828
 C     13  12  11     1.396131659264   120.01006394   358.97197450
 C     14  13  12     1.400628708830   120.55981164     0.00000000
 O     15  14  13     1.395891783055   117.93373281   183.98292548
 N      9   8   7     1.353052201506   111.12070310   358.35006454
 C     17   9   8     1.360226367190   111.99960406     1.78864212
 O     18  17   9     1.391064143021   121.73080185   179.31083588
 N      3   2   1     1.321841420141   124.32936839   272.93192606
 H      1   2   3     1.110776656219   110.09166838   299.76754364
 H      1   2   3     1.110760424214   110.10118881    60.23569325
 H      1   2   3     1.110330027514   109.66620743   180.00640586
 H      2   1   3     1.111411615919   109.52884075   120.72761497
 H      2   1   3     1.111440686677   109.51535302   239.33119804
 H     11  10   9     1.083380625634   120.47902736     1.88266397
 H     12  11  10     1.082411405151   119.97128374   179.23074613
 H     13  12  11     1.082316349318   119.98736068   179.63342160
 H     14  13  12     1.082702105844   119.48434066   181.49994483
 H     16  15  14     1.010825217335   123.09093148   168.37558213
 H     19  18  17     1.012751904466   120.72244993   359.80648594

---------------------------
INTERNAL COORDINATES (A.U.)
---------------------------
 C      0   0   0     0.000000000000     0.00000000     0.00000000
 C      1   0   0     2.878063163293     0.00000000     0.00000000
 N      2   1   0     2.753631514075   110.15665816     0.00000000
 N      3   2   1     2.498200931445   124.36173068    88.85188777
 N      4   3   2     2.500386697740   108.84044416   182.81492121
 C      5   4   3     2.549123098961   104.90856853     0.42132472
 C      6   5   4     2.775219232356   124.07213459   179.65019061
 S      7   6   5     3.178261902539   125.17927787     0.66449840
 C      8   7   6     3.189193789101    93.78927476   180.35712704
 C      9   8   7     2.790199252363   125.42907953   185.04689582
 C     10   9   8     2.657143648117   118.38496942   131.88155588
 C     11  10   9     2.639410101346   120.59144228   183.60317870
 C     12  11  10     2.635664943657   120.08137505   359.88037828
 C     13  12  11     2.638306482907   120.01006394   358.97197450
 C     14  13  12     2.646804674997   120.55981164     0.00000000
 O     15  14  13     2.637853182565   117.93373281   183.98292548
 N      9   8   7     2.556898105745   111.12070310   358.35006454
 C     17   9   8     2.570455314128   111.99960406     1.78864212
 O     18  17   9     2.628730265028   121.73080185   179.31083588
 N      3   2   1     2.497918276540   124.32936839   272.93192606
 H      1   2   3     2.099063676206   110.09166838   299.76754364
 H      1   2   3     2.099033002163   110.10118881    60.23569325
 H      1   2   3     2.098219670271   109.66620743   180.00640586
 H      2   1   3     2.100263576146   109.52884075   120.72761497
 H      2   1   3     2.100318511916   109.51535302   239.33119804
 H     11  10   9     2.047292681245   120.47902736     1.88266397
 H     12  11  10     2.045461119967   119.97128374   179.23074613
 H     13  12  11     2.045281490476   119.98736068   179.63342160
 H     14  13  12     2.046010464666   119.48434066   181.49994483
 H     16  15  14     1.910182830024   123.09093148   168.37558213
 H     19  18  17     1.913823741048   120.72244993   359.80648594

---------------------
BASIS SET INFORMATION
---------------------
There are 5 groups of distinct atoms

 Group   1 Type C   : 10s4p1d contracted to 3s2p1d pattern {631/31/1}
 Group   2 Type N   : 10s4p1d contracted to 3s2p1d pattern {631/31/1}
 Group   3 Type S   : 16s10p1d contracted to 4s3p1d pattern {6631/631/1}
 Group   4 Type O   : 10s4p1d contracted to 3s2p1d pattern {631/31/1}
 Group   5 Type H   : 4s contracted to 2s pattern {31}

Atom   0C    basis set group =>   1
Atom   1C    basis set group =>   1
Atom   2N    basis set group =>   2
Atom   3N    basis set group =>   2
Atom   4N    basis set group =>   2
Atom   5C    basis set group =>   1
Atom   6C    basis set group =>   1
Atom   7S    basis set group =>   3
Atom   8C    basis set group =>   1
Atom   9C    basis set group =>   1
Atom  10C    basis set group =>   1
Atom  11C    basis set group =>   1
Atom  12C    basis set group =>   1
Atom  13C    basis set group =>   1
Atom  14C    basis set group =>   1
Atom  15O    basis set group =>   4
Atom  16N    basis set group =>   2
Atom  17C    basis set group =>   1
Atom  18O    basis set group =>   4
Atom  19N    basis set group =>   2
Atom  20H    basis set group =>   5
Atom  21H    basis set group =>   5
Atom  22H    basis set group =>   5
Atom  23H    basis set group =>   5
Atom  24H    basis set group =>   5
Atom  25H    basis set group =>   5
Atom  26H    basis set group =>   5
Atom  27H    basis set group =>   5
Atom  28H    basis set group =>   5
Atom  29H    basis set group =>   5
Atom  30H    basis set group =>   5
---------------------------------
AUXILIARY/J BASIS SET INFORMATION
---------------------------------
There are 5 groups of distinct atoms

 Group   1 Type C   : 12s5p4d2f1g contracted to 6s4p3d1f1g pattern {711111/2111/211/2/1}
 Group   2 Type N   : 12s5p4d2f1g contracted to 6s4p3d1f1g pattern {711111/2111/211/2/1}
 Group   3 Type S   : 14s5p5d2f1g contracted to 8s4p3d1f1g pattern {71111111/2111/311/2/1}
 Group   4 Type O   : 12s5p4d2f1g contracted to 6s4p3d1f1g pattern {711111/2111/211/2/1}
 Group   5 Type H   : 5s2p1d contracted to 3s1p1d pattern {311/2/1}

Atom   0C    basis set group =>   1
Atom   1C    basis set group =>   1
Atom   2N    basis set group =>   2
Atom   3N    basis set group =>   2
Atom   4N    basis set group =>   2
Atom   5C    basis set group =>   1
Atom   6C    basis set group =>   1
Atom   7S    basis set group =>   3
Atom   8C    basis set group =>   1
Atom   9C    basis set group =>   1
Atom  10C    basis set group =>   1
Atom  11C    basis set group =>   1
Atom  12C    basis set group =>   1
Atom  13C    basis set group =>   1
Atom  14C    basis set group =>   1
Atom  15O    basis set group =>   4
Atom  16N    basis set group =>   2
Atom  17C    basis set group =>   1
Atom  18O    basis set group =>   4
Atom  19N    basis set group =>   2
Atom  20H    basis set group =>   5
Atom  21H    basis set group =>   5
Atom  22H    basis set group =>   5
Atom  23H    basis set group =>   5
Atom  24H    basis set group =>   5
Atom  25H    basis set group =>   5
Atom  26H    basis set group =>   5
Atom  27H    basis set group =>   5
Atom  28H    basis set group =>   5
Atom  29H    basis set group =>   5
Atom  30H    basis set group =>   5
------------------------------------------------------------------------------
                             ORCA STARTUP CALCULATIONS
                           -- RI-GTO INTEGRALS CHOSEN --
------------------------------------------------------------------------------
------------------------------------------------------------------------------
                   ___                                                        
                  /   \      - P O W E R E D   B Y -                         
                 /     \                                                     
                 |  |  |   _    _      __       _____    __    __             
                 |  |  |  | |  | |    /  \     |  _  \  |  |  /  |          
                  \  \/   | |  | |   /    \    | | | |  |  | /  /          
                 / \  \   | |__| |  /  /\  \   | |_| |  |  |/  /          
                |  |  |   |  __  | /  /__\  \  |    /   |      \           
                |  |  |   | |  | | |   __   |  |    \   |  |\   \          
                \     /   | |  | | |  |  |  |  | |\  \  |  | \   \       
                 \___/    |_|  |_| |__|  |__|  |_| \__\ |__|  \__/        
                                                                              
                      - O R C A' S   B I G   F R I E N D -                    
                                      &                                       
                       - I N T E G R A L  F E E D E R -                       
                                                                              
 v1 FN, 2020, v2 2021, v3 2022-2024                                           
------------------------------------------------------------------------------


----------------------
SHARK INTEGRAL PACKAGE
----------------------

Number of atoms                             ...     31
Number of basis functions                   ...    306
Number of shells                            ...    144
Maximum angular momentum                    ...      2
Integral batch strategy                     ... SHARK/LIBINT Hybrid
RI-J (if used) integral strategy            ... SPLIT-RIJ (Revised 2003 algorithm where possible)
Printlevel                                  ...      1
Contraction scheme used                     ... SEGMENTED contraction
Prescreening option                         ... SCHWARTZ
   Thresh                                   ... 1.000e-10
   Tcut                                     ... 1.000e-11
   Tpresel                                  ... 1.000e-11 
Coulomb Range Separation                    ... NOT USED
Exchange Range Separation                   ... NOT USED
Multipole approximations                    ... NOT USED
Finite Nucleus Model                        ... NOT USED
CABS basis                                  ... NOT available
Auxiliary Coulomb fitting basis             ... AVAILABLE
   # of basis functions in Aux-J            ...   1103
   # of shells in Aux-J                     ...    357
   Maximum angular momentum in Aux-J        ...      4
Auxiliary J/K fitting basis                 ... NOT available
Auxiliary Correlation fitting basis         ... NOT available
Auxiliary 'external' fitting basis          ... NOT available

Checking pre-screening integrals            ... done (  0.0 sec) Dimension = 144
Check shell pair data                       ... done (  0.0 sec)
Shell pair information
Shell pair cut-off parameter TPreSel        ...   1.0e-11
Total number of shell pairs                 ...     10440
Shell pairs after pre-screening             ...      6605
Total number of primitive shell pairs       ...     64029
Primitive shell pairs kept                  ...     22923
          la=0 lb=0:   1999 shell pairs
          la=1 lb=0:   2307 shell pairs
          la=1 lb=1:    678 shell pairs
          la=2 lb=0:    935 shell pairs
          la=2 lb=1:    565 shell pairs
          la=2 lb=2:    121 shell pairs

Calculating one electron integrals          ... done (  0.1 sec)
Calculating RI/J V-Matrix + Cholesky decomp.... done (  0.2 sec)
Calculating Nuclear repulsion               ... done (  0.0 sec) ENN=   1578.655546521436 Eh

Diagonalization of the overlap matrix:
Smallest eigenvalue                        ... 4.653e-04
Time for diagonalization                   ...    0.014 sec
Threshold for overlap eigenvalues          ... 1.000e-07
Number of eigenvalues below threshold      ... 0
Time for construction of square roots      ...    0.017 sec
Total time needed                          ...    0.041 sec

-------------------
DFT GRID GENERATION
-------------------

General Integration Accuracy     IntAcc      ... 4.388
Radial Grid Type                 RadialGrid  ... OptM3 with GC (2021)
Angular Grid (max. ang.)         AngularGrid ... 4 (Lebedev-302)
Angular grid pruning method      GridPruning ... 4 (adaptive)
Weight generation scheme         WeightScheme... mBecke (2022)
Basis function cutoff            BFCut       ... 1.0000e-10
Integration weight cutoff        WCut        ... 1.0000e-14
Partially contracted basis set               ... off
Rotationally invariant grid construction     ... off
Angular grids for H and He will be reduced by one unit

Total number of grid points                  ...   156907
Total number of batches                      ...     2468
Average number of points per batch           ...       63
Average number of grid points per atom       ...     5062

--------------------
COSX GRID GENERATION
--------------------

GRIDX 1
-------
General Integration Accuracy     IntAcc      ... 3.816
Radial Grid Type                 RadialGrid  ... OptM3 with GC (2021)
Angular Grid (max. ang.)         AngularGrid ... 1 (Lebedev-50)
Angular grid pruning method      GridPruning ... 4 (adaptive)
Weight generation scheme         WeightScheme... mBecke (2022)
Basis function cutoff            BFCut       ... 1.0000e-10
Integration weight cutoff        WCut        ... 1.0000e-14
Partially contracted basis set               ... on
Rotationally invariant grid construction     ... off
Angular grids for H and He will be reduced by one unit

Total number of grid points                  ...    20947
Total number of batches                      ...      182
Average number of points per batch           ...      115
Average number of grid points per atom       ...      676
UseSFitting                                  ... on

GRIDX 2
-------
General Integration Accuracy     IntAcc      ... 4.020
Radial Grid Type                 RadialGrid  ... OptM3 with GC (2021)
Angular Grid (max. ang.)         AngularGrid ... 2 (Lebedev-110)
Angular grid pruning method      GridPruning ... 4 (adaptive)
Weight generation scheme         WeightScheme... mBecke (2022)
Basis function cutoff            BFCut       ... 1.0000e-10
Integration weight cutoff        WCut        ... 1.0000e-14
Partially contracted basis set               ... on
Rotationally invariant grid construction     ... off
Angular grids for H and He will be reduced by one unit

Total number of grid points                  ...    44141
Total number of batches                      ...      361
Average number of points per batch           ...      122
Average number of grid points per atom       ...     1424
UseSFitting                                  ... on

GRIDX 3
-------
General Integration Accuracy     IntAcc      ... 4.338
Radial Grid Type                 RadialGrid  ... OptM3 with GC (2021)
Angular Grid (max. ang.)         AngularGrid ... 3 (Lebedev-194)
Angular grid pruning method      GridPruning ... 4 (adaptive)
Weight generation scheme         WeightScheme... mBecke (2022)
Basis function cutoff            BFCut       ... 1.0000e-10
Integration weight cutoff        WCut        ... 1.0000e-14
Partially contracted basis set               ... on
Rotationally invariant grid construction     ... off
Angular grids for H and He will be reduced by one unit

Total number of grid points                  ...    97534
Total number of batches                      ...      780
Average number of points per batch           ...      125
Average number of grid points per atom       ...     3146
UseSFitting                                  ... on
Initializing property integral containers    ... done (  0.0 sec)

SHARK setup successfully completed in   4.9 seconds

Maximum memory used throughout the entire STARTUP-calculation: 64.3 MB
-------------------------------------------------------------------------------
                                 ORCA GUESS
                   Start orbitals & Density for SCF / CASSCF
-------------------------------------------------------------------------------

------------
SCF SETTINGS
------------
Hamiltonian:
 Density Functional     Method          .... DFT(GTOs)
 Exchange Functional    Exchange        .... B88
   X-Alpha parameter    XAlpha          ....  0.666667
   Becke's b parameter  XBeta           ....  0.004200
 Correlation Functional Correlation     .... LYP
 LDA part of GGA corr.  LDAOpt          .... VWN-5
 Gradients option       PostSCFGGA      .... off
 Hybrid DFT is turned on
   Fraction HF Exchange ScalHFX         ....  0.200000
   Scaling of DF-GGA-X  ScalDFX         ....  0.720000
   Scaling of DF-GGA-C  ScalDFC         ....  0.810000
   Scaling of DF-LDA-C  ScalLDAC        ....  1.000000
   Perturbative correction              ....  0.000000
   NL short-range parameter             ....  4.800000
 RI-approximation to the Coulomb term is turned on
   Number of AuxJ basis functions       .... 1103
   RIJ-COSX (HFX calculated with COS-X)).... on


General Settings:
 Integral files         IntName         .... /home/nmrbox/aojoawo/Documents/ERDOS/inputs/CHEMBL5290716
 Hartree-Fock type      HFTyp           .... RHF
 Total Charge           Charge          ....    0
 Multiplicity           Mult            ....    1
 Number of Electrons    NEL             ....  150
 Basis Dimension        Dim             ....  306
 Nuclear Repulsion      ENuc            ....   1578.6555465214 Eh

Convergence Acceleration:
 AO-DIIS                CNVDIIS         .... on
   Start iteration      DIISMaxIt       ....    12
   Startup error        DIISStart       ....  0.200000
   # of expansion vecs  DIISMaxEq       ....     5
   Bias factor          DIISBfac        ....   1.050
   Max. coefficient     DIISMaxC        ....  10.000
 MO-DIIS                CNVKDIIS        .... off
 Trust-Rad. Augm. Hess. CNVTRAH         .... auto
   Auto Start mean grad. ratio tolernc. ....  1.125000
   Auto Start start iteration           ....    50
   Auto Start num. interpolation iter.  ....    10
   Max. Number of Micro iterations      ....    24
   Max. Number of Macro iterations      .... Maxiter - #DIIS iter
   Number of Davidson start vectors     ....     2
   Converg. threshold    (grad. norm)   ....   5.000e-05
   Grad. Scal. Fac. for Micro threshold ....   0.100
   Minimum threshold for Micro iter.    ....   1.000e-02
   NR start threshold (gradient norm)   ....   1.000e-04
   Initial trust radius                 ....   0.400
   Minimum AH scaling param. (alpha)    ....   1.000
   Maximum AH scaling param. (alpha)    .... 1000.000
   Quad. conv. algorithm                .... NR
   White noise on init. David. guess    .... on
   Maximum white noise                  ....   0.010
   Pseudo random numbers                .... off
   Inactive MOs                         .... canonical
   Orbital update algorithm             .... Taylor
   Preconditioner                       .... Diag
   Full preconditioner red. dimension   ....   250
 SOSCF                  CNVSOSCF        .... on
   Start iteration      SOSCFMaxIt      ....   150
   Startup grad/error   SOSCFStart      ....  0.003300
   Hessian update       SOSCFHessUp     .... L-BFGS
 Level Shifting         CNVShift        .... on
   Level shift para.    LevelShift      ....    0.2500
   Turn off err/grad.   ShiftErr        ....    0.0010
 Zerner damping         CNVZerner       .... off
 Static damping         CNVDamp         .... on
   Fraction old density DampFac         ....    0.7000
   Max. Damping (<1)    DampMax         ....    0.9800
   Min. Damping (>=0)   DampMin         ....    0.0000
   Turn off err/grad.   DampErr         ....    0.1000

SCF Procedure:
 Maximum # iterations   MaxIter         ....   125
 SCF integral mode      SCFMode         .... Direct
   Integral package                     .... SHARK and LIBINT hybrid scheme
 Reset frequency        DirectResetFreq ....    20
 Integral Threshold     Thresh          ....  1.000e-10 Eh
 Primitive CutOff       TCut            ....  1.000e-11 Eh

Convergence Tolerance:
 Convergence Check Mode ConvCheckMode   .... Total+1el-Energy
 Convergence forced     ConvForced      .... 0
 Energy Change          TolE            ....  1.000e-06 Eh
 1-El. energy change                    ....  1.000e-03 Eh
 Orbital Gradient       TolG            ....  5.000e-05
 Orbital Rotation angle TolX            ....  5.000e-05
 DIIS Error             TolErr          ....  1.000e-06

------------------------------
INITIAL GUESS: MODEL POTENTIAL
------------------------------
Loading Hartree-Fock densities                     ... done
Calculating cut-offs                               ... done
Initializing the effective Hamiltonian             ... done
Setting up the integral package (SHARK)            ... done
Starting the Coulomb interaction                   ... done (   0.9 sec)
Making the grid                                    ... done (   0.5 sec)
Mapping shells                                     ... done
Starting the XC term evaluation                    ... done (   0.5 sec)
  promolecular density results
     # of electrons  =    149.992514557
     EX              =   -139.255009605
     EC              =     -5.298967830
     EX+EC           =   -144.553977435
Transforming the Hamiltonian                       ... done (   0.0 sec)
Diagonalizing the Hamiltonian                      ... done (   0.0 sec)
Back transforming the eigenvectors                 ... done (   0.1 sec)
Now organizing SCF variables                       ... done
                      ------------------
                      INITIAL GUESS DONE (   2.1 sec)
                      ------------------
             **** ENERGY FILE WAS UPDATED (/home/nmrbox/aojoawo/Documents/ERDOS/inputs/CHEMBL5290716.en.tmp) ****
Finished Guess after   2.3 sec
Maximum memory used throughout the entire GUESS-calculation: 33.6 MB

-------------------------------------------------------------------------------------------
                                      ORCA LEAN-SCF
                              memory conserving SCF solver
-------------------------------------------------------------------------------------------

----------------------------------------D-I-I-S--------------------------------------------
Iteration    Energy (Eh)           Delta-E    RMSDP     MaxDP     DIISErr   Damp  Time(sec)
-------------------------------------------------------------------------------------------
               ***  Starting incremental Fock matrix formation  ***
    1    -1285.1784701302503890     0.00e+00  2.52e-03  8.75e-02  2.16e-01  0.700  22.0
    2    -1285.3955048188754517    -2.17e-01  1.72e-03  5.55e-02  1.01e-01  0.700  10.7
                               ***Turning on AO-DIIS***
    3    -1285.4776123997039576    -8.21e-02  7.22e-04  2.24e-02  3.43e-02  0.700  10.9
    4    -1285.5272271477947470    -4.96e-02  1.26e-03  6.01e-02  1.55e-02  0.000   9.8
    5    -1285.6372155320282218    -1.10e-01  2.76e-04  9.72e-03  9.50e-03  0.000  10.2
                              *** Initializing SOSCF ***
---------------------------------------S-O-S-C-F--------------------------------------
Iteration    Energy (Eh)           Delta-E    RMSDP     MaxDP     MaxGrad    Time(sec)
--------------------------------------------------------------------------------------
    6    -1285.6379694103320617    -7.54e-04  9.22e-05  2.85e-03  2.70e-03     8.7
               *** Restarting incremental Fock matrix formation ***
    7    -1285.6381077990608901    -1.38e-04  6.90e-05  1.97e-03  3.59e-04    22.2
    8    -1285.6380928635039709     1.49e-05  3.91e-05  1.48e-03  7.48e-04    13.7
    9    -1285.6381201410567883    -2.73e-05  1.81e-05  6.38e-04  1.08e-04    12.3
   10    -1285.6381187968872837     1.34e-06  1.06e-05  4.27e-04  1.79e-04    11.8
   11    -1285.6381207639647073    -1.97e-06  4.04e-06  1.63e-04  2.51e-05    10.6
   12    -1285.6381207291324245     3.48e-08  2.42e-06  1.08e-04  4.53e-05     9.1
                 **** Energy Check signals convergence ****

               *****************************************************
               *                     SUCCESS                       *
               *           SCF CONVERGED AFTER  12 CYCLES          *
               *****************************************************

Recomputing exchange energy using gridx3       ... done (   38.871 sec)
Old exchange energy                            :    -28.113000046 Eh
New exchange energy                            :    -28.113008710 Eh
Exchange energy change after final integration :     -0.000008665 Eh
Total energy after final integration           :  -1285.638129394 Eh
             **** ENERGY FILE WAS UPDATED (/home/nmrbox/aojoawo/Documents/ERDOS/inputs/CHEMBL5290716.en.tmp) ****

----------------
TOTAL SCF ENERGY
----------------

Total Energy       :      -1285.63812939394893 Eh          -34983.99205 eV

Components:
Nuclear Repulsion  :       1578.65554652143555 Eh           42957.40133 eV
Electronic Energy  :      -2864.29366725056843 Eh          -77941.39315 eV
One Electron Energy:      -4894.14890389531320 Eh         -133176.56224 eV
Two Electron Energy:       2029.85523664474499 Eh           55235.16909 eV

Virial components:
Potential Energy   :      -2564.90586335716398 Eh          -69794.63683 eV
Kinetic Energy     :       1279.26773396321505 Eh           34810.64478 eV
Virial Ratio       :          2.00497972024277

DFT components:
N(Alpha)           :       74.999994481734 electrons
N(Beta)            :       74.999994481734 electrons
N(Total)           :      149.999988963468 electrons
E(X)               :     -111.781117851549 Eh       
E(C)               :       -6.223949228844 Eh       
E(XC)              :     -118.005067080394 Eh       

---------------
SCF CONVERGENCE
---------------

  Last Energy change         ...   -3.4832e-08  Tolerance :   1.0000e-06
  Last MAX-Density change    ...    1.0782e-04  Tolerance :   1.0000e-05
  Last RMS-Density change    ...    2.4178e-06  Tolerance :   1.0000e-06
  Last DIIS Error            ...    2.7028e-03  Tolerance :   1.0000e-06
  Last Orbital Gradient      ...    4.5259e-05  Tolerance :   5.0000e-05
  Last Orbital Rotation      ...    7.8823e-05  Tolerance :   5.0000e-05


----------------
ORBITAL ENERGIES
----------------

  NO   OCC          E(Eh)            E(eV) 
   0   2.0000     -88.906924     -2419.2804 
   1   2.0000     -19.175583      -521.7941 
   2   2.0000     -19.169431      -521.6267 
   3   2.0000     -14.455265      -393.3478 
   4   2.0000     -14.393517      -391.6675 
   5   2.0000     -14.363947      -390.8629 
   6   2.0000     -14.356618      -390.6634 
   7   2.0000     -14.335357      -390.0849 
   8   2.0000     -10.284493      -279.8553 
   9   2.0000     -10.258830      -279.1570 
  10   2.0000     -10.258755      -279.1549 
  11   2.0000     -10.252415      -278.9824 
  12   2.0000     -10.248627      -278.8793 
  13   2.0000     -10.222021      -278.1553 
  14   2.0000     -10.205300      -277.7003 
  15   2.0000     -10.192958      -277.3645 
  16   2.0000     -10.190117      -277.2872 
  17   2.0000     -10.189227      -277.2630 
  18   2.0000     -10.184079      -277.1229 
  19   2.0000     -10.179702      -277.0038 
  20   2.0000      -7.983430      -217.2402 
  21   2.0000      -5.946473      -161.8118 
  22   2.0000      -5.942394      -161.7008 
  23   2.0000      -5.940464      -161.6482 
  24   2.0000      -1.142630       -31.0925 
  25   2.0000      -1.045366       -28.4459 
  26   2.0000      -1.034951       -28.1625 
  27   2.0000      -0.963115       -26.2077 
  28   2.0000      -0.946010       -25.7423 
  29   2.0000      -0.892597       -24.2888 
  30   2.0000      -0.854156       -23.2428 
  31   2.0000      -0.820137       -22.3171 
  32   2.0000      -0.789552       -21.4848 
  33   2.0000      -0.778801       -21.1922 
  34   2.0000      -0.743098       -20.2207 
  35   2.0000      -0.729082       -19.8393 
  36   2.0000      -0.685253       -18.6467 
  37   2.0000      -0.662669       -18.0321 
  38   2.0000      -0.636136       -17.3101 
  39   2.0000      -0.611117       -16.6293 
  40   2.0000      -0.608352       -16.5541 
  41   2.0000      -0.586059       -15.9475 
  42   2.0000      -0.582387       -15.8476 
  43   2.0000      -0.540456       -14.7066 
  44   2.0000      -0.531069       -14.4511 
  45   2.0000      -0.520116       -14.1531 
  46   2.0000      -0.504500       -13.7282 
  47   2.0000      -0.496045       -13.4981 
  48   2.0000      -0.472724       -12.8635 
  49   2.0000      -0.470313       -12.7979 
  50   2.0000      -0.459172       -12.4947 
  51   2.0000      -0.441578       -12.0159 
  52   2.0000      -0.436537       -11.8788 
  53   2.0000      -0.426429       -11.6037 
  54   2.0000      -0.412084       -11.2134 
  55   2.0000      -0.401518       -10.9259 
  56   2.0000      -0.393924       -10.7192 
  57   2.0000      -0.387091       -10.5333 
  58   2.0000      -0.379937       -10.3386 
  59   2.0000      -0.374052       -10.1785 
  60   2.0000      -0.372422       -10.1341 
  61   2.0000      -0.366779        -9.9806 
  62   2.0000      -0.356936        -9.7127 
  63   2.0000      -0.354662        -9.6509 
  64   2.0000      -0.338389        -9.2080 
  65   2.0000      -0.328424        -8.9369 
  66   2.0000      -0.318442        -8.6652 
  67   2.0000      -0.307215        -8.3598 
  68   2.0000      -0.292799        -7.9675 
  69   2.0000      -0.286289        -7.7903 
  70   2.0000      -0.278814        -7.5869 
  71   2.0000      -0.272065        -7.4033 
  72   2.0000      -0.259329        -7.0567 
  73   2.0000      -0.230124        -6.2620 
  74   2.0000      -0.208273        -5.6674 
  75   0.0000      -0.053215        -1.4481 
  76   0.0000      -0.017708        -0.4819 
  77   0.0000      -0.001391        -0.0379 
  78   0.0000       0.007737         0.2105 
  79   0.0000       0.024562         0.6684 
  80   0.0000       0.037208         1.0125 
  81   0.0000       0.058362         1.5881 
  82   0.0000       0.075396         2.0516 
  83   0.0000       0.089886         2.4459 
  84   0.0000       0.095463         2.5977 
  85   0.0000       0.105311         2.8656 
*Only the first 10 virtual orbitals were printed.

                    ********************************
                    * MULLIKEN POPULATION ANALYSIS *
                    ********************************

-----------------------
MULLIKEN ATOMIC CHARGES
-----------------------
   0 C :   -0.445999
   1 C :   -0.143258
   2 N :   -0.029767
   3 N :   -0.067064
   4 N :   -0.326678
   5 C :    0.408798
   6 C :   -0.218181
   7 S :    0.287160
   8 C :   -0.066542
   9 C :    0.082020
  10 C :   -0.146131
  11 C :   -0.139681
  12 C :   -0.113396
  13 C :   -0.168823
  14 C :    0.324191
  15 O :   -0.672105
  16 N :   -0.402731
  17 C :    0.481568
  18 O :   -0.635257
  19 N :   -0.300621
  20 H :    0.173347
  21 H :    0.174776
  22 H :    0.156615
  23 H :    0.187979
  24 H :    0.188557
  25 H :    0.150728
  26 H :    0.130121
  27 H :    0.136523
  28 H :    0.145232
  29 H :    0.424340
  30 H :    0.424281
Sum of atomic charges:    0.0000000

--------------------------------
MULLIKEN REDUCED ORBITAL CHARGES
--------------------------------
  0 C s       :     3.312422  s :     3.312422
      pz      :     0.984905  p :     3.100110
      px      :     1.055306
      py      :     1.059899
      dz2     :     0.008374  d :     0.033467
      dxz     :     0.002786
      dyz     :     0.009100
      dx2y2   :     0.007320
      dxy     :     0.005888

  1 C s       :     3.224688  s :     3.224688
      pz      :     1.034727  p :     2.866603
      px      :     0.766563
      py      :     1.065313
      dz2     :     0.011257  d :     0.051967
      dxz     :     0.008078
      dyz     :     0.009765
      dx2y2   :     0.012857
      dxy     :     0.010011

  2 N s       :     3.430630  s :     3.430630
      pz      :     1.351288  p :     3.517424
      px      :     1.081395
      py      :     1.084742
      dz2     :     0.009593  d :     0.081713
      dxz     :     0.012190
      dyz     :     0.013145
      dx2y2   :     0.024958
      dxy     :     0.021826

  3 N s       :     3.667616  s :     3.667616
      pz      :     1.125487  p :     3.329649
      px      :     1.047686
      py      :     1.156476
      dz2     :     0.009278  d :     0.069800
      dxz     :     0.012710
      dyz     :     0.011681
      dx2y2   :     0.019691
      dxy     :     0.016440

  4 N s       :     3.734400  s :     3.734400
      pz      :     1.209604  p :     3.538164
      px      :     1.032933
      py      :     1.295628
      dz2     :     0.007437  d :     0.054114
      dxz     :     0.009737
      dyz     :     0.008043
      dx2y2   :     0.018726
      dxy     :     0.010170

  5 C s       :     3.012846  s :     3.012846
      pz      :     0.952920  p :     2.505337
      px      :     0.731063
      py      :     0.821354
      dz2     :     0.007854  d :     0.073019
      dxz     :     0.013025
      dyz     :     0.010537
      dx2y2   :     0.020594
      dxy     :     0.021009

  6 C s       :     3.210212  s :     3.210212
      pz      :     1.149583  p :     2.970258
      px      :     0.871133
      py      :     0.949541
      dz2     :     0.005021  d :     0.037711
      dxz     :     0.007514
      dyz     :     0.005067
      dx2y2   :     0.009081
      dxy     :     0.011027

  7 S s       :     5.822911  s :     5.822911
      pz      :     3.545049  p :     9.782664
      px      :     2.931521
      py      :     3.306093
      dz2     :     0.011286  d :     0.107266
      dxz     :     0.026987
      dyz     :     0.011251
      dx2y2   :     0.016297
      dxy     :     0.041444

  8 C s       :     3.183709  s :     3.183709
      pz      :     1.026398  p :     2.822061
      px      :     0.937932
      py      :     0.857731
      dz2     :     0.006939  d :     0.060772
      dxz     :     0.009405
      dyz     :     0.008600
      dx2y2   :     0.016749
      dxy     :     0.019080

  9 C s       :     3.123159  s :     3.123159
      pz      :     0.890669  p :     2.755887
      px      :     0.818105
      py      :     1.047113
      dz2     :     0.009350  d :     0.038935
      dxz     :     0.011804
      dyz     :     0.005863
      dx2y2   :     0.007200
      dxy     :     0.004717

 10 C s       :     3.204807  s :     3.204807
      pz      :     0.984182  p :     2.904795
      px      :     0.954736
      py      :     0.965876
      dz2     :     0.007595  d :     0.036529
      dxz     :     0.012284
      dyz     :     0.004739
      dx2y2   :     0.005151
      dxy     :     0.006761

 11 C s       :     3.183875  s :     3.183875
      pz      :     0.971192  p :     2.919980
      px      :     0.939715
      py      :     1.009073
      dz2     :     0.008092  d :     0.035826
      dxz     :     0.011913
      dyz     :     0.004073
      dx2y2   :     0.005715
      dxy     :     0.006032

 12 C s       :     3.189411  s :     3.189411
      pz      :     0.939093  p :     2.886931
      px      :     0.982531
      py      :     0.965306
      dz2     :     0.010361  d :     0.037055
      dxz     :     0.008967
      dyz     :     0.006290
      dx2y2   :     0.008180
      dxy     :     0.003256

 13 C s       :     3.190762  s :     3.190762
      pz      :     0.974947  p :     2.944108
      px      :     0.937403
      py      :     1.031758
      dz2     :     0.007841  d :     0.033954
      dxz     :     0.010208
      dyz     :     0.004686
      dx2y2   :     0.005602
      dxy     :     0.005615

 14 C s       :     3.106214  s :     3.106214
      pz      :     0.701117  p :     2.502257
      px      :     0.864948
      py      :     0.936192
      dz2     :     0.019331  d :     0.067338
      dxz     :     0.019271
      dyz     :     0.011946
      dx2y2   :     0.007290
      dxy     :     0.009500

 15 O s       :     3.893054  s :     3.893054
      pz      :     1.518592  p :     4.755902
      px      :     1.427911
      py      :     1.809400
      dz2     :     0.007846  d :     0.023149
      dxz     :     0.002126
      dyz     :     0.004456
      dx2y2   :     0.005882
      dxy     :     0.002838

 16 N s       :     3.698167  s :     3.698167
      pz      :     1.228083  p :     3.666264
      px      :     1.080342
      py      :     1.357838
      dz2     :     0.005769  d :     0.038301
      dxz     :     0.006642
      dyz     :     0.006709
      dx2y2   :     0.010457
      dxy     :     0.008724

 17 C s       :     2.985651  s :     2.985651
      pz      :     0.916704  p :     2.445719
      px      :     0.721082
      py      :     0.807933
      dz2     :     0.010134  d :     0.087061
      dxz     :     0.016549
      dyz     :     0.010697
      dx2y2   :     0.023294
      dxy     :     0.026387

 18 O s       :     3.894960  s :     3.894960
      pz      :     1.735458  p :     4.717098
      px      :     1.632478
      py      :     1.349162
      dz2     :     0.003002  d :     0.023199
      dxz     :     0.004501
      dyz     :     0.003418
      dx2y2   :     0.004345
      dxy     :     0.007933

 19 N s       :     3.741568  s :     3.741568
      pz      :     1.245697  p :     3.505064
      px      :     0.907941
      py      :     1.351426
      dz2     :     0.007146  d :     0.053989
      dxz     :     0.011120
      dyz     :     0.008585
      dx2y2   :     0.007312
      dxy     :     0.019826

 20 H s       :     0.826653  s :     0.826653

 21 H s       :     0.825224  s :     0.825224

 22 H s       :     0.843385  s :     0.843385

 23 H s       :     0.812021  s :     0.812021

 24 H s       :     0.811443  s :     0.811443

 25 H s       :     0.849272  s :     0.849272

 26 H s       :     0.869879  s :     0.869879

 27 H s       :     0.863477  s :     0.863477

 28 H s       :     0.854768  s :     0.854768

 29 H s       :     0.575660  s :     0.575660

 30 H s       :     0.575719  s :     0.575719



                     *******************************
                     * LOEWDIN POPULATION ANALYSIS *
                     *******************************

----------------------
LOEWDIN ATOMIC CHARGES
----------------------
   0 C :   -0.362389
   1 C :   -0.152416
   2 N :    0.097011
   3 N :   -0.076641
   4 N :   -0.128051
   5 C :   -0.006183
   6 C :   -0.251945
   7 S :    0.423757
   8 C :   -0.123124
   9 C :   -0.071514
  10 C :   -0.098142
  11 C :   -0.148689
  12 C :   -0.112080
  13 C :   -0.149165
  14 C :    0.095415
  15 O :   -0.347150
  16 N :   -0.180379
  17 C :    0.090873
  18 O :   -0.325817
  19 N :   -0.124019
  20 H :    0.138540
  21 H :    0.139157
  22 H :    0.134571
  23 H :    0.149839
  24 H :    0.150482
  25 H :    0.144830
  26 H :    0.133214
  27 H :    0.136509
  28 H :    0.144407
  29 H :    0.335188
  30 H :    0.343911

-------------------------------
LOEWDIN REDUCED ORBITAL CHARGES
-------------------------------
  0 C s       :     2.987964  s :     2.987964
      pz      :     1.075451  p :     3.308282
      px      :     1.115118
      py      :     1.117713
      dz2     :     0.017021  d :     0.066142
      dxz     :     0.006141
      dyz     :     0.018620
      dx2y2   :     0.013489
      dxy     :     0.010871

  1 C s       :     2.929721  s :     2.929721
      pz      :     1.105785  p :     3.113012
      px      :     0.891539
      py      :     1.115688
      dz2     :     0.022849  d :     0.109683
      dxz     :     0.018234
      dyz     :     0.019792
      dx2y2   :     0.027120
      dxy     :     0.021689

  2 N s       :     3.068343  s :     3.068343
      pz      :     1.324451  p :     3.645131
      px      :     1.150343
      py      :     1.170337
      dz2     :     0.019331  d :     0.189515
      dxz     :     0.024942
      dyz     :     0.031893
      dx2y2   :     0.058887
      dxy     :     0.054462

  3 N s       :     3.305816  s :     3.305816
      pz      :     1.156627  p :     3.616917
      px      :     1.181524
      py      :     1.278766
      dz2     :     0.018235  d :     0.153908
      dxz     :     0.026783
      dyz     :     0.022813
      dx2y2   :     0.045800
      dxy     :     0.040277

  4 N s       :     3.298310  s :     3.298310
      pz      :     1.206746  p :     3.713396
      px      :     1.175060
      py      :     1.331589
      dz2     :     0.013724  d :     0.116345
      dxz     :     0.018631
      dyz     :     0.014840
      dx2y2   :     0.045393
      dxy     :     0.023758

  5 C s       :     2.857345  s :     2.857345
      pz      :     0.983748  p :     2.973162
      px      :     0.993375
      py      :     0.996039
      dz2     :     0.016403  d :     0.175676
      dxz     :     0.028132
      dyz     :     0.024859
      dx2y2   :     0.052600
      dxy     :     0.053682

  6 C s       :     2.911580  s :     2.911580
      pz      :     1.152713  p :     3.243222
      px      :     1.023333
      py      :     1.067176
      dz2     :     0.010735  d :     0.097143
      dxz     :     0.016847
      dyz     :     0.012394
      dx2y2   :     0.025703
      dxy     :     0.031464

  7 S s       :     5.524733  s :     5.524733
      pz      :     3.550312  p :     9.924367
      px      :     2.977609
      py      :     3.396447
      dz2     :     0.013074  d :     0.127143
      dxz     :     0.032204
      dyz     :     0.012192
      dx2y2   :     0.019350
      dxy     :     0.050323

  8 C s       :     2.917931  s :     2.917931
      pz      :     1.012459  p :     3.063395
      px      :     1.037445
      py      :     1.013491
      dz2     :     0.014049  d :     0.141799
      dxz     :     0.019773
      dyz     :     0.020278
      dx2y2   :     0.039767
      dxy     :     0.047933

  9 C s       :     2.866906  s :     2.866906
      pz      :     1.057915  p :     3.105309
      px      :     1.000376
      py      :     1.047019
      dz2     :     0.025280  d :     0.099300
      dxz     :     0.031510
      dyz     :     0.013683
      dx2y2   :     0.017911
      dxy     :     0.010916

 10 C s       :     2.917654  s :     2.917654
      pz      :     1.051160  p :     3.095226
      px      :     1.067870
      py      :     0.976197
      dz2     :     0.018004  d :     0.085261
      dxz     :     0.029942
      dyz     :     0.009241
      dx2y2   :     0.013299
      dxy     :     0.014775

 11 C s       :     2.913701  s :     2.913701
      pz      :     1.063174  p :     3.150039
      px      :     1.067244
      py      :     1.019620
      dz2     :     0.018818  d :     0.084949
      dxz     :     0.029291
      dyz     :     0.008037
      dx2y2   :     0.014857
      dxy     :     0.013946

 12 C s       :     2.917102  s :     2.917102
      pz      :     1.055203  p :     3.108189
      px      :     1.074407
      py      :     0.978579
      dz2     :     0.026050  d :     0.086789
      dxz     :     0.023561
      dyz     :     0.015271
      dx2y2   :     0.015144
      dxy     :     0.006762

 13 C s       :     2.916062  s :     2.916062
      pz      :     1.071025  p :     3.152457
      px      :     1.045795
      py      :     1.035638
      dz2     :     0.018941  d :     0.080646
      dxz     :     0.025943
      dyz     :     0.009019
      dx2y2   :     0.014570
      dxy     :     0.012173

 14 C s       :     2.860702  s :     2.860702
      pz      :     0.899667  p :     2.885079
      px      :     1.031143
      py      :     0.954269
      dz2     :     0.046668  d :     0.158804
      dxz     :     0.048390
      dyz     :     0.026012
      dx2y2   :     0.017457
      dxy     :     0.020277

 15 O s       :     3.529550  s :     3.529550
      pz      :     1.533612  p :     4.773465
      px      :     1.436240
      py      :     1.803612
      dz2     :     0.015188  d :     0.044136
      dxz     :     0.006627
      dyz     :     0.007998
      dx2y2   :     0.009511
      dxy     :     0.004812

 16 N s       :     3.256787  s :     3.256787
      pz      :     1.243917  p :     3.839400
      px      :     1.173323
      py      :     1.422159
      dz2     :     0.010394  d :     0.084192
      dxz     :     0.015332
      dyz     :     0.011791
      dx2y2   :     0.025604
      dxy     :     0.021071

 17 C s       :     2.843476  s :     2.843476
      pz      :     0.957484  p :     2.863305
      px      :     0.948458
      py      :     0.957363
      dz2     :     0.022016  d :     0.202346
      dxz     :     0.034703
      dyz     :     0.024733
      dx2y2   :     0.059203
      dxy     :     0.061692

 18 O s       :     3.535094  s :     3.535094
      pz      :     1.730591  p :     4.746531
      px      :     1.644878
      py      :     1.371061
      dz2     :     0.005121  d :     0.044193
      dxz     :     0.007341
      dyz     :     0.007182
      dx2y2   :     0.009092
      dxy     :     0.015457

 19 N s       :     3.285156  s :     3.285156
      pz      :     1.253483  p :     3.720998
      px      :     1.040495
      py      :     1.427020
      dz2     :     0.012487  d :     0.117865
      dxz     :     0.027117
      dyz     :     0.011810
      dx2y2   :     0.017497
      dxy     :     0.048954

 20 H s       :     0.861460  s :     0.861460

 21 H s       :     0.860843  s :     0.860843

 22 H s       :     0.865429  s :     0.865429

 23 H s       :     0.850161  s :     0.850161

 24 H s       :     0.849518  s :     0.849518

 25 H s       :     0.855170  s :     0.855170

 26 H s       :     0.866786  s :     0.866786

 27 H s       :     0.863491  s :     0.863491

 28 H s       :     0.855593  s :     0.855593

 29 H s       :     0.664812  s :     0.664812

 30 H s       :     0.656089  s :     0.656089



                      *****************************
                      * MAYER POPULATION ANALYSIS *
                      *****************************

  NA   - Mulliken gross atomic population
  ZA   - Total nuclear charge
  QA   - Mulliken gross atomic charge
  VA   - Mayer's total valence
  BVA  - Mayer's bonded valence
  FA   - Mayer's free valence

  ATOM       NA         ZA         QA         VA         BVA        FA
  0 C      6.4460     6.0000    -0.4460     3.8142     3.8142     0.0000
  1 C      6.1433     6.0000    -0.1433     3.7816     3.7816    -0.0000
  2 N      7.0298     7.0000    -0.0298     3.4795     3.4795    -0.0000
  3 N      7.0671     7.0000    -0.0671     2.8498     2.8498     0.0000
  4 N      7.3267     7.0000    -0.3267     2.9071     2.9071     0.0000
  5 C      5.5912     6.0000     0.4088     3.8080     3.8080     0.0000
  6 C      6.2182     6.0000    -0.2182     3.7539     3.7539    -0.0000
  7 S     15.7128    16.0000     0.2872     2.5010     2.5010    -0.0000
  8 C      6.0665     6.0000    -0.0665     3.8285     3.8285    -0.0000
  9 C      5.9180     6.0000     0.0820     3.8295     3.8295     0.0000
 10 C      6.1461     6.0000    -0.1461     3.9458     3.9458     0.0000
 11 C      6.1397     6.0000    -0.1397     3.9303     3.9303    -0.0000
 12 C      6.1134     6.0000    -0.1134     3.9506     3.9506     0.0000
 13 C      6.1688     6.0000    -0.1688     3.9102     3.9102     0.0000
 14 C      5.6758     6.0000     0.3242     3.8403     3.8403     0.0000
 15 O      8.6721     8.0000    -0.6721     1.8183     1.8183    -0.0000
 16 N      7.4027     7.0000    -0.4027     2.9506     2.9506    -0.0000
 17 C      5.5184     6.0000     0.4816     3.8795     3.8795    -0.0000
 18 O      8.6353     8.0000    -0.6353     1.8571     1.8571    -0.0000
 19 N      7.3006     7.0000    -0.3006     2.8221     2.8221    -0.0000
 20 H      0.8267     1.0000     0.1733     0.9330     0.9330    -0.0000
 21 H      0.8252     1.0000     0.1748     0.9327     0.9327    -0.0000
 22 H      0.8434     1.0000     0.1566     0.9350     0.9350    -0.0000
 23 H      0.8120     1.0000     0.1880     0.9269     0.9269    -0.0000
 24 H      0.8114     1.0000     0.1886     0.9267     0.9267    -0.0000
 25 H      0.8493     1.0000     0.1507     0.9405     0.9405     0.0000
 26 H      0.8699     1.0000     0.1301     0.9377     0.9377    -0.0000
 27 H      0.8635     1.0000     0.1365     0.9356     0.9356     0.0000
 28 H      0.8548     1.0000     0.1452     0.9378     0.9378    -0.0000
 29 H      0.5757     1.0000     0.4243     0.8058     0.8058    -0.0000
 30 H      0.5757     1.0000     0.4243     0.7981     0.7981    -0.0000

  Mayer bond orders larger than 0.100000
B(  0-C ,  1-C ) :   1.0039 B(  0-C , 20-H ) :   0.9441 B(  0-C , 21-H ) :   0.9436 
B(  0-C , 22-H ) :   0.9425 B(  1-C ,  2-N ) :   0.8989 B(  1-C , 23-H ) :   0.9271 
B(  1-C , 24-H ) :   0.9265 B(  2-N ,  3-N ) :   1.2407 B(  2-N , 19-N ) :   1.2216 
B(  3-N ,  4-N ) :   1.4311 B(  3-N , 19-N ) :   0.1313 B(  4-N ,  5-C ) :   1.2854 
B(  5-C ,  6-C ) :   1.0410 B(  5-C , 19-N ) :   1.3861 B(  6-C ,  7-S ) :   1.0840 
B(  6-C ,  8-C ) :   0.1254 B(  6-C , 17-C ) :   1.4278 B(  7-S ,  8-C ) :   1.1500 
B(  8-C ,  9-C ) :   0.9670 B(  8-C , 16-N ) :   1.4608 B(  9-C , 10-C ) :   1.4064 
B(  9-C , 14-C ) :   1.3203 B( 10-C , 11-C ) :   1.4454 B( 10-C , 25-H ) :   0.9190 
B( 11-C , 12-C ) :   1.4340 B( 11-C , 26-H ) :   0.9295 B( 12-C , 13-C ) :   1.4564 
B( 12-C , 27-H ) :   0.9292 B( 13-C , 14-C ) :   1.3933 B( 13-C , 28-H ) :   0.9183 
B( 14-C , 15-O ) :   0.9384 B( 15-O , 29-H ) :   0.7334 B( 16-N , 17-C ) :   1.2929 
B( 17-C , 18-O ) :   0.9958 B( 18-O , 30-H ) :   0.7553 

-------
TIMINGS
-------

Total SCF time: 0 days 0 hours 3 min 11 sec 

Total time                  ....     191.301 sec
Sum of individual times     ....     190.849 sec  ( 99.8%)

SCF preparation             ....       0.246 sec  (  0.1%)
Fock matrix formation       ....     189.485 sec  ( 99.1%)
  Startup                   ....       0.073 sec  (  0.0% of F)
  Split-RI-J                ....      21.243 sec  ( 11.2% of F)
  Chain of spheres X        ....     147.030 sec  ( 77.6% of F)
  XC integration            ....      20.409 sec  ( 10.8% of F)
    XC Preparation          ....       0.000 sec  (  0.0% of XC)
    Basis function eval.    ....       8.152 sec  ( 39.9% of XC)
    Density eval.           ....       4.396 sec  ( 21.5% of XC)
    XC-Functional eval.     ....       1.186 sec  (  5.8% of XC)
    XC-Potential eval.      ....       5.578 sec  ( 27.3% of XC)
Diagonalization             ....       0.000 sec  (  0.0%)
Density matrix formation    ....       0.226 sec  (  0.1%)
Total Energy calculation    ....       0.053 sec  (  0.0%)
Population analysis         ....       0.044 sec  (  0.0%)
Orbital Transformation      ....       0.075 sec  (  0.0%)
Orbital Orthonormalization  ....       0.000 sec  (  0.0%)
DIIS solution               ....       0.426 sec  (  0.2%)
SOSCF solution              ....       0.294 sec  (  0.2%)
Finished LeanSCF after 191.4 sec

Maximum memory used throughout the entire LEANSCF-calculation: 42.7 MB

-------------------------   --------------------
FINAL SINGLE POINT ENERGY     -1285.638129393949
-------------------------   --------------------


------------------------------------------------------------------------------
                              ORCA PROPERTY CALCULATIONS
------------------------------------------------------------------------------

GBWName                                 ... /home/nmrbox/aojoawo/Documents/ERDOS/inputs/CHEMBL5290716.gbw
Number of atoms                         ...     31
Number of basis functions               ...    306
Max core memory                         ...   1024 MB

Electric properties:
Dipole moment                           ... YES
Quadrupole moment                       ...  NO
Static polarizability (Dipole/Dipole)   ...  NO
Static polarizability (Dipole/Quad.)    ...  NO
Static polarizability (Quad./Quad.)     ...  NO
Static polarizability (Velocity)        ...  NO

Atomic electric properties:
Dipole moment                           ...  NO
Quadrupole moment                       ...  NO
Static polarizability                   ...  NO

Choice of electric origin               ... Center of mass
Position of electric origin             ...    -0.452312     0.349661     0.316287

General magnetic properties:
Magnetizability                         ...  NO

EPR properties:
g-Tensor (aka g-matrix)                 ...  NO
Zero-Field splitting spin-orbit         ...  NO
Zero-field splitting spin-spin          ...  NO
Hyperfine couplings                     ...  NO (   0 nuclei)
Quadrupole couplings                    ...  NO (   0 nuclei)
Contact density                         ...  NO (   0 nuclei)

NMR properties:
Chemical shifts                         ...  NO (   0 nuclei)
Spin-rotation constants                 ...  NO (   0 nuclei)
Spin-spin couplings                     ...  NO (   0 nuclei,    0 pairs)

Choice of magnetic origin               ... GIAO
Position of magnetic origin             ...     0.000000     0.000000     0.000000

Properties with geometric perturbations:
SCF Hessian                             ...  NO
IR spectrum                             ...  NO
VCD spectrum                            ...  NO
X-ray spectroscopy properties:
SCF XES/XAS/RIXS spectra                ...  NO


-------------
DIPOLE MOMENT
-------------

Method             : SCF
Type of density    : Electron Density
Multiplicity       :   1
Irrep              :   0
Energy             : -1285.6381293939489296 Eh
Relativity type    : 
Basis              : AO
                                X                 Y                 Z
Electronic contribution:     -7.681133017       3.574528095      -0.474273062
Nuclear contribution   :      8.426680075      -4.613577980      -0.003190161
                        -----------------------------------------
Total Dipole Moment    :      0.745547058      -1.039049885      -0.477463222
                        -----------------------------------------
Magnitude (a.u.)       :      1.365077363
Magnitude (Debye)      :      3.469750912



--------------------
Rotational spectrum 
--------------------
 
Rotational constants in cm-1:             0.034235             0.004398             0.004086 
Rotational constants in MHz :          1026.339498           131.835832           122.494237 

Dipole components along the rotational axes: 
x,y,z [a.u.] :     0.666705    -1.139753     0.346270 
x,y,z [Debye]:     1.694629    -2.897023     0.880149 

 

Dipole moment calculation done in   0.0 sec 

Maximum memory used throughout the entire PROP-calculation: 20.4 MB

--------------------------------
SUGGESTED CITATIONS FOR THIS RUN
--------------------------------

Below you find a list of papers that are relevant to this ORCA run
We neither can nor want to force you to cite these papers, but we appreciate if you do
You receive ORCA, which is the product of decades of hard work by many enthusiastic individuals, for free
The only thing we kindly ask in return is that you cite our papers,
We deeply appreciate it, if you show your appreciation for ORCA by not just citing the generic ORCA reference.

Please note that relegating all ORCA citations to the supporting information does *not* help us.
SI sections are not indexed - citations you put there will not count into any citation statistics
But we need these citations in order to attract the funding resources that allow us to do what we are doing

Therefore, if you are a happy ORCA user, please consider citing a few of the papers listed below in the main body of your paper

In addition to the list printed below, the program has created the file /home/nmrbox/aojoawo/Documents/ERDOS/inputs/CHEMBL5290716.bibtex that contains the list in bibtex format
You can import this file easily into all common literature databanks and citation aid programs


List of essential papers. We consider these as the minimum necessary citations

  1. Neese,F.
     Software update: the ORCA program system, version 5.0
     WIRES Comput. Molec. Sci., 2022 12(1)e1606
     doi.org/10.1002/wcms.1606

List of papers to cite with high priority. The work reported in these papers was absolutely
necessary for this run to complete.
Our perspective: the developers of density functionals and basis sets usually get cited in chemistry papers
Good! But without the algorithms to do something with them, the functionals or basis sets would not do anything.
Hence, in our opinion, the algorithm design and method developments papers are equally worthy of getting cited

  1. Neese,F.
     An improvement of the resolution of the identity approximation for the formation of the Coulomb matrix
     J. Comp. Chem., 2003 24(14)1740-1747
     doi.org/10.1002/jcc.10318
  2. Neese,F.; Wennmohs,F.; Hansen,A.; Becker,U.
     Efficient, approximate and parallel Hartree-Fock and hybrid DFT calculations. A 'chain-of-spheres' algorithm for the Hartree-Fock exchange
     Chem. Phys., 2009 356(1-3)98-109
     doi.org/10.1016/j.chemphys.2008.10.036
  3. Helmich-Paris,B.; de Souza,B.; Neese,F.; Izsák,R.
     An improved chain of spheres for exchange algorithm
     J. Chem. Phys., 2021 155 104109
     doi.org/doi: 10.1063/5.0058766.
  4. Neese,F.
     The SHARK Integral Generation and Digestion System
     J. Comp. Chem., 2022  1-16
     doi.org/10.1002/jcc.26942

List of suggested additional citations. These are papers that are important in the 'surrounding' of 
of this run, or papers that preceded the highly important papers. If you like your results we are grateful for a citation.

  1. Izsak,R.; Neese,F.
     An overlap fitted chain of spheres exchange method
     J. Chem. Phys., 2011 135 144105
     doi.org/10.1063/1.3646921
  2. Izsak,R.; Hansen,A.; Neese,F.
     The resolution of identity and chain of spheres approximations for the LPNO-CCSD singles Fock term
     Molec. Phys., 2012 110 2413-2417
     doi.org/10.1080/00268976.2012.687466
  3. Neese,F.
     The ORCA program system
     WIRES Comput. Molec. Sci., 2012 2(1)73-78
     doi.org/10.1002/wcms.81
  4. Izsak,R.; Neese,F.; Klopper,W.
     Robust fitting techniques in the chain of spheres approximation to the Fock exchange: The role of the complementary space
     J. Chem. Phys., 2013 139 
     doi.org/10.1063/1.4819264
  5. Neese,F.
     Software update: the ORCA program system, version 4.0
     WIRES Comput. Molec. Sci., 2018 8(1)1-6
     doi.org/10.1002/wcms.1327
  6. Neese,F.; Wennmohs,F.; Becker,U.; Riplinger,C.
     The ORCA quantum chemistry program package
     J. Chem. Phys., 2020 152 Art. No. L224108
     doi.org/10.1063/5.0004608

List of optional additional citations

  1. Neese,F.
     Approximate second-order SCF convergence for spin unrestricted wavefunctions
     Chem. Phys. Lett., 2000 325(1-3)93-98
     doi.org/10.1016/s0009-2614(00)00662-x

Timings for individual modules:

Sum of individual times          ...      198.777 sec (=   3.313 min)
Startup calculation              ...        4.917 sec (=   0.082 min)   2.5 %
SCF iterations                   ...      193.704 sec (=   3.228 min)  97.4 %
Property calculations            ...        0.157 sec (=   0.003 min)   0.1 %
                             ****ORCA TERMINATED NORMALLY****
TOTAL RUN TIME: 0 days 0 hours 3 minutes 19 seconds 406 msec
