
                                 *****************
                                 * O   R   C   A *
                                 *****************

                                            #,                                       
                                            ###                                      
                                            ####                                     
                                            #####                                    
                                            ######                                   
                                           ########,                                 
                                     ,,################,,,,,                         
                               ,,#################################,,                 
                          ,,##########################################,,             
                       ,#########################################, ''#####,          
                    ,#############################################,,   '####,        
                  ,##################################################,,,,####,       
                ,###########''''           ''''###############################       
              ,#####''   ,,,,##########,,,,          '''####'''          '####       
            ,##' ,,,,###########################,,,                        '##       
           ' ,,###''''                  '''############,,,                           
         ,,##''                                '''############,,,,        ,,,,,,###''
      ,#''                                            '''#######################'''  
     '                                                          ''''####''''         
             ,#######,   #######,   ,#######,      ##                                
            ,#'     '#,  ##    ##  ,#'     '#,    #''#        ,####,   ,####,        
            ##       ##  ##   ,#'  ##            #'  '#       #'       #'  '#        
            ##       ##  #######   ##           ,######,      #####,   #    #        
            '#,     ,#'  ##    ##  '#,     ,#' ,#      #,     #,   #   #,  ,#        
             '#######'   ##     ##  '#######'  #'      '#     '####' # '####'        



                #########################################################
                #                        -***-                          #
                #          Department of theory and spectroscopy        #
                #                                                       #
                #                      Frank Neese                      #
                #                                                       #
                #     Directorship, Architecture, Infrastructure        #
                #                    SHARK, DRIVERS                     #
                #        Core code/Algorithms in most modules           #
                #                                                       #
                #        Max Planck Institute fuer Kohlenforschung      #
                #                Kaiser Wilhelm Platz 1                 #
                #                 D-45470 Muelheim/Ruhr                 #
                #                      Germany                          #
                #                                                       #
                #                  All rights reserved                  #
                #                        -***-                          #
                #########################################################


                         Program Version 6.0.0  -   RELEASE  -


 With contributions from (in alphabetic order):
   Daniel Aravena         : Magnetic Suceptibility
   Michael Atanasov       : Ab Initio Ligand Field Theory (pilot matlab implementation)
   Alexander A. Auer      : GIAO ZORA, VPT2 properties, NMR spectrum
   Ute Becker             : All parallelization in ORCA, NUMFREQ, NUMCALC
   Giovanni Bistoni       : ED, misc. LED, open-shell LED, HFLD
   Martin Brehm           : Molecular dynamics
   Dmytro Bykov           : pre 5.0 version of the SCF Hessian
   Marcos Casanova-Páez   : Triplet and SCS-CIS(D). UHF-(DLPNO)-IP/EA/STEOM-CCSD. UHF-CVS-IP/STEOM-CCSD
   Vijay G. Chilkuri      : MRCI spin determinant printing, contributions to CSF-ICE
   Pauline Colinet        : FMM embedding
   Dipayan Datta          : RHF DLPNO-CCSD density
   Achintya Kumar Dutta   : EOM-CC, STEOM-CC
   Nicolas Foglia         : Exact transition moments, OPA infrastructure, MCD improvements
   Dmitry Ganyushin       : Spin-Orbit,Spin-Spin,Magnetic field MRCI
   Miquel Garcia          : C-PCM and meta-GGA Hessian, CCSD/C-PCM, Gaussian charge scheme
   Tiago L. C. Gouveia    : GS-ROHF, GS-ROCIS
   Yang Guo               : DLPNO-NEVPT2, F12-NEVPT2, CIM, IAO-localization
   Andreas Hansen         : Spin unrestricted coupled pair/coupled cluster methods
   Ingolf Harden          : AUTO-CI MPn and infrastructure 
   Benjamin Helmich-Paris : MC-RPA, TRAH-(SCF,CASSCF), AVAS, COSX integrals, SCF dyn. polar.
   Lee Huntington         : MR-EOM, pCC
   Robert Izsak           : Overlap fitted RIJCOSX, COSX-SCS-MP3, EOM
   Riya Kayal             : Wick's Theorem for AUTO-CI, AUTO-CI UHF-CCSDT
   Emily Kempfer          : AUTO-CI, RHF CISDT and CCSDT
   Christian Kollmar      : KDIIS, OOCD, Brueckner-CCSD(T), CCSD density, CASPT2, CASPT2-K, improved NEVPT2
   Axel Koslowski         : Symmetry handling
   Simone Kossmann        : Meta GGA functionals, TD-DFT gradient, OOMP2, (MP2 Hessian; deprecated post 5.0)
   Lucas Lang             : DCDCAS
   Marvin Lechner         : AUTO-CI (C++ implementation), FIC-MRCC
   Spencer Leger          : CASSCF response
   Dagmar Lenk            : GEPOL surface, SMD, ORCA-2-JSON
   Dimitrios Liakos       : Extrapolation schemes; Compound Job, initial MDCI parallelization
   Dimitrios Manganas     : Further ROCIS development; embedding schemes. LFT, Crystal Embedding
   Dimitrios Pantazis     : SARC Basis sets
   Anastasios Papadopoulos: AUTO-CI, single reference methods and gradients
   Taras Petrenko         : pre 6.0 DFT Hessian and TD-DFT gradient, (ASA, deprecated), ECA, 1-Electron XAS/XES, NRVS
   Peter Pinski           : DLPNO-MP2, DLPNO-MP2 Gradient
   Christoph Reimann      : Effective Core Potentials
   Marius Retegan         : Local ZFS, SOC
   Christoph Riplinger    : Optimizer, TS searches, QM/MM, DLPNO-CCSD(T), (RO)-DLPNO pert. Triples
   Michael Roemelt        : Original ROCIS implementation
   Masaaki Saitow         : Open-shell DLPNO-CCSD energy and density
   Barbara Sandhoefer     : DKH picture change effects
   Kantharuban Sivalingam : CASSCF convergence/infrastructure, NEVPT2 and variants, FIC-MRCI
   Bernardo de Souza      : ESD, SOC TD-DFT
   Georgi Stoychev        : AutoAux, RI-MP2 NMR, DLPNO-MP2 response, X2C
   Van Anh Tran           : RI-MP2 g-tensors
   Willem Van den Heuvel  : Paramagnetic NMR
   Zikuan Wang            : NOTCH, Electric field optimization 
   Frank Wennmohs         : Technical directorship and infrastructure
   Hang Xu                : AUTO-CI-Response properties 


 We gratefully acknowledge several colleagues who have allowed us to
 interface, adapt or use parts of their codes:
   Stefan Grimme, W. Hujo, H. Kruse, P. Pracht,  : VdW corrections, initial TS optimization,
                  C. Bannwarth, S. Ehlert,         DFT functionals, gCP, sTDA/sTD-DF
                  L. Wittmann, M. Mueller
   Ed Valeev, F. Pavosevic, A. Kumar             : LibInt (2-el integral package), F12 methods
   Garnet Chan, S. Sharma, J. Yang, R. Olivares  : DMRG
   Ulf Ekstrom                                   : XCFun DFT Library
   Mihaly Kallay                                 : mrcc  (arbitrary order and MRCC methods)
   Frank Weinhold                                : gennbo (NPA and NBO analysis)
   Simon Mueller                                 : openCOSMO-RS
   Christopher J. Cramer and Donald G. Truhlar   : smd solvation model
   Lars Goerigk                                  : TD-DFT with DH, B97 family of functionals
   V. Asgeirsson, H. Jonsson                     : NEB implementation
   FAccTs GmbH                                   : IRC, NEB, NEB-TS, DLPNO-Multilevel, CI-OPT
                                                   MM, QMMM, 2- and 3-layer-ONIOM, Crystal-QMMM,
                                                   LR-CPCM, SF, NACMEs, symmetry and pop. for TD-DFT,
                                                   nearIR, NL-DFT gradient (VV10), updates on ESD,
                                                   ML-optimized integration grids, MBIS, APM,
                                                   GOAT, DOCKER, SOLVATOR, interface openCOSMO-RS
   S Lehtola, MJT Oliveira, MAL Marques          : LibXC Library
   Liviu Ungur et al                             : ANISO software


 Your calculation uses the libint2 library for the computation of 2-el integrals
 For citations please refer to: http://libint.valeyev.net

 Your ORCA version has been built with support for libXC version: 6.2.2
 For citations please refer to: https://libxc.gitlab.io

 This ORCA versions uses:
   CBLAS   interface :  Fast vector & matrix operations
   LAPACKE interface :  Fast linear algebra routines
   SCALAPACK package :  Parallel linear algebra routines
   Shared memory     :  Shared parallel matrices
   BLAS/LAPACK       :  OpenBLAS 0.3.27  USE64BITINT DYNAMIC_ARCH NO_AFFINITY SkylakeX SINGLE_THREADED
        Core in use  :  SkylakeX
   Copyright (c) 2011-2014, The OpenBLAS Project


Warning: RI is on but no J-basis has been assigned. Assigning Def2/J (nothing to worry about!)
================================================================================

----- Orbital basis set information -----
Your calculation utilizes the basis: 6-31G*
   H-He, Li-Ne : W. J. Hehre, R. Ditchfield and J.A. Pople, J. Chem. Phys. 56, 2257 (1972).
                 Note: He and Ne are unpublished basis sets taken from the Gaussian program.
                 Note: Li and B from J. D. Dill and J. A. Pople, J. Chem. Phys. 62, 2921 (1975).
   Na - Ar     : M. M. Francl, W. J. Pietro, W. J. Hehre, J. S. Binkley, M. S. Gordon, 
                 D. J. DeFrees and J. A. Pople, J. Chem. Phys. 77, 3654 (1982).
   K - Zn      : V. A. Rassolov, J. A. Pople, M. A. Ratner, and T. L. Windus, J. Chem. Phys. 109, 1223 (1998).

----- AuxJ basis set information -----
Your calculation utilizes the auxiliary basis: def2/J
   F. Weigend, Phys. Chem. Chem. Phys. 8, 1057 (2006).

================================================================================
                                        WARNINGS
                       Please study these warnings very carefully!
================================================================================


================================================================================
                                       INPUT FILE
================================================================================
NAME = /home/nmrbox/aojoawo/Documents/ERDOS/inputs/CHEMBL3687399.inp
|  1> ! B3LYP 6-31G* SP
|  2> 
|  3> * xyz 0 1
|  4> C -3.0054 -3.4331 -1.6005
|  5> C -3.5398 -3.2984 -0.1782
|  6> O -4.2002 -2.0443 0.0001
|  7> C -3.5231 -0.8233 0.1566
|  8> N -2.1674 -0.7887 0.1180
|  9> C -1.4486 0.3495 0.2888
| 10> N -0.0200 0.2749 0.2023
| 11> C 0.7464 -0.2945 1.3146
| 12> C 1.4828 -1.5505 0.9124
| 13> C 0.8624 -2.5372 0.1262
| 14> C 1.5528 -3.7000 -0.2278
| 15> C 2.8672 -3.9133 0.2323
| 16> O 3.6141 -5.0552 -0.0996
| 17> C 3.2258 -6.0486 -1.0440
| 18> F 4.2484 -6.9694 -1.1664
| 19> F 2.9983 -5.4661 -2.2782
| 20> F 2.0853 -6.7036 -0.6127
| 21> C 3.4649 -2.9519 1.0547
| 22> C 2.7814 -1.7816 1.3939
| 23> S 0.7754 0.8230 -1.2469
| 24> O 1.4027 -0.3421 -1.9594
| 25> O -0.2362 1.4452 -2.1705
| 26> C 2.0150 2.0145 -0.8566
| 27> C 1.7568 3.3838 -0.9991
| 28> C 2.7454 4.3240 -0.6898
| 29> C 4.0067 3.9064 -0.2292
| 30> C 5.0449 4.9019 0.1164
| 31> O 6.1833 4.5272 0.5113
| 32> O 4.7745 6.2656 0.0162
| 33> C 4.2601 2.5300 -0.0907
| 34> C 3.2725 1.5933 -0.4058
| 35> C -2.1098 1.5679 0.5572
| 36> C -1.3168 2.8231 0.8487
| 37> C -3.5300 1.5796 0.5611
| 38> C -4.2668 2.7681 0.7661
| 39> C -5.6631 2.7459 0.7841
| 40> C -6.3499 1.5462 0.6079
| 41> C -5.6472 0.3623 0.3951
| 42> C -4.2402 0.3655 0.3652
| 43> H -2.5542 -4.4410 -1.7353
| 44> H -3.8323 -3.2978 -2.3294
| 45> H -2.2251 -2.6672 -1.7994
| 46> H -4.2726 -4.1113 0.0022
| 47> H -2.7128 -3.4120 0.5584
| 48> H 1.4607 0.4739 1.6819
| 49> H 0.0709 -0.5422 2.1635
| 50> H -0.1495 -2.4040 -0.2319
| 51> H 1.0515 -4.4249 -0.8540
| 52> H 4.4688 -3.1093 1.4271
| 53> H 3.2692 -1.0537 2.0307
| 54> H 0.7904 3.7268 -1.3471
| 55> H 2.5196 5.3765 -0.8120
| 56> H 5.4795 6.9551 0.2629
| 57> H 5.2206 2.1765 0.2636
| 58> H 3.4887 0.5387 -0.2987
| 59> H -1.6723 3.2853 1.7922
| 60> H -1.4342 3.5446 0.0153
| 61> H -0.2378 2.6225 0.9933
| 62> H -3.7786 3.7236 0.9056
| 63> H -6.2131 3.6622 0.9441
| 64> H -7.4317 1.5352 0.6326
| 65> H -6.2077 -0.5532 0.2603
| 66> *
| 67> 
| 68>                          ****END OF INPUT****
================================================================================

                       ****************************
                       * Single Point Calculation *
                       ****************************

---------------------------------
CARTESIAN COORDINATES (ANGSTROEM)
---------------------------------
  C     -3.005400   -3.433100   -1.600500
  C     -3.539800   -3.298400   -0.178200
  O     -4.200200   -2.044300    0.000100
  C     -3.523100   -0.823300    0.156600
  N     -2.167400   -0.788700    0.118000
  C     -1.448600    0.349500    0.288800
  N     -0.020000    0.274900    0.202300
  C      0.746400   -0.294500    1.314600
  C      1.482800   -1.550500    0.912400
  C      0.862400   -2.537200    0.126200
  C      1.552800   -3.700000   -0.227800
  C      2.867200   -3.913300    0.232300
  O      3.614100   -5.055200   -0.099600
  C      3.225800   -6.048600   -1.044000
  F      4.248400   -6.969400   -1.166400
  F      2.998300   -5.466100   -2.278200
  F      2.085300   -6.703600   -0.612700
  C      3.464900   -2.951900    1.054700
  C      2.781400   -1.781600    1.393900
  S      0.775400    0.823000   -1.246900
  O      1.402700   -0.342100   -1.959400
  O     -0.236200    1.445200   -2.170500
  C      2.015000    2.014500   -0.856600
  C      1.756800    3.383800   -0.999100
  C      2.745400    4.324000   -0.689800
  C      4.006700    3.906400   -0.229200
  C      5.044900    4.901900    0.116400
  O      6.183300    4.527200    0.511300
  O      4.774500    6.265600    0.016200
  C      4.260100    2.530000   -0.090700
  C      3.272500    1.593300   -0.405800
  C     -2.109800    1.567900    0.557200
  C     -1.316800    2.823100    0.848700
  C     -3.530000    1.579600    0.561100
  C     -4.266800    2.768100    0.766100
  C     -5.663100    2.745900    0.784100
  C     -6.349900    1.546200    0.607900
  C     -5.647200    0.362300    0.395100
  C     -4.240200    0.365500    0.365200
  H     -2.554200   -4.441000   -1.735300
  H     -3.832300   -3.297800   -2.329400
  H     -2.225100   -2.667200   -1.799400
  H     -4.272600   -4.111300    0.002200
  H     -2.712800   -3.412000    0.558400
  H      1.460700    0.473900    1.681900
  H      0.070900   -0.542200    2.163500
  H     -0.149500   -2.404000   -0.231900
  H      1.051500   -4.424900   -0.854000
  H      4.468800   -3.109300    1.427100
  H      3.269200   -1.053700    2.030700
  H      0.790400    3.726800   -1.347100
  H      2.519600    5.376500   -0.812000
  H      5.479500    6.955100    0.262900
  H      5.220600    2.176500    0.263600
  H      3.488700    0.538700   -0.298700
  H     -1.672300    3.285300    1.792200
  H     -1.434200    3.544600    0.015300
  H     -0.237800    2.622500    0.993300
  H     -3.778600    3.723600    0.905600
  H     -6.213100    3.662200    0.944100
  H     -7.431700    1.535200    0.632600
  H     -6.207700   -0.553200    0.260300

----------------------------
CARTESIAN COORDINATES (A.U.)
----------------------------
  NO LB      ZA    FRAG     MASS         X           Y           Z
   0 C     6.0000    0    12.011   -5.679383   -6.487619   -3.024507
   1 C     6.0000    0    12.011   -6.689253   -6.233073   -0.336749
   2 O     8.0000    0    15.999   -7.937228   -3.863167    0.000189
   3 C     6.0000    0    12.011   -6.657694   -1.555812    0.295931
   4 N     7.0000    0    14.007   -4.095792   -1.490427    0.222988
   5 C     6.0000    0    12.011   -2.737457    0.660459    0.545753
   6 N     7.0000    0    14.007   -0.037795    0.519486    0.382292
   7 C     6.0000    0    12.011    1.410492   -0.556524    2.484234
   8 C     6.0000    0    12.011    2.802086   -2.930020    1.724186
   9 C     6.0000    0    12.011    1.629700   -4.794613    0.238483
  10 C     6.0000    0    12.011    2.934367   -6.991987   -0.430480
  11 C     6.0000    0    12.011    5.418223   -7.395065    0.438983
  12 O     8.0000    0    15.999    6.829659   -9.552944   -0.188217
  13 C     6.0000    0    12.011    6.095879  -11.430197   -1.972874
  14 F     9.0000    0    18.998    8.028313  -13.170257   -2.204177
  15 F     9.0000    0    18.998    5.665966  -10.329432   -4.305174
  16 F     9.0000    0    18.998    3.940646  -12.667968   -1.157835
  17 C     6.0000    0    12.011    6.547712   -5.578283    1.993094
  18 C     6.0000    0    12.011    5.256084   -3.366736    2.634089
  19 S    16.0000    0    32.060    1.465294    1.555245   -2.356300
  20 O     8.0000    0    15.999    2.650719   -0.646475   -3.702729
  21 O     8.0000    0    15.999   -0.446353    2.731032   -4.101651
  22 C     6.0000    0    12.011    3.807798    3.806853   -1.618739
  23 C     6.0000    0    12.011    3.319871    6.394455   -1.888025
  24 C     6.0000    0    12.011    5.188054    8.171176   -1.303533
  25 C     6.0000    0    12.011    7.571566    7.382026   -0.433125
  26 C     6.0000    0    12.011    9.533479    9.263249    0.219964
  27 O     8.0000    0    15.999   11.684744    8.555168    0.966217
  28 O     8.0000    0    15.999    9.022497   11.840268    0.030614
  29 C     6.0000    0    12.011    8.050422    4.781007   -0.171398
  30 C     6.0000    0    12.011    6.184129    3.010901   -0.766851
  31 C     6.0000    0    12.011   -3.986944    2.962902    1.052955
  32 C     6.0000    0    12.011   -2.488391    5.334886    1.603811
  33 C     6.0000    0    12.011   -6.670733    2.985011    1.060325
  34 C     6.0000    0    12.011   -8.063083    5.230951    1.447719
  35 C     6.0000    0    12.011  -10.701708    5.188999    1.481734
  36 C     6.0000    0    12.011  -11.999572    2.921895    1.148765
  37 C     6.0000    0    12.011  -10.671661    0.684648    0.746631
  38 C     6.0000    0    12.011   -8.012817    0.690695    0.690128
  39 H     1.0000    0     1.008   -4.826738   -8.392274   -3.279242
  40 H     1.0000    0     1.008   -7.241997   -6.231939   -4.401928
  41 H     1.0000    0     1.008   -4.204830   -5.040278   -3.400373
  42 H     1.0000    0     1.008   -8.074044   -7.769231    0.004157
  43 H     1.0000    0     1.008   -5.126449   -6.447746    1.055223
  44 H     1.0000    0     1.008    2.760323    0.895541    3.178330
  45 H     1.0000    0     1.008    0.133982   -1.024610    4.088422
  46 H     1.0000    0     1.008   -0.282514   -4.542902   -0.438227
  47 H     1.0000    0     1.008    1.987047   -8.361849   -1.613826
  48 H     1.0000    0     1.008    8.444808   -5.875725    2.696828
  49 H     1.0000    0     1.008    6.177893   -1.991204    3.837467
  50 H     1.0000    0     1.008    1.493640    7.042631   -2.545650
  51 H     1.0000    0     1.008    4.761354   10.160113   -1.534458
  52 H     1.0000    0     1.008   10.354754   13.143234    0.496809
  53 H     1.0000    0     1.008    9.865504    4.112989    0.498132
  54 H     1.0000    0     1.008    6.592688    1.017995   -0.564461
  55 H     1.0000    0     1.008   -3.160189    6.208317    3.386767
  56 H     1.0000    0     1.008   -2.710245    6.698323    0.028913
  57 H     1.0000    0     1.008   -0.449377    4.955807    1.877065
  58 H     1.0000    0     1.008   -7.140519    7.036584    1.711336
  59 H     1.0000    0     1.008  -11.741057    6.920555    1.784090
  60 H     1.0000    0     1.008  -14.043878    2.901108    1.195441
  61 H     1.0000    0     1.008  -11.730853   -1.045396    0.491896

--------------------------------
INTERNAL COORDINATES (ANGSTROEM)
--------------------------------
 C      0   0   0     0.000000000000     0.00000000     0.00000000
 C      1   0   0     1.525340860267     0.00000000     0.00000000
 O      2   1   0     1.428525764556   110.84689802     0.00000000
 C      3   2   1     1.404919093756   123.64685926   283.78786125
 N      4   3   2     1.356690683244   120.03922523     1.24377593
 C      5   4   3     1.356961797546   123.17078781   181.38375430
 N      6   5   4     1.433159227023   118.47462251   181.20343698
 C      7   6   5     1.465877419841   119.70832215   284.38183480
 C      8   7   6     1.510491906632   112.07604075   116.49449206
 C      9   8   7     1.405910199835   121.15433267   316.66973728
 C     10   9   8     1.397881253898   120.49534881   180.58984001
 C     11  10   9     1.408842170011   120.26623874     1.82049386
 O     12  11  10     1.404262379329   122.83027483   180.58050540
 C     13  12  11     1.424609353472   125.36212862     7.75941489
 F     14  13  12     1.381508291687   108.76886510   176.17026391
 F     14  13  12     1.383586694067   110.03450744    57.00355346
 F     14  13  12     1.384118831604   110.36556381   295.44759592
 C     12  11  10     1.399241583859   119.10726616     0.50154664
 C     18  12  11     1.397079446560   120.61553194   358.64140885
 S      7   6   5     1.741624359614   119.28065856   102.65503066
 O     20   7   6     1.502870436864   109.94648570   247.16474441
 O     20   7   6     1.504494719167   109.50510309     5.76300683
 C     20   7   6     1.763126342608   110.46082362   126.08534054
 C     23  20   7     1.400698390090   120.56511744   260.70092461
 C     24  23  20     1.398918328567   120.28242650   180.10509818
 C     25  24  23     1.406207598472   120.44401096   359.81379754
 C     26  25  24     1.479296741699   120.40937735   180.89387910
 O     27  26  25     1.261863962557   120.42675753   181.02955138
 O     27  26  25     1.393855763700   120.36136762     1.36570780
 C     26  25  24     1.406367935499   118.98044834     0.29728876
 C     30  26  25     1.397157349764   120.43584903   359.97257922
 C      6   5   4     1.411992407912   119.97739126     1.78151518
 C     32   6   5     1.513059248675   120.46649696   175.54884090
 C     32   6   5     1.420253547786   118.41713671   356.25139005
 C     34  32   6     1.413305165207   121.91343570   182.65506530
 C     35  34  32     1.396592470981   120.64545139   180.93770024
 C     36  35  34     1.393564053067   120.31732964     0.40355178
 C     37  36  35     1.393086623294   120.15443383   359.16779024
 C      4   3   2     1.403920157986   120.41765663   181.80122331
 H      1   2   3     1.112481411081   109.57775124   183.62765308
 H      1   2   3     1.110569633116   109.89971876   303.92100844
 H      1   2   3     1.111319985423   110.61081789    64.00590010
 H      2   1   3     1.109209813336   108.56566648   119.10938054
 H      2   1   3     1.113289504127   110.34562547   237.24045272
 H      8   7   6     1.111563016657   108.55337850   238.76783304
 H      8   7   6     1.112783334706   110.36165057   355.70236143
 H     10   9   8     1.081628152370   120.76681190     1.76241240
 H     11  10   9     1.081160552370   118.38551714   181.51054303
 H     18  12  11     1.082253080384   119.90400403   179.12213543
 H     19  18  12     1.083190421856   119.03414944   180.11718682
 H     24  23  20     1.082904409447   120.45348801     0.25506085
 H     25  24  23     1.083362695500   118.73199401   179.82233345
 H     29  27  26     1.016511751039   120.77275715   179.24811199
 H     30  26  25     1.083074785045   120.75946236   180.13247668
 H     31  30  26     1.081847498495   119.33784253   179.61075985
 H     33  32   6     1.109144418009   109.97433581   232.05068772
 H     33  32   6     1.108557878507   109.85166142   111.42344183
 H     33  32   6     1.106973585954   112.68681242   350.16121989
 H     35  34  32     1.082025757549   121.74118864     1.46509259
 H     36  35  34     1.080604317037   119.82135265   179.86548783
 H     37  36  35     1.082137851662   119.90399390   179.40926111
 H     38  37  36     1.081883330124   118.47963965   180.08123821

---------------------------
INTERNAL COORDINATES (A.U.)
---------------------------
 C      0   0   0     0.000000000000     0.00000000     0.00000000
 C      1   0   0     2.882476486784     0.00000000     0.00000000
 O      2   1   0     2.699522470261   110.84689802     0.00000000
 C      3   2   1     2.654912327516   123.64685926   283.78786125
 N      4   3   2     2.563773839773   120.03922523     1.24377593
 C      5   4   3     2.564286171556   123.17078781   181.38375430
 N      6   5   4     2.708278445375   118.47462251   181.20343698
 C      7   6   5     2.770106869399   119.70832215   284.38183480
 C      8   7   6     2.854416031039   112.07604075   116.49449206
 C      9   8   7     2.656785246575   121.15433267   316.66973728
 C     10   9   8     2.641612737610   120.49534881   180.58984001
 C     11  10   9     2.662325867239   120.26623874     1.82049386
 O     12  11  10     2.653671317101   122.83027483   180.58050540
 C     13  12  11     2.692121525885   125.36212862     7.75941489
 F     14  13  12     2.610672323030   108.76886510   176.17026391
 F     14  13  12     2.614599934325   110.03450744    57.00355346
 F     14  13  12     2.615605528534   110.36556381   295.44759592
 C     12  11  10     2.644183388688   119.10726616     0.50154664
 C     18  12  11     2.640097541328   120.61553194   358.64140885
 S      7   6   5     3.291193067836   119.28065856   102.65503066
 O     20   7   6     2.840013540440   109.94648570   247.16474441
 O     20   7   6     2.843082989156   109.50510309     5.76300683
 C     20   7   6     3.331825927032   110.46082362   126.08534054
 C     23  20   7     2.646936353494   120.56511744   260.70092461
 C     24  23  20     2.643572524714   120.28242650   180.10509818
 C     25  24  23     2.657347248551   120.44401096   359.81379754
 C     26  25  24     2.795465712612   120.40937735   180.89387910
 O     27  26  25     2.384577307497   120.42675753   181.02955138
 O     27  26  25     2.634005663581   120.36136762     1.36570780
 C     26  25  24     2.657650241622   118.98044834     0.29728876
 C     30  26  25     2.640244757049   120.43584903   359.97257922
 C      6   5   4     2.668278954129   119.97739126     1.78151518
 C     32   6   5     2.859267604392   120.46649696   175.54884090
 C     32   6   5     2.683890246046   118.41713671   356.25139005
 C     34  32   6     2.670759705897   121.91343570   182.65506530
 C     35  34  32     2.639177290850   120.64545139   180.93770024
 C     36  35  34     2.633454410374   120.31732964     0.40355178
 C     37  36  35     2.632552198854   120.15443383   359.16779024
 C      4   3   2     2.653024612485   120.41765663   181.80122331
 H      1   2   3     2.102285196021   109.57775124   183.62765308
 H      1   2   3     2.098672459239   109.89971876   303.92100844
 H      1   2   3     2.100090419602   110.61081789    64.00590010
 H      2   1   3     2.096102772262   108.56566648   119.10938054
 H      2   1   3     2.103812270570   110.34562547   237.24045272
 H      8   7   6     2.100549682077   108.55337850   238.76783304
 H      8   7   6     2.102855748986   110.36165057   355.70236143
 H     10   9   8     2.043980986719   120.76681190     1.76241240
 H     11  10   9     2.043097350777   118.38551714   181.51054303
 H     18  12  11     2.045161929518   119.90400403   179.12213543
 H     19  18  12     2.046933248194   119.03414944   180.11718682
 H     24  23  20     2.046392763071   120.45348801     0.25506085
 H     25  24  23     2.047258798201   118.73199401   179.82233345
 H     29  27  26     1.920928821376   120.77275715   179.24811199
 H     30  26  25     2.046714726290   120.75946236   180.13247668
 H     31  30  26     2.044395490823   119.33784253   179.61075985
 H     33  32   6     2.095979193004   109.97433581   232.05068772
 H     33  32   6     2.094870793979   109.85166142   111.42344183
 H     33  32   6     2.091876914938   112.68681242   350.16121989
 H     35  34  32     2.044732351617   121.74118864     1.46509259
 H     36  35  34     2.042046218334   119.82135265   179.86548783
 H     37  36  35     2.044944178791   119.90399390   179.40926111
 H     38  37  36     2.044463202789   118.47963965   180.08123821

---------------------
BASIS SET INFORMATION
---------------------
There are 6 groups of distinct atoms

 Group   1 Type C   : 10s4p1d contracted to 3s2p1d pattern {631/31/1}
 Group   2 Type O   : 10s4p1d contracted to 3s2p1d pattern {631/31/1}
 Group   3 Type N   : 10s4p1d contracted to 3s2p1d pattern {631/31/1}
 Group   4 Type F   : 10s4p1d contracted to 3s2p1d pattern {631/31/1}
 Group   5 Type S   : 16s10p1d contracted to 4s3p1d pattern {6631/631/1}
 Group   6 Type H   : 4s contracted to 2s pattern {31}

Atom   0C    basis set group =>   1
Atom   1C    basis set group =>   1
Atom   2O    basis set group =>   2
Atom   3C    basis set group =>   1
Atom   4N    basis set group =>   3
Atom   5C    basis set group =>   1
Atom   6N    basis set group =>   3
Atom   7C    basis set group =>   1
Atom   8C    basis set group =>   1
Atom   9C    basis set group =>   1
Atom  10C    basis set group =>   1
Atom  11C    basis set group =>   1
Atom  12O    basis set group =>   2
Atom  13C    basis set group =>   1
Atom  14F    basis set group =>   4
Atom  15F    basis set group =>   4
Atom  16F    basis set group =>   4
Atom  17C    basis set group =>   1
Atom  18C    basis set group =>   1
Atom  19S    basis set group =>   5
Atom  20O    basis set group =>   2
Atom  21O    basis set group =>   2
Atom  22C    basis set group =>   1
Atom  23C    basis set group =>   1
Atom  24C    basis set group =>   1
Atom  25C    basis set group =>   1
Atom  26C    basis set group =>   1
Atom  27O    basis set group =>   2
Atom  28O    basis set group =>   2
Atom  29C    basis set group =>   1
Atom  30C    basis set group =>   1
Atom  31C    basis set group =>   1
Atom  32C    basis set group =>   1
Atom  33C    basis set group =>   1
Atom  34C    basis set group =>   1
Atom  35C    basis set group =>   1
Atom  36C    basis set group =>   1
Atom  37C    basis set group =>   1
Atom  38C    basis set group =>   1
Atom  39H    basis set group =>   6
Atom  40H    basis set group =>   6
Atom  41H    basis set group =>   6
Atom  42H    basis set group =>   6
Atom  43H    basis set group =>   6
Atom  44H    basis set group =>   6
Atom  45H    basis set group =>   6
Atom  46H    basis set group =>   6
Atom  47H    basis set group =>   6
Atom  48H    basis set group =>   6
Atom  49H    basis set group =>   6
Atom  50H    basis set group =>   6
Atom  51H    basis set group =>   6
Atom  52H    basis set group =>   6
Atom  53H    basis set group =>   6
Atom  54H    basis set group =>   6
Atom  55H    basis set group =>   6
Atom  56H    basis set group =>   6
Atom  57H    basis set group =>   6
Atom  58H    basis set group =>   6
Atom  59H    basis set group =>   6
Atom  60H    basis set group =>   6
Atom  61H    basis set group =>   6
---------------------------------
AUXILIARY/J BASIS SET INFORMATION
---------------------------------
There are 6 groups of distinct atoms

 Group   1 Type C   : 12s5p4d2f1g contracted to 6s4p3d1f1g pattern {711111/2111/211/2/1}
 Group   2 Type O   : 12s5p4d2f1g contracted to 6s4p3d1f1g pattern {711111/2111/211/2/1}
 Group   3 Type N   : 12s5p4d2f1g contracted to 6s4p3d1f1g pattern {711111/2111/211/2/1}
 Group   4 Type F   : 12s5p4d2f1g contracted to 6s4p3d1f1g pattern {711111/2111/211/2/1}
 Group   5 Type S   : 14s5p5d2f1g contracted to 8s4p3d1f1g pattern {71111111/2111/311/2/1}
 Group   6 Type H   : 5s2p1d contracted to 3s1p1d pattern {311/2/1}

Atom   0C    basis set group =>   1
Atom   1C    basis set group =>   1
Atom   2O    basis set group =>   2
Atom   3C    basis set group =>   1
Atom   4N    basis set group =>   3
Atom   5C    basis set group =>   1
Atom   6N    basis set group =>   3
Atom   7C    basis set group =>   1
Atom   8C    basis set group =>   1
Atom   9C    basis set group =>   1
Atom  10C    basis set group =>   1
Atom  11C    basis set group =>   1
Atom  12O    basis set group =>   2
Atom  13C    basis set group =>   1
Atom  14F    basis set group =>   4
Atom  15F    basis set group =>   4
Atom  16F    basis set group =>   4
Atom  17C    basis set group =>   1
Atom  18C    basis set group =>   1
Atom  19S    basis set group =>   5
Atom  20O    basis set group =>   2
Atom  21O    basis set group =>   2
Atom  22C    basis set group =>   1
Atom  23C    basis set group =>   1
Atom  24C    basis set group =>   1
Atom  25C    basis set group =>   1
Atom  26C    basis set group =>   1
Atom  27O    basis set group =>   2
Atom  28O    basis set group =>   2
Atom  29C    basis set group =>   1
Atom  30C    basis set group =>   1
Atom  31C    basis set group =>   1
Atom  32C    basis set group =>   1
Atom  33C    basis set group =>   1
Atom  34C    basis set group =>   1
Atom  35C    basis set group =>   1
Atom  36C    basis set group =>   1
Atom  37C    basis set group =>   1
Atom  38C    basis set group =>   1
Atom  39H    basis set group =>   6
Atom  40H    basis set group =>   6
Atom  41H    basis set group =>   6
Atom  42H    basis set group =>   6
Atom  43H    basis set group =>   6
Atom  44H    basis set group =>   6
Atom  45H    basis set group =>   6
Atom  46H    basis set group =>   6
Atom  47H    basis set group =>   6
Atom  48H    basis set group =>   6
Atom  49H    basis set group =>   6
Atom  50H    basis set group =>   6
Atom  51H    basis set group =>   6
Atom  52H    basis set group =>   6
Atom  53H    basis set group =>   6
Atom  54H    basis set group =>   6
Atom  55H    basis set group =>   6
Atom  56H    basis set group =>   6
Atom  57H    basis set group =>   6
Atom  58H    basis set group =>   6
Atom  59H    basis set group =>   6
Atom  60H    basis set group =>   6
Atom  61H    basis set group =>   6
------------------------------------------------------------------------------
                             ORCA STARTUP CALCULATIONS
                           -- RI-GTO INTEGRALS CHOSEN --
------------------------------------------------------------------------------
------------------------------------------------------------------------------
                   ___                                                        
                  /   \      - P O W E R E D   B Y -                         
                 /     \                                                     
                 |  |  |   _    _      __       _____    __    __             
                 |  |  |  | |  | |    /  \     |  _  \  |  |  /  |          
                  \  \/   | |  | |   /    \    | | | |  |  | /  /          
                 / \  \   | |__| |  /  /\  \   | |_| |  |  |/  /          
                |  |  |   |  __  | /  /__\  \  |    /   |      \           
                |  |  |   | |  | | |   __   |  |    \   |  |\   \          
                \     /   | |  | | |  |  |  |  | |\  \  |  | \   \       
                 \___/    |_|  |_| |__|  |__|  |_| \__\ |__|  \__/        
                                                                              
                      - O R C A' S   B I G   F R I E N D -                    
                                      &                                       
                       - I N T E G R A L  F E E D E R -                       
                                                                              
 v1 FN, 2020, v2 2021, v3 2022-2024                                           
------------------------------------------------------------------------------


----------------------
SHARK INTEGRAL PACKAGE
----------------------

Number of atoms                             ...     62
Number of basis functions                   ...    596
Number of shells                            ...    282
Maximum angular momentum                    ...      2
Integral batch strategy                     ... SHARK/LIBINT Hybrid
RI-J (if used) integral strategy            ... SPLIT-RIJ (Revised 2003 algorithm where possible)
Printlevel                                  ...      1
Contraction scheme used                     ... SEGMENTED contraction
Prescreening option                         ... SCHWARTZ
   Thresh                                   ... 1.000e-10
   Tcut                                     ... 1.000e-11
   Tpresel                                  ... 1.000e-11 
Coulomb Range Separation                    ... NOT USED
Exchange Range Separation                   ... NOT USED
Multipole approximations                    ... NOT USED
Finite Nucleus Model                        ... NOT USED
CABS basis                                  ... NOT available
Auxiliary Coulomb fitting basis             ... AVAILABLE
   # of basis functions in Aux-J            ...   2166
   # of shells in Aux-J                     ...    702
   Maximum angular momentum in Aux-J        ...      4
Auxiliary J/K fitting basis                 ... NOT available
Auxiliary Correlation fitting basis         ... NOT available
Auxiliary 'external' fitting basis          ... NOT available

Checking pre-screening integrals            ... done (  0.0 sec) Dimension = 282
Check shell pair data                       ... done (  0.0 sec)
Shell pair information
Shell pair cut-off parameter TPreSel        ...   1.0e-11
Total number of shell pairs                 ...     39903
Shell pairs after pre-screening             ...     20267
Total number of primitive shell pairs       ...    238623
Primitive shell pairs kept                  ...     60885
          la=0 lb=0:   6506 shell pairs
          la=1 lb=0:   7212 shell pairs
          la=1 lb=1:   1986 shell pairs
          la=2 lb=0:   2702 shell pairs
          la=2 lb=1:   1579 shell pairs
          la=2 lb=2:    282 shell pairs

Calculating one electron integrals          ... done (  0.3 sec)
Calculating RI/J V-Matrix + Cholesky decomp.... done (  0.5 sec)
Calculating Nuclear repulsion               ... done (  0.0 sec) ENN=   4629.284560127757 Eh

Diagonalization of the overlap matrix:
Smallest eigenvalue                        ... 3.371e-04
Time for diagonalization                   ...    0.068 sec
Threshold for overlap eigenvalues          ... 1.000e-07
Number of eigenvalues below threshold      ... 0
Time for construction of square roots      ...    0.048 sec
Total time needed                          ...    0.127 sec

-------------------
DFT GRID GENERATION
-------------------

General Integration Accuracy     IntAcc      ... 4.388
Radial Grid Type                 RadialGrid  ... OptM3 with GC (2021)
Angular Grid (max. ang.)         AngularGrid ... 4 (Lebedev-302)
Angular grid pruning method      GridPruning ... 4 (adaptive)
Weight generation scheme         WeightScheme... mBecke (2022)
Basis function cutoff            BFCut       ... 1.0000e-10
Integration weight cutoff        WCut        ... 1.0000e-14
Partially contracted basis set               ... off
Rotationally invariant grid construction     ... off
Angular grids for H and He will be reduced by one unit

Total number of grid points                  ...   307086
Total number of batches                      ...     4829
Average number of points per batch           ...       63
Average number of grid points per atom       ...     4953

--------------------
COSX GRID GENERATION
--------------------

GRIDX 1
-------
General Integration Accuracy     IntAcc      ... 3.816
Radial Grid Type                 RadialGrid  ... OptM3 with GC (2021)
Angular Grid (max. ang.)         AngularGrid ... 1 (Lebedev-50)
Angular grid pruning method      GridPruning ... 4 (adaptive)
Weight generation scheme         WeightScheme... mBecke (2022)
Basis function cutoff            BFCut       ... 1.0000e-10
Integration weight cutoff        WCut        ... 1.0000e-14
Partially contracted basis set               ... on
Rotationally invariant grid construction     ... off
Angular grids for H and He will be reduced by one unit

Total number of grid points                  ...    39844
Total number of batches                      ...      343
Average number of points per batch           ...      116
Average number of grid points per atom       ...      643
UseSFitting                                  ... on

GRIDX 2
-------
General Integration Accuracy     IntAcc      ... 4.020
Radial Grid Type                 RadialGrid  ... OptM3 with GC (2021)
Angular Grid (max. ang.)         AngularGrid ... 2 (Lebedev-110)
Angular grid pruning method      GridPruning ... 4 (adaptive)
Weight generation scheme         WeightScheme... mBecke (2022)
Basis function cutoff            BFCut       ... 1.0000e-10
Integration weight cutoff        WCut        ... 1.0000e-14
Partially contracted basis set               ... on
Rotationally invariant grid construction     ... off
Angular grids for H and He will be reduced by one unit

Total number of grid points                  ...    85066
Total number of batches                      ...      699
Average number of points per batch           ...      121
Average number of grid points per atom       ...     1372
UseSFitting                                  ... on

GRIDX 3
-------
General Integration Accuracy     IntAcc      ... 4.338
Radial Grid Type                 RadialGrid  ... OptM3 with GC (2021)
Angular Grid (max. ang.)         AngularGrid ... 3 (Lebedev-194)
Angular grid pruning method      GridPruning ... 4 (adaptive)
Weight generation scheme         WeightScheme... mBecke (2022)
Basis function cutoff            BFCut       ... 1.0000e-10
Integration weight cutoff        WCut        ... 1.0000e-14
Partially contracted basis set               ... on
Rotationally invariant grid construction     ... off
Angular grids for H and He will be reduced by one unit

Total number of grid points                  ...   186429
Total number of batches                      ...     1491
Average number of points per batch           ...      125
Average number of grid points per atom       ...     3007
UseSFitting                                  ... on
Initializing property integral containers    ... done (  0.0 sec)

SHARK setup successfully completed in  15.9 seconds

Maximum memory used throughout the entire STARTUP-calculation: 134.5 MB
-------------------------------------------------------------------------------
                                 ORCA GUESS
                   Start orbitals & Density for SCF / CASSCF
-------------------------------------------------------------------------------

------------
SCF SETTINGS
------------
Hamiltonian:
 Density Functional     Method          .... DFT(GTOs)
 Exchange Functional    Exchange        .... B88
   X-Alpha parameter    XAlpha          ....  0.666667
   Becke's b parameter  XBeta           ....  0.004200
 Correlation Functional Correlation     .... LYP
 LDA part of GGA corr.  LDAOpt          .... VWN-5
 Gradients option       PostSCFGGA      .... off
 Hybrid DFT is turned on
   Fraction HF Exchange ScalHFX         ....  0.200000
   Scaling of DF-GGA-X  ScalDFX         ....  0.720000
   Scaling of DF-GGA-C  ScalDFC         ....  0.810000
   Scaling of DF-LDA-C  ScalLDAC        ....  1.000000
   Perturbative correction              ....  0.000000
   NL short-range parameter             ....  4.800000
 RI-approximation to the Coulomb term is turned on
   Number of AuxJ basis functions       .... 2166
   RIJ-COSX (HFX calculated with COS-X)).... on


General Settings:
 Integral files         IntName         .... /home/nmrbox/aojoawo/Documents/ERDOS/inputs/CHEMBL3687399
 Hartree-Fock type      HFTyp           .... RHF
 Total Charge           Charge          ....    0
 Multiplicity           Mult            ....    1
 Number of Electrons    NEL             ....  290
 Basis Dimension        Dim             ....  596
 Nuclear Repulsion      ENuc            ....   4629.2845601278 Eh

Convergence Acceleration:
 AO-DIIS                CNVDIIS         .... on
   Start iteration      DIISMaxIt       ....    12
   Startup error        DIISStart       ....  0.200000
   # of expansion vecs  DIISMaxEq       ....     5
   Bias factor          DIISBfac        ....   1.050
   Max. coefficient     DIISMaxC        ....  10.000
 MO-DIIS                CNVKDIIS        .... off
 Trust-Rad. Augm. Hess. CNVTRAH         .... auto
   Auto Start mean grad. ratio tolernc. ....  1.125000
   Auto Start start iteration           ....    50
   Auto Start num. interpolation iter.  ....    10
   Max. Number of Micro iterations      ....    24
   Max. Number of Macro iterations      .... Maxiter - #DIIS iter
   Number of Davidson start vectors     ....     2
   Converg. threshold    (grad. norm)   ....   5.000e-05
   Grad. Scal. Fac. for Micro threshold ....   0.100
   Minimum threshold for Micro iter.    ....   1.000e-02
   NR start threshold (gradient norm)   ....   1.000e-04
   Initial trust radius                 ....   0.400
   Minimum AH scaling param. (alpha)    ....   1.000
   Maximum AH scaling param. (alpha)    .... 1000.000
   Quad. conv. algorithm                .... NR
   White noise on init. David. guess    .... on
   Maximum white noise                  ....   0.010
   Pseudo random numbers                .... off
   Inactive MOs                         .... canonical
   Orbital update algorithm             .... Taylor
   Preconditioner                       .... Diag
   Full preconditioner red. dimension   ....   250
 SOSCF                  CNVSOSCF        .... on
   Start iteration      SOSCFMaxIt      ....   150
   Startup grad/error   SOSCFStart      ....  0.003300
   Hessian update       SOSCFHessUp     .... L-BFGS
 Level Shifting         CNVShift        .... on
   Level shift para.    LevelShift      ....    0.2500
   Turn off err/grad.   ShiftErr        ....    0.0010
 Zerner damping         CNVZerner       .... off
 Static damping         CNVDamp         .... on
   Fraction old density DampFac         ....    0.7000
   Max. Damping (<1)    DampMax         ....    0.9800
   Min. Damping (>=0)   DampMin         ....    0.0000
   Turn off err/grad.   DampErr         ....    0.1000

SCF Procedure:
 Maximum # iterations   MaxIter         ....   125
 SCF integral mode      SCFMode         .... Direct
   Integral package                     .... SHARK and LIBINT hybrid scheme
 Reset frequency        DirectResetFreq ....    20
 Integral Threshold     Thresh          ....  1.000e-10 Eh
 Primitive CutOff       TCut            ....  1.000e-11 Eh

Convergence Tolerance:
 Convergence Check Mode ConvCheckMode   .... Total+1el-Energy
 Convergence forced     ConvForced      .... 0
 Energy Change          TolE            ....  1.000e-06 Eh
 1-El. energy change                    ....  1.000e-03 Eh
 Orbital Gradient       TolG            ....  5.000e-05
 Orbital Rotation angle TolX            ....  5.000e-05
 DIIS Error             TolErr          ....  1.000e-06

------------------------------
INITIAL GUESS: MODEL POTENTIAL
------------------------------
Loading Hartree-Fock densities                     ... done
Calculating cut-offs                               ... done
Initializing the effective Hamiltonian             ... done
Setting up the integral package (SHARK)            ... done
Starting the Coulomb interaction                   ... done (   5.1 sec)
Making the grid                                    ... done (   2.1 sec)
Mapping shells                                     ... done
Starting the XC term evaluation                    ... done (   1.5 sec)
  promolecular density results
     # of electrons  =    289.977398244
     EX              =   -263.144096956
     EC              =    -10.211679934
     EX+EC           =   -273.355776890
Transforming the Hamiltonian                       ... done (   0.0 sec)
Diagonalizing the Hamiltonian                      ... done (   0.1 sec)
Back transforming the eigenvectors                 ... done (   0.0 sec)
Now organizing SCF variables                       ... done
                      ------------------
                      INITIAL GUESS DONE (   8.9 sec)
                      ------------------
             **** ENERGY FILE WAS UPDATED (/home/nmrbox/aojoawo/Documents/ERDOS/inputs/CHEMBL3687399.en.tmp) ****
Finished Guess after   9.6 sec
Maximum memory used throughout the entire GUESS-calculation: 74.4 MB

-------------------------------------------------------------------------------------------
                                      ORCA LEAN-SCF
                              memory conserving SCF solver
-------------------------------------------------------------------------------------------

----------------------------------------D-I-I-S--------------------------------------------
Iteration    Energy (Eh)           Delta-E    RMSDP     MaxDP     DIISErr   Damp  Time(sec)
-------------------------------------------------------------------------------------------
               ***  Starting incremental Fock matrix formation  ***
    1    -2298.9351946581327866     0.00e+00  2.30e-03  1.90e-01  2.98e-01  0.700  84.7
    2    -2299.4812678560592758    -5.46e-01  1.38e-03  7.83e-02  9.86e-02  0.700  37.3
                               ***Turning on AO-DIIS***
    3    -2299.6671858416166287    -1.86e-01  5.41e-04  1.89e-02  3.55e-02  0.700  36.1
    4    -2299.7900022918674949    -1.23e-01  9.24e-04  3.37e-02  1.69e-02  0.000  33.1
    5    -2300.0665421434196105    -2.77e-01  2.15e-04  7.88e-03  7.43e-03  0.000  34.8
                              *** Initializing SOSCF ***
---------------------------------------S-O-S-C-F--------------------------------------
Iteration    Energy (Eh)           Delta-E    RMSDP     MaxDP     MaxGrad    Time(sec)
--------------------------------------------------------------------------------------
    6    -2300.0684339731569708    -1.89e-03  6.99e-05  3.34e-03  2.80e-03    29.2
               *** Restarting incremental Fock matrix formation ***
    7    -2300.0685238384257900    -8.99e-05  6.90e-05  4.36e-03  6.52e-04    85.3
    8    -2300.0684341892001612     8.96e-05  4.48e-05  2.80e-03  1.08e-03    47.6
    9    -2300.0685569103143280    -1.23e-04  1.24e-05  8.45e-04  1.37e-04    45.4
   10    -2300.0685542653855009     2.64e-06  7.71e-06  5.51e-04  2.35e-04    34.6
   11    -2300.0685582449705180    -3.98e-06  2.17e-06  9.95e-05  2.67e-05    30.9
   12    -2300.0685582819523916    -3.70e-08  1.32e-06  6.39e-05  4.02e-05    24.7
                 **** Energy Check signals convergence ****

               *****************************************************
               *                     SUCCESS                       *
               *           SCF CONVERGED AFTER  12 CYCLES          *
               *****************************************************

Recomputing exchange energy using gridx3       ... done (  150.407 sec)
Old exchange energy                            :    -53.165453540 Eh
New exchange energy                            :    -53.165590458 Eh
Exchange energy change after final integration :     -0.000136918 Eh
Total energy after final integration           :  -2300.068695200 Eh
             **** ENERGY FILE WAS UPDATED (/home/nmrbox/aojoawo/Documents/ERDOS/inputs/CHEMBL3687399.en.tmp) ****

----------------
TOTAL SCF ENERGY
----------------

Total Energy       :      -2300.06869520043392 Eh          -62588.05111 eV

Components:
Nuclear Repulsion  :       4629.28456012775678 Eh          125969.23703 eV
Electronic Energy  :      -6929.35311840970917 Eh         -188557.28442 eV
One Electron Energy:     -12367.57043059745229 Eh         -336538.70071 eV
Two Electron Energy:       5438.21731218774312 Eh          147981.41629 eV

Virial components:
Potential Energy   :      -4586.73891899333375 Eh         -124811.51128 eV
Kinetic Energy     :       2286.67022379289983 Eh           62223.46017 eV
Virial Ratio       :          2.00585938071355

DFT components:
N(Alpha)           :      144.999896150574 electrons
N(Beta)            :      144.999896150574 electrons
N(Total)           :      289.999792301149 electrons
E(X)               :     -211.383507966220 Eh       
E(C)               :      -11.990192697492 Eh       
E(XC)              :     -223.373700663712 Eh       

---------------
SCF CONVERGENCE
---------------

  Last Energy change         ...    3.6982e-08  Tolerance :   1.0000e-06
  Last MAX-Density change    ...    6.3869e-05  Tolerance :   1.0000e-05
  Last RMS-Density change    ...    1.3195e-06  Tolerance :   1.0000e-06
  Last DIIS Error            ...    2.8000e-03  Tolerance :   1.0000e-06
  Last Orbital Gradient      ...    4.0242e-05  Tolerance :   5.0000e-05
  Last Orbital Rotation      ...    6.5244e-05  Tolerance :   5.0000e-05


----------------
ORBITAL ENERGIES
----------------

  NO   OCC          E(Eh)            E(eV) 
   0   2.0000     -89.098399     -2424.4907 
   1   2.0000     -24.734047      -673.0476 
   2   2.0000     -24.732394      -673.0027 
   3   2.0000     -24.729662      -672.9283 
   4   2.0000     -19.204407      -522.5785 
   5   2.0000     -19.199606      -522.4478 
   6   2.0000     -19.176942      -521.8311 
   7   2.0000     -19.141317      -520.8617 
   8   2.0000     -19.126273      -520.4523 
   9   2.0000     -19.121977      -520.3354 
  10   2.0000     -14.371480      -391.0679 
  11   2.0000     -14.329708      -389.9312 
  12   2.0000     -10.496150      -285.6148 
  13   2.0000     -10.338840      -281.3341 
  14   2.0000     -10.289258      -279.9849 
  15   2.0000     -10.261661      -279.2340 
  16   2.0000     -10.259447      -279.1738 
  17   2.0000     -10.246191      -278.8130 
  18   2.0000     -10.238735      -278.6101 
  19   2.0000     -10.236728      -278.5555 
  20   2.0000     -10.235955      -278.5345 
  21   2.0000     -10.223633      -278.1992 
  22   2.0000     -10.223263      -278.1891 
  23   2.0000     -10.221233      -278.1339 
  24   2.0000     -10.220825      -278.1228 
  25   2.0000     -10.207357      -277.7563 
  26   2.0000     -10.203377      -277.6480 
  27   2.0000     -10.202325      -277.6194 
  28   2.0000     -10.195830      -277.4426 
  29   2.0000     -10.194248      -277.3996 
  30   2.0000     -10.193663      -277.3837 
  31   2.0000     -10.191956      -277.3372 
  32   2.0000     -10.191296      -277.3193 
  33   2.0000     -10.191208      -277.3169 
  34   2.0000     -10.189345      -277.2662 
  35   2.0000     -10.186167      -277.1797 
  36   2.0000     -10.185960      -277.1741 
  37   2.0000     -10.181828      -277.0616 
  38   2.0000     -10.167348      -276.6676 
  39   2.0000      -8.134008      -221.3376 
  40   2.0000      -6.099142      -165.9661 
  41   2.0000      -6.097085      -165.9101 
  42   2.0000      -6.096520      -165.8947 
  43   2.0000      -1.296316       -35.2745 
  44   2.0000      -1.217662       -33.1343 
  45   2.0000      -1.216121       -33.0923 
  46   2.0000      -1.083228       -29.4761 
  47   2.0000      -1.082530       -29.4571 
  48   2.0000      -1.074657       -29.2429 
  49   2.0000      -1.056452       -28.7475 
  50   2.0000      -0.997647       -27.1474 
  51   2.0000      -0.961279       -26.1577 
  52   2.0000      -0.959933       -26.1211 
  53   2.0000      -0.912085       -24.8191 
  54   2.0000      -0.893602       -24.3161 
  55   2.0000      -0.864005       -23.5108 
  56   2.0000      -0.855602       -23.2821 
  57   2.0000      -0.810714       -22.0607 
  58   2.0000      -0.805972       -21.9316 
  59   2.0000      -0.784049       -21.3351 
  60   2.0000      -0.780057       -21.2264 
  61   2.0000      -0.776185       -21.1211 
  62   2.0000      -0.749718       -20.4009 
  63   2.0000      -0.748381       -20.3645 
  64   2.0000      -0.741388       -20.1742 
  65   2.0000      -0.725704       -19.7474 
  66   2.0000      -0.713391       -19.4124 
  67   2.0000      -0.691137       -18.8068 
  68   2.0000      -0.676026       -18.3956 
  69   2.0000      -0.656559       -17.8659 
  70   2.0000      -0.647431       -17.6175 
  71   2.0000      -0.642465       -17.4824 
  72   2.0000      -0.625802       -17.0289 
  73   2.0000      -0.623129       -16.9562 
  74   2.0000      -0.621975       -16.9248 
  75   2.0000      -0.614281       -16.7154 
  76   2.0000      -0.594226       -16.1697 
  77   2.0000      -0.588350       -16.0098 
  78   2.0000      -0.583197       -15.8696 
  79   2.0000      -0.578623       -15.7451 
  80   2.0000      -0.566827       -15.4241 
  81   2.0000      -0.558328       -15.1929 
  82   2.0000      -0.544731       -14.8229 
  83   2.0000      -0.541042       -14.7225 
  84   2.0000      -0.522646       -14.2219 
  85   2.0000      -0.511380       -13.9153 
  86   2.0000      -0.498848       -13.5744 
  87   2.0000      -0.493035       -13.4162 
  88   2.0000      -0.492644       -13.4055 
  89   2.0000      -0.481217       -13.0946 
  90   2.0000      -0.475422       -12.9369 
  91   2.0000      -0.472318       -12.8524 
  92   2.0000      -0.467700       -12.7268 
  93   2.0000      -0.464180       -12.6310 
  94   2.0000      -0.462232       -12.5780 
  95   2.0000      -0.459608       -12.5066 
  96   2.0000      -0.457322       -12.4444 
  97   2.0000      -0.452358       -12.3093 
  98   2.0000      -0.451503       -12.2860 
  99   2.0000      -0.447924       -12.1886 
 100   2.0000      -0.445181       -12.1140 
 101   2.0000      -0.444740       -12.1020 
 102   2.0000      -0.441083       -12.0025 
 103   2.0000      -0.437541       -11.9061 
 104   2.0000      -0.434636       -11.8270 
 105   2.0000      -0.429090       -11.6761 
 106   2.0000      -0.427916       -11.6442 
 107   2.0000      -0.426585       -11.6080 
 108   2.0000      -0.422424       -11.4948 
 109   2.0000      -0.417124       -11.3505 
 110   2.0000      -0.411963       -11.2101 
 111   2.0000      -0.408765       -11.1231 
 112   2.0000      -0.404813       -11.0155 
 113   2.0000      -0.400949       -10.9104 
 114   2.0000      -0.398142       -10.8340 
 115   2.0000      -0.396936       -10.8012 
 116   2.0000      -0.388884       -10.5821 
 117   2.0000      -0.386214       -10.5094 
 118   2.0000      -0.382339       -10.4040 
 119   2.0000      -0.378838       -10.3087 
 120   2.0000      -0.371445       -10.1075 
 121   2.0000      -0.369369       -10.0511 
 122   2.0000      -0.368154       -10.0180 
 123   2.0000      -0.367011        -9.9869 
 124   2.0000      -0.355086        -9.6624 
 125   2.0000      -0.349734        -9.5167 
 126   2.0000      -0.343518        -9.3476 
 127   2.0000      -0.339366        -9.2346 
 128   2.0000      -0.325084        -8.8460 
 129   2.0000      -0.322639        -8.7795 
 130   2.0000      -0.321231        -8.7411 
 131   2.0000      -0.315525        -8.5859 
 132   2.0000      -0.307009        -8.3541 
 133   2.0000      -0.296091        -8.0571 
 134   2.0000      -0.288904        -7.8615 
 135   2.0000      -0.282131        -7.6772 
 136   2.0000      -0.277766        -7.5584 
 137   2.0000      -0.274218        -7.4618 
 138   2.0000      -0.271069        -7.3762 
 139   2.0000      -0.265963        -7.2372 
 140   2.0000      -0.263426        -7.1682 
 141   2.0000      -0.253002        -6.8845 
 142   2.0000      -0.250218        -6.8088 
 143   2.0000      -0.228312        -6.2127 
 144   2.0000      -0.210964        -5.7406 
 145   0.0000      -0.086809        -2.3622 
 146   0.0000      -0.053885        -1.4663 
 147   0.0000      -0.035278        -0.9600 
 148   0.0000      -0.031532        -0.8580 
 149   0.0000      -0.006043        -0.1644 
 150   0.0000      -0.004181        -0.1138 
 151   0.0000       0.008989         0.2446 
 152   0.0000       0.027715         0.7542 
 153   0.0000       0.035507         0.9662 
 154   0.0000       0.042379         1.1532 
 155   0.0000       0.046852         1.2749 
*Only the first 10 virtual orbitals were printed.

                    ********************************
                    * MULLIKEN POPULATION ANALYSIS *
                    ********************************

-----------------------
MULLIKEN ATOMIC CHARGES
-----------------------
   0 C :   -0.465640
   1 C :   -0.017524
   2 O :   -0.500452
   3 C :    0.439430
   4 N :   -0.455004
   5 C :    0.320377
   6 N :   -0.625844
   7 C :   -0.228831
   8 C :    0.141302
   9 C :   -0.142534
  10 C :   -0.187429
  11 C :    0.351871
  12 O :   -0.546754
  13 C :    1.084209
  14 F :   -0.280896
  15 F :   -0.288832
  16 F :   -0.292915
  17 C :   -0.168986
  18 C :   -0.189749
  19 S :    1.219860
  20 O :   -0.522673
  21 O :   -0.548529
  22 C :   -0.136650
  23 C :   -0.144249
  24 C :   -0.147766
  25 C :    0.083656
  26 C :    0.529324
  27 O :   -0.443477
  28 O :   -0.623879
  29 C :   -0.142152
  30 C :   -0.155646
  31 C :    0.108300
  32 C :   -0.544607
  33 C :    0.135440
  34 C :   -0.205792
  35 C :   -0.116444
  36 C :   -0.127222
  37 C :   -0.183454
  38 C :    0.066359
  39 H :    0.139448
  40 H :    0.153321
  41 H :    0.190634
  42 H :    0.150418
  43 H :    0.148762
  44 H :    0.152607
  45 H :    0.191474
  46 H :    0.186290
  47 H :    0.150406
  48 H :    0.143309
  49 H :    0.126472
  50 H :    0.187626
  51 H :    0.173859
  52 H :    0.434746
  53 H :    0.181781
  54 H :    0.193682
  55 H :    0.155924
  56 H :    0.171402
  57 H :    0.156560
  58 H :    0.136625
  59 H :    0.135739
  60 H :    0.135176
  61 H :    0.157541
Sum of atomic charges:   -0.0000000

--------------------------------
MULLIKEN REDUCED ORBITAL CHARGES
--------------------------------
  0 C s       :     3.314670  s :     3.314670
      pz      :     0.964926  p :     3.117817
      px      :     1.077769
      py      :     1.075122
      dz2     :     0.008418  d :     0.033152
      dxz     :     0.009625
      dyz     :     0.002113
      dx2y2   :     0.004401
      dxy     :     0.008595

  1 C s       :     3.199390  s :     3.199390
      pz      :     1.002491  p :     2.754197
      px      :     0.990356
      py      :     0.761350
      dz2     :     0.012229  d :     0.063937
      dxz     :     0.013156
      dyz     :     0.009929
      dx2y2   :     0.010401
      dxy     :     0.018222

  2 O s       :     3.871723  s :     3.871723
      pz      :     1.781462  p :     4.603224
      px      :     1.635038
      py      :     1.186725
      dz2     :     0.003682  d :     0.025504
      dxz     :     0.002996
      dyz     :     0.004458
      dx2y2   :     0.004147
      dxy     :     0.010221

  3 C s       :     3.011828  s :     3.011828
      pz      :     0.926370  p :     2.463500
      px      :     0.797419
      py      :     0.739711
      dz2     :     0.005505  d :     0.085241
      dxz     :     0.012798
      dyz     :     0.011980
      dx2y2   :     0.024550
      dxy     :     0.030408

  4 N s       :     3.693637  s :     3.693637
      pz      :     1.221671  p :     3.728022
      px      :     1.102231
      py      :     1.404121
      dz2     :     0.004088  d :     0.033344
      dxz     :     0.006758
      dyz     :     0.005343
      dx2y2   :     0.010583
      dxy     :     0.006572

  5 C s       :     3.041583  s :     3.041583
      pz      :     0.999285  p :     2.562769
      px      :     0.683110
      py      :     0.880374
      dz2     :     0.005274  d :     0.075271
      dxz     :     0.008343
      dyz     :     0.009699
      dx2y2   :     0.026108
      dxy     :     0.025847

  6 N s       :     3.594090  s :     3.594090
      pz      :     1.200686  p :     3.999183
      px      :     1.149277
      py      :     1.649220
      dz2     :     0.006856  d :     0.032571
      dxz     :     0.011134
      dyz     :     0.004407
      dx2y2   :     0.005398
      dxy     :     0.004776

  7 C s       :     3.246338  s :     3.246338
      pz      :     0.914272  p :     2.927252
      px      :     1.024484
      py      :     0.988496
      dz2     :     0.008937  d :     0.055240
      dxz     :     0.015252
      dyz     :     0.010336
      dx2y2   :     0.006464
      dxy     :     0.014252

  8 C s       :     3.136877  s :     3.136877
      pz      :     0.940566  p :     2.682497
      px      :     0.870209
      py      :     0.871721
      dz2     :     0.005364  d :     0.039324
      dxz     :     0.007163
      dyz     :     0.005801
      dx2y2   :     0.010463
      dxy     :     0.010533

  9 C s       :     3.199098  s :     3.199098
      pz      :     0.959916  p :     2.907351
      px      :     1.024178
      py      :     0.923257
      dz2     :     0.005044  d :     0.036084
      dxz     :     0.005481
      dyz     :     0.006336
      dx2y2   :     0.011038
      dxy     :     0.008185

 10 C s       :     3.184269  s :     3.184269
      pz      :     1.010882  p :     2.968548
      px      :     0.936371
      py      :     1.021296
      dz2     :     0.003210  d :     0.034612
      dxz     :     0.006512
      dyz     :     0.006975
      dx2y2   :     0.009075
      dxy     :     0.008841

 11 C s       :     3.073527  s :     3.073527
      pz      :     0.948933  p :     2.509340
      px      :     0.842029
      py      :     0.718379
      dz2     :     0.009034  d :     0.065261
      dxz     :     0.010511
      dyz     :     0.010303
      dx2y2   :     0.016813
      dxy     :     0.018600

 12 O s       :     3.883383  s :     3.883383
      pz      :     1.595944  p :     4.637415
      px      :     1.676354
      py      :     1.365117
      dz2     :     0.004593  d :     0.025956
      dxz     :     0.004357
      dyz     :     0.005715
      dx2y2   :     0.003881
      dxy     :     0.007411

 13 C s       :     2.715850  s :     2.715850
      pz      :     0.697857  p :     2.035179
      px      :     0.641840
      py      :     0.695481
      dz2     :     0.035274  d :     0.164762
      dxz     :     0.026603
      dyz     :     0.036899
      dx2y2   :     0.026348
      dxy     :     0.039639

 14 F s       :     3.978781  s :     3.978781
      pz      :     1.906209  p :     5.285985
      px      :     1.669134
      py      :     1.710642
      dz2     :     0.002339  d :     0.016130
      dxz     :     0.002127
      dyz     :     0.001671
      dx2y2   :     0.003444
      dxy     :     0.006549

 15 F s       :     3.981949  s :     3.981949
      pz      :     1.563976  p :     5.290521
      px      :     1.896408
      py      :     1.830137
      dz2     :     0.005882  d :     0.016361
      dxz     :     0.003255
      dyz     :     0.005298
      dx2y2   :     0.000878
      dxy     :     0.001047

 16 F s       :     3.982044  s :     3.982044
      pz      :     1.865782  p :     5.294746
      px      :     1.611719
      py      :     1.817245
      dz2     :     0.002115  d :     0.016126
      dxz     :     0.003505
      dyz     :     0.001667
      dx2y2   :     0.003849
      dxy     :     0.004990

 17 C s       :     3.190153  s :     3.190153
      pz      :     1.007427  p :     2.944245
      px      :     0.972595
      py      :     0.964223
      dz2     :     0.005208  d :     0.034588
      dxz     :     0.005154
      dyz     :     0.006438
      dx2y2   :     0.009884
      dxy     :     0.007904

 18 C s       :     3.203742  s :     3.203742
      pz      :     0.990463  p :     2.949435
      px      :     0.974827
      py      :     0.984144
      dz2     :     0.003123  d :     0.036572
      dxz     :     0.007237
      dyz     :     0.007285
      dx2y2   :     0.008984
      dxy     :     0.009943

 19 S s       :     5.216373  s :     5.216373
      pz      :     2.999318  p :     9.029113
      px      :     3.013143
      py      :     3.016652
      dz2     :     0.099789  d :     0.534653
      dxz     :     0.105404
      dyz     :     0.109008
      dx2y2   :     0.088073
      dxy     :     0.132380

 20 O s       :     3.928298  s :     3.928298
      pz      :     1.514842  p :     4.567466
      px      :     1.639133
      py      :     1.413491
      dz2     :     0.004814  d :     0.026910
      dxz     :     0.003306
      dyz     :     0.007085
      dx2y2   :     0.006053
      dxy     :     0.005651

 21 O s       :     3.925934  s :     3.925934
      pz      :     1.440089  p :     4.595717
      px      :     1.501514
      py      :     1.654114
      dz2     :     0.006039  d :     0.026877
      dxz     :     0.006987
      dyz     :     0.004724
      dx2y2   :     0.004830
      dxy     :     0.004298

 22 C s       :     3.225175  s :     3.225175
      pz      :     1.040413  p :     2.872937
      px      :     0.912662
      py      :     0.919862
      dz2     :     0.003939  d :     0.038538
      dxz     :     0.004722
      dyz     :     0.005776
      dx2y2   :     0.009749
      dxy     :     0.014353

 23 C s       :     3.210142  s :     3.210142
      pz      :     0.953565  p :     2.898191
      px      :     1.026409
      py      :     0.918217
      dz2     :     0.003232  d :     0.035916
      dxz     :     0.004018
      dyz     :     0.006362
      dx2y2   :     0.012133
      dxy     :     0.010172

 24 C s       :     3.211626  s :     3.211626
      pz      :     0.956609  p :     2.900511
      px      :     0.954422
      py      :     0.989480
      dz2     :     0.004216  d :     0.035629
      dxz     :     0.005591
      dyz     :     0.003292
      dx2y2   :     0.012703
      dxy     :     0.009827

 25 C s       :     3.166111  s :     3.166111
      pz      :     0.982538  p :     2.711795
      px      :     0.861125
      py      :     0.868133
      dz2     :     0.003827  d :     0.038438
      dxz     :     0.005008
      dyz     :     0.005973
      dx2y2   :     0.010239
      dxy     :     0.013391

 26 C s       :     2.997660  s :     2.997660
      pz      :     0.807631  p :     2.363194
      px      :     0.838920
      py      :     0.716642
      dz2     :     0.009133  d :     0.109823
      dxz     :     0.014730
      dyz     :     0.016227
      dx2y2   :     0.035252
      dxy     :     0.034480

 27 O s       :     3.879135  s :     3.879135
      pz      :     1.400715  p :     4.538737
      px      :     1.381421
      py      :     1.756601
      dz2     :     0.003676  d :     0.025606
      dxz     :     0.007881
      dyz     :     0.001473
      dx2y2   :     0.006648
      dxy     :     0.005927

 28 O s       :     3.873898  s :     3.873898
      pz      :     1.794120  p :     4.729106
      px      :     1.658338
      py      :     1.276648
      dz2     :     0.003098  d :     0.020876
      dxz     :     0.002357
      dyz     :     0.003290
      dx2y2   :     0.003280
      dxy     :     0.008850

 29 C s       :     3.215484  s :     3.215484
      pz      :     0.948152  p :     2.891021
      px      :     0.982699
      py      :     0.960170
      dz2     :     0.003080  d :     0.035647
      dxz     :     0.004145
      dyz     :     0.006043
      dx2y2   :     0.011764
      dxy     :     0.010614

 30 C s       :     3.208540  s :     3.208540
      pz      :     0.949123  p :     2.911139
      px      :     0.914124
      py      :     1.047892
      dz2     :     0.004324  d :     0.035967
      dxz     :     0.005837
      dyz     :     0.003270
      dx2y2   :     0.013215
      dxy     :     0.009320

 31 C s       :     3.165746  s :     3.165746
      pz      :     0.972202  p :     2.686622
      px      :     0.877650
      py      :     0.836770
      dz2     :     0.003466  d :     0.039332
      dxz     :     0.005608
      dyz     :     0.006163
      dx2y2   :     0.012426
      dxy     :     0.011670

 32 C s       :     3.317930  s :     3.317930
      pz      :     1.067752  p :     3.192030
      px      :     1.067166
      py      :     1.057112
      dz2     :     0.006622  d :     0.034647
      dxz     :     0.003082
      dyz     :     0.010987
      dx2y2   :     0.008263
      dxy     :     0.005693

 33 C s       :     3.134373  s :     3.134373
      pz      :     0.962812  p :     2.688352
      px      :     0.871897
      py      :     0.853644
      dz2     :     0.003416  d :     0.041834
      dxz     :     0.006736
      dyz     :     0.006035
      dx2y2   :     0.012621
      dxy     :     0.013026

 34 C s       :     3.209346  s :     3.209346
      pz      :     1.007702  p :     2.961016
      px      :     0.957946
      py      :     0.995368
      dz2     :     0.003385  d :     0.035430
      dxz     :     0.005235
      dyz     :     0.002923
      dx2y2   :     0.010885
      dxy     :     0.013003

 35 C s       :     3.195470  s :     3.195470
      pz      :     0.965986  p :     2.884190
      px      :     0.957913
      py      :     0.960290
      dz2     :     0.003335  d :     0.036785
      dxz     :     0.005400
      dyz     :     0.003515
      dx2y2   :     0.010885
      dxy     :     0.013650

 36 C s       :     3.193012  s :     3.193012
      pz      :     0.986829  p :     2.897839
      px      :     0.980032
      py      :     0.930978
      dz2     :     0.003639  d :     0.036371
      dxz     :     0.002263
      dyz     :     0.005823
      dx2y2   :     0.014621
      dxy     :     0.010024

 37 C s       :     3.216416  s :     3.216416
      pz      :     0.961674  p :     2.930881
      px      :     0.998203
      py      :     0.971004
      dz2     :     0.003475  d :     0.036158
      dxz     :     0.005275
      dyz     :     0.003417
      dx2y2   :     0.011293
      dxy     :     0.012698

 38 C s       :     3.147217  s :     3.147217
      pz      :     1.013073  p :     2.746079
      px      :     0.848174
      py      :     0.884832
      dz2     :     0.003426  d :     0.040345
      dxz     :     0.006508
      dyz     :     0.005307
      dx2y2   :     0.011604
      dxy     :     0.013500

 39 H s       :     0.860552  s :     0.860552

 40 H s       :     0.846679  s :     0.846679

 41 H s       :     0.809366  s :     0.809366

 42 H s       :     0.849582  s :     0.849582

 43 H s       :     0.851238  s :     0.851238

 44 H s       :     0.847393  s :     0.847393

 45 H s       :     0.808526  s :     0.808526

 46 H s       :     0.813710  s :     0.813710

 47 H s       :     0.849594  s :     0.849594

 48 H s       :     0.856691  s :     0.856691

 49 H s       :     0.873528  s :     0.873528

 50 H s       :     0.812374  s :     0.812374

 51 H s       :     0.826141  s :     0.826141

 52 H s       :     0.565254  s :     0.565254

 53 H s       :     0.818219  s :     0.818219

 54 H s       :     0.806318  s :     0.806318

 55 H s       :     0.844076  s :     0.844076

 56 H s       :     0.828598  s :     0.828598

 57 H s       :     0.843440  s :     0.843440

 58 H s       :     0.863375  s :     0.863375

 59 H s       :     0.864261  s :     0.864261

 60 H s       :     0.864824  s :     0.864824

 61 H s       :     0.842459  s :     0.842459



                     *******************************
                     * LOEWDIN POPULATION ANALYSIS *
                     *******************************

----------------------
LOEWDIN ATOMIC CHARGES
----------------------
   0 C :   -0.377745
   1 C :   -0.089589
   2 O :   -0.174869
   3 C :    0.137358
   4 N :   -0.166986
   5 C :    0.037208
   6 N :   -0.283767
   7 C :   -0.145859
   8 C :   -0.045066
   9 C :   -0.100595
  10 C :   -0.152566
  11 C :    0.086644
  12 O :   -0.160701
  13 C :    0.358752
  14 F :   -0.089297
  15 F :   -0.103085
  16 F :   -0.107015
  17 C :   -0.145716
  18 C :   -0.136707
  19 S :    1.265732
  20 O :   -0.555170
  21 O :   -0.572969
  22 C :   -0.176061
  23 C :   -0.101602
  24 C :   -0.099863
  25 C :   -0.038067
  26 C :    0.180840
  27 O :   -0.259957
  28 O :   -0.335203
  29 C :   -0.086700
  30 C :   -0.109130
  31 C :   -0.028084
  32 C :   -0.360321
  33 C :    0.001326
  34 C :   -0.126835
  35 C :   -0.114541
  36 C :   -0.129750
  37 C :   -0.101753
  38 C :   -0.038857
  39 H :    0.127617
  40 H :    0.129675
  41 H :    0.143116
  42 H :    0.126846
  43 H :    0.120456
  44 H :    0.123865
  45 H :    0.154460
  46 H :    0.153702
  47 H :    0.141698
  48 H :    0.142726
  49 H :    0.130910
  50 H :    0.160464
  51 H :    0.155315
  52 H :    0.350687
  53 H :    0.160887
  54 H :    0.162412
  55 H :    0.132276
  56 H :    0.139540
  57 H :    0.133142
  58 H :    0.138276
  59 H :    0.135642
  60 H :    0.135209
  61 H :    0.147640

-------------------------------
LOEWDIN REDUCED ORBITAL CHARGES
-------------------------------
  0 C s       :     2.990844  s :     2.990844
      pz      :     1.065747  p :     3.321640
      px      :     1.128071
      py      :     1.127823
      dz2     :     0.018222  d :     0.065261
      dxz     :     0.019541
      dyz     :     0.004502
      dx2y2   :     0.007606
      dxy     :     0.015390

  1 C s       :     2.935505  s :     2.935505
      pz      :     1.088939  p :     3.018441
      px      :     1.061247
      py      :     0.868255
      dz2     :     0.027000  d :     0.135643
      dxz     :     0.027169
      dyz     :     0.020688
      dx2y2   :     0.021519
      dxy     :     0.039267

  2 O s       :     3.469136  s :     3.469136
      pz      :     1.758725  p :     4.646304
      px      :     1.652681
      py      :     1.234898
      dz2     :     0.007003  d :     0.059429
      dxz     :     0.004342
      dyz     :     0.011390
      dx2y2   :     0.013187
      dxy     :     0.023508

  3 C s       :     2.846485  s :     2.846485
      pz      :     0.923988  p :     2.819315
      px      :     0.984817
      py      :     0.910510
      dz2     :     0.012640  d :     0.196842
      dxz     :     0.025163
      dyz     :     0.024148
      dx2y2   :     0.060581
      dxy     :     0.074310

  4 N s       :     3.227382  s :     3.227382
      pz      :     1.208039  p :     3.863764
      px      :     1.212542
      py      :     1.443184
      dz2     :     0.008332  d :     0.075840
      dxz     :     0.014085
      dyz     :     0.008894
      dx2y2   :     0.026783
      dxy     :     0.017747

  5 C s       :     2.843685  s :     2.843685
      pz      :     0.992837  p :     2.938569
      px      :     0.911760
      py      :     1.033972
      dz2     :     0.012100  d :     0.180538
      dxz     :     0.017453
      dyz     :     0.020411
      dx2y2   :     0.067545
      dxy     :     0.063029

  6 N s       :     3.171521  s :     3.171521
      pz      :     1.257915  p :     4.029139
      px      :     1.163615
      py      :     1.607609
      dz2     :     0.018458  d :     0.083107
      dxz     :     0.030006
      dyz     :     0.010433
      dx2y2   :     0.012674
      dxy     :     0.011535

  7 C s       :     2.922460  s :     2.922460
      pz      :     0.994268  p :     3.105855
      px      :     1.058622
      py      :     1.052965
      dz2     :     0.019702  d :     0.117544
      dxz     :     0.032562
      dyz     :     0.022066
      dx2y2   :     0.012559
      dxy     :     0.030654

[...]
      dx2y2   :     0.032555
      dxy     :     0.032872

 32 C s       :     2.971954  s :     2.971954
      pz      :     1.122516  p :     3.321065
      px      :     1.113362
      py      :     1.085187
      dz2     :     0.012251  d :     0.067302
      dxz     :     0.005303
      dyz     :     0.021216
      dx2y2   :     0.016714
      dxy     :     0.011819

 33 C s       :     2.855822  s :     2.855822
      pz      :     0.958774  p :     3.036383
      px      :     1.037412
      py      :     1.040196
      dz2     :     0.007097  d :     0.106470
      dxz     :     0.014218
      dyz     :     0.012767
      dx2y2   :     0.036012
      dxy     :     0.036376

 34 C s       :     2.915843  s :     2.915843
      pz      :     0.998234  p :     3.128786
      px      :     1.066164
      py      :     1.064388
      dz2     :     0.006093  d :     0.082206
      dxz     :     0.010873
      dyz     :     0.005460
      dx2y2   :     0.028358
      dxy     :     0.031422

 35 C s       :     2.918000  s :     2.918000
      pz      :     0.961053  p :     3.110064
      px      :     1.075837
      py      :     1.073174
      dz2     :     0.006163  d :     0.086477
      dxz     :     0.011687
      dyz     :     0.006766
      dx2y2   :     0.028505
      dxy     :     0.033356

 36 C s       :     2.915999  s :     2.915999
      pz      :     0.982169  p :     3.127721
      px      :     1.075516
      py      :     1.070037
      dz2     :     0.006692  d :     0.086029
      dxz     :     0.003894
      dyz     :     0.013182
      dx2y2   :     0.035347
      dxy     :     0.026915

 37 C s       :     2.916543  s :     2.916543
      pz      :     0.959495  p :     3.100686
      px      :     1.060034
      py      :     1.081158
      dz2     :     0.006286  d :     0.084524
      dxz     :     0.011535
      dyz     :     0.006360
      dx2y2   :     0.028412
      dxy     :     0.031931

 38 C s       :     2.855646  s :     2.855646
      pz      :     0.998088  p :     3.077421
      px      :     1.048062
      py      :     1.031272
      dz2     :     0.007498  d :     0.105790
      dxz     :     0.013659
      dyz     :     0.011273
      dx2y2   :     0.034657
      dxy     :     0.038704

 39 H s       :     0.872383  s :     0.872383

 40 H s       :     0.870325  s :     0.870325

 41 H s       :     0.856884  s :     0.856884

 42 H s       :     0.873154  s :     0.873154

 43 H s       :     0.879544  s :     0.879544

 44 H s       :     0.876135  s :     0.876135

 45 H s       :     0.845540  s :     0.845540

 46 H s       :     0.846298  s :     0.846298

 47 H s       :     0.858302  s :     0.858302

 48 H s       :     0.857274  s :     0.857274

 49 H s       :     0.869090  s :     0.869090

 50 H s       :     0.839536  s :     0.839536

 51 H s       :     0.844685  s :     0.844685

 52 H s       :     0.649313  s :     0.649313

 53 H s       :     0.839113  s :     0.839113

 54 H s       :     0.837588  s :     0.837588

 55 H s       :     0.867724  s :     0.867724

 56 H s       :     0.860460  s :     0.860460

 57 H s       :     0.866858  s :     0.866858

 58 H s       :     0.861724  s :     0.861724

 59 H s       :     0.864358  s :     0.864358

 60 H s       :     0.864791  s :     0.864791

 61 H s       :     0.852360  s :     0.852360



                      *****************************
                      * MAYER POPULATION ANALYSIS *
                      *****************************

  NA   - Mulliken gross atomic population
  ZA   - Total nuclear charge
  QA   - Mulliken gross atomic charge
  VA   - Mayer's total valence
  BVA  - Mayer's bonded valence
  FA   - Mayer's free valence

  ATOM       NA         ZA         QA         VA         BVA        FA
  0 C      6.4656     6.0000    -0.4656     3.8220     3.8220     0.0000
  1 C      6.0175     6.0000    -0.0175     3.7903     3.7903     0.0000
  2 O      8.5005     8.0000    -0.5005     1.9950     1.9950    -0.0000
  3 C      5.5606     6.0000     0.4394     3.7886     3.7886    -0.0000
  4 N      7.4550     7.0000    -0.4550     2.9382     2.9382    -0.0000
  5 C      5.6796     6.0000     0.3204     3.8970     3.8970     0.0000
  6 N      7.6258     7.0000    -0.6258     2.7842     2.7842     0.0000
  7 C      6.2288     6.0000    -0.2288     3.8035     3.8035     0.0000
  8 C      5.8587     6.0000     0.1413     3.9381     3.9381     0.0000
  9 C      6.1425     6.0000    -0.1425     3.9151     3.9151     0.0000
 10 C      6.1874     6.0000    -0.1874     3.9000     3.9000     0.0000
 11 C      5.6481     6.0000     0.3519     3.8112     3.8112    -0.0000
 12 O      8.5468     8.0000    -0.5468     1.9593     1.9593     0.0000
 13 C      4.9158     6.0000     1.0842     3.9980     3.9980     0.0000
 14 F      9.2809     9.0000    -0.2809     1.0854     1.0854     0.0000
 15 F      9.2888     9.0000    -0.2888     1.0681     1.0681    -0.0000
 16 F      9.2929     9.0000    -0.2929     1.0636     1.0636     0.0000
 17 C      6.1690     6.0000    -0.1690     3.9182     3.9182    -0.0000
 18 C      6.1897     6.0000    -0.1897     3.9406     3.9406    -0.0000
 19 S     14.7801    16.0000     1.2199     5.0490     5.0490     0.0000
 20 O      8.5227     8.0000    -0.5227     1.9157     1.9157     0.0000
 21 O      8.5485     8.0000    -0.5485     1.8790     1.8790    -0.0000
 22 C      6.1367     6.0000    -0.1367     3.8403     3.8403     0.0000
 23 C      6.1442     6.0000    -0.1442     3.9229     3.9229     0.0000
 24 C      6.1478     6.0000    -0.1478     3.8635     3.8635    -0.0000
 25 C      5.9163     6.0000     0.0837     3.9269     3.9269     0.0000
 26 C      5.4707     6.0000     0.5293     3.9517     3.9517    -0.0000
 27 O      8.4435     8.0000    -0.4435     2.0676     2.0676    -0.0000
 28 O      8.6239     8.0000    -0.6239     1.8688     1.8688    -0.0000
 29 C      6.1422     6.0000    -0.1422     3.8966     3.8966     0.0000
 30 C      6.1556     6.0000    -0.1556     3.9000     3.9000     0.0000
 31 C      5.8917     6.0000     0.1083     3.8696     3.8696    -0.0000
 32 C      6.5446     6.0000    -0.5446     3.8354     3.8354     0.0000
 33 C      5.8646     6.0000     0.1354     4.0014     4.0014     0.0000
 34 C      6.2058     6.0000    -0.2058     3.8812     3.8812     0.0000
 35 C      6.1164     6.0000    -0.1164     3.9254     3.9254     0.0000
 36 C      6.1272     6.0000    -0.1272     3.9139     3.9139    -0.0000
 37 C      6.1835     6.0000    -0.1835     3.8827     3.8827     0.0000
 38 C      5.9336     6.0000     0.0664     3.9882     3.9882    -0.0000
 39 H      0.8606     1.0000     0.1394     0.9385     0.9385    -0.0000
 40 H      0.8467     1.0000     0.1533     0.9369     0.9369     0.0000
 41 H      0.8094     1.0000     0.1906     0.9355     0.9355     0.0000
 42 H      0.8496     1.0000     0.1504     0.9304     0.9304    -0.0000
 43 H      0.8512     1.0000     0.1488     0.9363     0.9363     0.0000
 44 H      0.8474     1.0000     0.1526     0.9352     0.9352    -0.0000
 45 H      0.8085     1.0000     0.1915     0.9261     0.9261     0.0000
 46 H      0.8137     1.0000     0.1863     0.9440     0.9440     0.0000
 47 H      0.8496     1.0000     0.1504     0.9500     0.9500    -0.0000
 48 H      0.8567     1.0000     0.1433     0.9372     0.9372    -0.0000
 49 H      0.8735     1.0000     0.1265     0.9407     0.9407    -0.0000
 50 H      0.8124     1.0000     0.1876     0.9381     0.9381     0.0000
 51 H      0.8261     1.0000     0.1739     0.9360     0.9360    -0.0000
 52 H      0.5653     1.0000     0.4347     0.7951     0.7951    -0.0000
 53 H      0.8182     1.0000     0.1818     0.9386     0.9386    -0.0000
 54 H      0.8063     1.0000     0.1937     0.9393     0.9393    -0.0000
 55 H      0.8441     1.0000     0.1559     0.9310     0.9310     0.0000
 56 H      0.8286     1.0000     0.1714     0.9287     0.9287     0.0000
 57 H      0.8434     1.0000     0.1566     0.9428     0.9428     0.0000
 58 H      0.8634     1.0000     0.1366     0.9427     0.9427     0.0000
 59 H      0.8643     1.0000     0.1357     0.9364     0.9364     0.0000
 60 H      0.8648     1.0000     0.1352     0.9370     0.9370    -0.0000
 61 H      0.8425     1.0000     0.1575     0.9412     0.9412    -0.0000

  Mayer bond orders larger than 0.100000
B(  0-C ,  1-C ) :   1.0104 B(  0-C , 39-H ) :   0.9417 B(  0-C , 40-H ) :   0.9471 
B(  0-C , 41-H ) :   0.9328 B(  1-C ,  2-O ) :   0.8762 B(  1-C , 42-H ) :   0.9402 
B(  1-C , 43-H ) :   0.9244 B(  2-O ,  3-C ) :   0.9779 B(  3-C ,  4-N ) :   1.3850 
B(  3-C , 38-C ) :   1.2213 B(  4-N ,  5-C ) :   1.2783 B(  5-C ,  6-N ) :   0.8887 
B(  5-C , 31-C ) :   1.4483 B(  6-N ,  7-C ) :   0.9169 B(  6-N , 19-S ) :   0.7957 
B(  7-C ,  8-C ) :   0.9611 B(  7-C , 44-H ) :   0.9240 B(  7-C , 45-H ) :   0.9126 
B(  8-C ,  9-C ) :   1.4316 B(  8-C , 18-C ) :   1.4248 B(  9-C , 10-C ) :   1.4400 
B(  9-C , 46-H ) :   0.8885 B( 10-C , 11-C ) :   1.3815 B( 10-C , 47-H ) :   0.9109 
B( 11-C , 12-O ) :   0.8210 B( 11-C , 17-C ) :   1.4295 B( 12-O , 13-C ) :   0.9937 
B( 13-C , 14-F ) :   1.0057 B( 13-C , 15-F ) :   0.9753 B( 13-C , 16-F ) :   0.9645 
B( 17-C , 18-C ) :   1.4256 B( 17-C , 48-H ) :   0.9190 B( 18-C , 49-H ) :   0.9234 
B( 19-S , 20-O ) :   1.6625 B( 19-S , 21-O ) :   1.6151 B( 19-S , 22-C ) :   0.8094 
B( 22-C , 23-C ) :   1.4004 B( 22-C , 30-C ) :   1.3766 B( 23-C , 24-C ) :   1.4130 
B( 23-C , 50-H ) :   0.9061 B( 24-C , 25-C ) :   1.3835 B( 24-C , 51-H ) :   0.9147 
B( 25-C , 26-C ) :   1.0077 B( 25-C , 29-C ) :   1.4029 B( 26-C , 27-O ) :   1.8624 
B( 26-C , 28-O ) :   1.0249 B( 28-O , 52-H ) :   0.7415 B( 29-C , 30-C ) :   1.4207 
B( 29-C , 53-H ) :   0.9093 B( 30-C , 54-H ) :   0.8984 B( 31-C , 32-C ) :   1.0008 
B( 31-C , 33-C ) :   1.2532 B( 32-C , 55-H ) :   0.9294 B( 32-C , 56-H ) :   0.9230 
B( 32-C , 57-H ) :   0.9312 B( 33-C , 34-C ) :   1.2965 B( 33-C , 38-C ) :   1.3001 
B( 34-C , 35-C ) :   1.5041 B( 34-C , 37-C ) :   0.1048 B( 34-C , 58-H ) :   0.9167 
B( 35-C , 36-C ) :   1.3587 B( 35-C , 59-H ) :   0.9296 B( 36-C , 37-C ) :   1.4952 
B( 36-C , 60-H ) :   0.9299 B( 37-C , 38-C ) :   1.2967 B( 37-C , 61-H ) :   0.9162 


-------
TIMINGS
-------

Total SCF time: 0 days 0 hours 11 min 14 sec 

Total time                  ....     674.979 sec
Sum of individual times     ....     674.322 sec  ( 99.9%)

SCF preparation             ....       0.406 sec  (  0.1%)
Fock matrix formation       ....     670.427 sec  ( 99.3%)
  Startup                   ....       0.111 sec  (  0.0% of F)
  Split-RI-J                ....      93.080 sec  ( 13.9% of F)
  Chain of spheres X        ....     524.189 sec  ( 78.2% of F)
  XC integration            ....      51.935 sec  (  7.7% of F)
    XC Preparation          ....       0.000 sec  (  0.0% of XC)
    Basis function eval.    ....      20.212 sec  ( 38.9% of XC)
    Density eval.           ....      13.167 sec  ( 25.4% of XC)
    XC-Functional eval.     ....       2.399 sec  (  4.6% of XC)
    XC-Potential eval.      ....      13.901 sec  ( 26.8% of XC)
Diagonalization             ....       0.000 sec  (  0.0%)
Density matrix formation    ....       0.582 sec  (  0.1%)
Total Energy calculation    ....       0.095 sec  (  0.0%)
Population analysis         ....       0.086 sec  (  0.0%)
Orbital Transformation      ....       0.256 sec  (  0.0%)
Orbital Orthonormalization  ....       0.000 sec  (  0.0%)
DIIS solution               ....       1.394 sec  (  0.2%)
SOSCF solution              ....       1.076 sec  (  0.2%)
Finished LeanSCF after 675.1 sec

Maximum memory used throughout the entire LEANSCF-calculation: 106.9 MB

-------------------------   --------------------
FINAL SINGLE POINT ENERGY     -2300.068695200434
-------------------------   --------------------


------------------------------------------------------------------------------
                              ORCA PROPERTY CALCULATIONS
------------------------------------------------------------------------------

GBWName                                 ... /home/nmrbox/aojoawo/Documents/ERDOS/inputs/CHEMBL3687399.gbw
Number of atoms                         ...     62
Number of basis functions               ...    596
Max core memory                         ...   1024 MB

Electric properties:
Dipole moment                           ... YES
Quadrupole moment                       ...  NO
Static polarizability (Dipole/Dipole)   ...  NO
Static polarizability (Dipole/Quad.)    ...  NO
Static polarizability (Quad./Quad.)     ...  NO
Static polarizability (Velocity)        ...  NO

Atomic electric properties:
Dipole moment                           ...  NO
Quadrupole moment                       ...  NO
Static polarizability                   ...  NO

Choice of electric origin               ... Center of mass
Position of electric origin             ...     0.965426    -0.616220    -0.395357

General magnetic properties:
Magnetizability                         ...  NO

EPR properties:
g-Tensor (aka g-matrix)                 ...  NO
Zero-Field splitting spin-orbit         ...  NO
Zero-field splitting spin-spin          ...  NO
Hyperfine couplings                     ...  NO (   0 nuclei)
Quadrupole couplings                    ...  NO (   0 nuclei)
Contact density                         ...  NO (   0 nuclei)

NMR properties:
Chemical shifts                         ...  NO (   0 nuclei)
Spin-rotation constants                 ...  NO (   0 nuclei)
Spin-spin couplings                     ...  NO (   0 nuclei,    0 pairs)

Choice of magnetic origin               ... GIAO
Position of magnetic origin             ...     0.000000     0.000000     0.000000

Properties with geometric perturbations:
SCF Hessian                             ...  NO
IR spectrum                             ...  NO
VCD spectrum                            ...  NO
X-ray spectroscopy properties:
SCF XES/XAS/RIXS spectra                ...  NO


-------------
DIPOLE MOMENT
-------------

Method             : SCF
Type of density    : Electron Density
Multiplicity       :   1
Irrep              :   0
Energy             : -2300.0686952004339219 Eh
Relativity type    : 
Basis              : AO
                                X                 Y                 Z
Electronic contribution:     31.087410489     -29.156502228     -10.071058981
Nuclear contribution   :    -32.130917055      31.064550985      11.936141092
                        -----------------------------------------
Total Dipole Moment    :     -1.043506566       1.908048757       1.865082111
                        -----------------------------------------
Magnitude (a.u.)       :      2.864975967
Magnitude (Debye)      :      7.282190183



--------------------
Rotational spectrum 
--------------------
 
Rotational constants in cm-1:             0.002563             0.002288             0.001293 
Rotational constants in MHz :            76.831983            68.596229            38.772653 

Dipole components along the rotational axes: 
x,y,z [a.u.] :     2.339558    -0.145107     1.647270 
x,y,z [Debye]:     5.946685    -0.368833     4.187027 

 

Dipole moment calculation done in   0.0 sec 

Maximum memory used throughout the entire PROP-calculation: 52.8 MB

--------------------------------
SUGGESTED CITATIONS FOR THIS RUN
--------------------------------

Below you find a list of papers that are relevant to this ORCA run
We neither can nor want to force you to cite these papers, but we appreciate if you do
You receive ORCA, which is the product of decades of hard work by many enthusiastic individuals, for free
The only thing we kindly ask in return is that you cite our papers,
We deeply appreciate it, if you show your appreciation for ORCA by not just citing the generic ORCA reference.

Please note that relegating all ORCA citations to the supporting information does *not* help us.
SI sections are not indexed - citations you put there will not count into any citation statistics
But we need these citations in order to attract the funding resources that allow us to do what we are doing

Therefore, if you are a happy ORCA user, please consider citing a few of the papers listed below in the main body of your paper

In addition to the list printed below, the program has created the file /home/nmrbox/aojoawo/Documents/ERDOS/inputs/CHEMBL3687399.bibtex that contains the list in bibtex format
You can import this file easily into all common literature databanks and citation aid programs


List of essential papers. We consider these as the minimum necessary citations

  1. Neese,F.
     Software update: the ORCA program system, version 5.0
     WIRES Comput. Molec. Sci., 2022 12(1)e1606
     doi.org/10.1002/wcms.1606

List of papers to cite with high priority. The work reported in these papers was absolutely
necessary for this run to complete.
Our perspective: the developers of density functionals and basis sets usually get cited in chemistry papers
Good! But without the algorithms to do something with them, the functionals or basis sets would not do anything.
Hence, in our opinion, the algorithm design and method developments papers are equally worthy of getting cited

  1. Neese,F.
     An improvement of the resolution of the identity approximation for the formation of the Coulomb matrix
     J. Comp. Chem., 2003 24(14)1740-1747
     doi.org/10.1002/jcc.10318
  2. Neese,F.; Wennmohs,F.; Hansen,A.; Becker,U.
     Efficient, approximate and parallel Hartree-Fock and hybrid DFT calculations. A 'chain-of-spheres' algorithm for the Hartree-Fock exchange
     Chem. Phys., 2009 356(1-3)98-109
     doi.org/10.1016/j.chemphys.2008.10.036
  3. Helmich-Paris,B.; de Souza,B.; Neese,F.; Izsák,R.
     An improved chain of spheres for exchange algorithm
     J. Chem. Phys., 2021 155 104109
     doi.org/doi: 10.1063/5.0058766.
  4. Neese,F.
     The SHARK Integral Generation and Digestion System
     J. Comp. Chem., 2022  1-16
     doi.org/10.1002/jcc.26942

List of suggested additional citations. These are papers that are important in the 'surrounding' of 
of this run, or papers that preceded the highly important papers. If you like your results we are grateful for a citation.

  1. Izsak,R.; Neese,F.
     An overlap fitted chain of spheres exchange method
     J. Chem. Phys., 2011 135 144105
     doi.org/10.1063/1.3646921
  2. Izsak,R.; Hansen,A.; Neese,F.
     The resolution of identity and chain of spheres approximations for the LPNO-CCSD singles Fock term
     Molec. Phys., 2012 110 2413-2417
     doi.org/10.1080/00268976.2012.687466
  3. Neese,F.
     The ORCA program system
     WIRES Comput. Molec. Sci., 2012 2(1)73-78
     doi.org/10.1002/wcms.81
  4. Izsak,R.; Neese,F.; Klopper,W.
     Robust fitting techniques in the chain of spheres approximation to the Fock exchange: The role of the complementary space
     J. Chem. Phys., 2013 139 
     doi.org/10.1063/1.4819264
  5. Neese,F.
     Software update: the ORCA program system, version 4.0
     WIRES Comput. Molec. Sci., 2018 8(1)1-6
     doi.org/10.1002/wcms.1327
  6. Neese,F.; Wennmohs,F.; Becker,U.; Riplinger,C.
     The ORCA quantum chemistry program package
     J. Chem. Phys., 2020 152 Art. No. L224108
     doi.org/10.1063/5.0004608

List of optional additional citations

  1. Neese,F.
     Approximate second-order SCF convergence for spin unrestricted wavefunctions
     Chem. Phys. Lett., 2000 325(1-3)93-98
     doi.org/10.1016/s0009-2614(00)00662-x

Timings for individual modules:

Sum of individual times          ...      701.005 sec (=  11.683 min)
Startup calculation              ...       16.030 sec (=   0.267 min)   2.3 %
SCF iterations                   ...      684.749 sec (=  11.412 min)  97.7 %
Property calculations            ...        0.226 sec (=   0.004 min)   0.0 %
                             ****ORCA TERMINATED NORMALLY****
TOTAL RUN TIME: 0 days 0 hours 11 minutes 41 seconds 721 msec
