
                                 *****************
                                 * O   R   C   A *
                                 *****************

                                            #,                                       
                                            ###                                      
                                            ####                                     
                                            #####                                    
                                            ######                                   
                                           ########,                                 
                                     ,,################,,,,,                         
                               ,,#################################,,                 
                          ,,##########################################,,             
                       ,#########################################, ''#####,          
                    ,#############################################,,   '####,        
                  ,##################################################,,,,####,       
                ,###########''''           ''''###############################       
              ,#####''   ,,,,##########,,,,          '''####'''          '####       
            ,##' ,,,,###########################,,,                        '##       
           ' ,,###''''                  '''############,,,                           
         ,,##''                                '''############,,,,        ,,,,,,###''
      ,#''                                            '''#######################'''  
     '                                                          ''''####''''         
             ,#######,   #######,   ,#######,      ##                                
            ,#'     '#,  ##    ##  ,#'     '#,    #''#        ,####,   ,####,        
            ##       ##  ##   ,#'  ##            #'  '#       #'       #'  '#        
            ##       ##  #######   ##           ,######,      #####,   #    #        
            '#,     ,#'  ##    ##  '#,     ,#' ,#      #,     #,   #   #,  ,#        
             '#######'   ##     ##  '#######'  #'      '#     '####' # '####'        



                #########################################################
                #                        -***-                          #
                #          Department of theory and spectroscopy        #
                #                                                       #
                #                      Frank Neese                      #
                #                                                       #
                #     Directorship, Architecture, Infrastructure        #
                #                    SHARK, DRIVERS                     #
                #        Core code/Algorithms in most modules           #
                #                                                       #
                #        Max Planck Institute fuer Kohlenforschung      #
                #                Kaiser Wilhelm Platz 1                 #
                #                 D-45470 Muelheim/Ruhr                 #
                #                      Germany                          #
                #                                                       #
                #                  All rights reserved                  #
                #                        -***-                          #
                #########################################################


                         Program Version 6.0.0  -   RELEASE  -


 With contributions from (in alphabetic order):
   Daniel Aravena         : Magnetic Suceptibility
   Michael Atanasov       : Ab Initio Ligand Field Theory (pilot matlab implementation)
   Alexander A. Auer      : GIAO ZORA, VPT2 properties, NMR spectrum
   Ute Becker             : All parallelization in ORCA, NUMFREQ, NUMCALC
   Giovanni Bistoni       : ED, misc. LED, open-shell LED, HFLD
   Martin Brehm           : Molecular dynamics
   Dmytro Bykov           : pre 5.0 version of the SCF Hessian
   Marcos Casanova-Páez   : Triplet and SCS-CIS(D). UHF-(DLPNO)-IP/EA/STEOM-CCSD. UHF-CVS-IP/STEOM-CCSD
   Vijay G. Chilkuri      : MRCI spin determinant printing, contributions to CSF-ICE
   Pauline Colinet        : FMM embedding
   Dipayan Datta          : RHF DLPNO-CCSD density
   Achintya Kumar Dutta   : EOM-CC, STEOM-CC
   Nicolas Foglia         : Exact transition moments, OPA infrastructure, MCD improvements
   Dmitry Ganyushin       : Spin-Orbit,Spin-Spin,Magnetic field MRCI
   Miquel Garcia          : C-PCM and meta-GGA Hessian, CCSD/C-PCM, Gaussian charge scheme
   Tiago L. C. Gouveia    : GS-ROHF, GS-ROCIS
   Yang Guo               : DLPNO-NEVPT2, F12-NEVPT2, CIM, IAO-localization
   Andreas Hansen         : Spin unrestricted coupled pair/coupled cluster methods
   Ingolf Harden          : AUTO-CI MPn and infrastructure 
   Benjamin Helmich-Paris : MC-RPA, TRAH-(SCF,CASSCF), AVAS, COSX integrals, SCF dyn. polar.
   Lee Huntington         : MR-EOM, pCC
   Robert Izsak           : Overlap fitted RIJCOSX, COSX-SCS-MP3, EOM
   Riya Kayal             : Wick's Theorem for AUTO-CI, AUTO-CI UHF-CCSDT
   Emily Kempfer          : AUTO-CI, RHF CISDT and CCSDT
   Christian Kollmar      : KDIIS, OOCD, Brueckner-CCSD(T), CCSD density, CASPT2, CASPT2-K, improved NEVPT2
   Axel Koslowski         : Symmetry handling
   Simone Kossmann        : Meta GGA functionals, TD-DFT gradient, OOMP2, (MP2 Hessian; deprecated post 5.0)
   Lucas Lang             : DCDCAS
   Marvin Lechner         : AUTO-CI (C++ implementation), FIC-MRCC
   Spencer Leger          : CASSCF response
   Dagmar Lenk            : GEPOL surface, SMD, ORCA-2-JSON
   Dimitrios Liakos       : Extrapolation schemes; Compound Job, initial MDCI parallelization
   Dimitrios Manganas     : Further ROCIS development; embedding schemes. LFT, Crystal Embedding
   Dimitrios Pantazis     : SARC Basis sets
   Anastasios Papadopoulos: AUTO-CI, single reference methods and gradients
   Taras Petrenko         : pre 6.0 DFT Hessian and TD-DFT gradient, (ASA, deprecated), ECA, 1-Electron XAS/XES, NRVS
   Peter Pinski           : DLPNO-MP2, DLPNO-MP2 Gradient
   Christoph Reimann      : Effective Core Potentials
   Marius Retegan         : Local ZFS, SOC
   Christoph Riplinger    : Optimizer, TS searches, QM/MM, DLPNO-CCSD(T), (RO)-DLPNO pert. Triples
   Michael Roemelt        : Original ROCIS implementation
   Masaaki Saitow         : Open-shell DLPNO-CCSD energy and density
   Barbara Sandhoefer     : DKH picture change effects
   Kantharuban Sivalingam : CASSCF convergence/infrastructure, NEVPT2 and variants, FIC-MRCI
   Bernardo de Souza      : ESD, SOC TD-DFT
   Georgi Stoychev        : AutoAux, RI-MP2 NMR, DLPNO-MP2 response, X2C
   Van Anh Tran           : RI-MP2 g-tensors
   Willem Van den Heuvel  : Paramagnetic NMR
   Zikuan Wang            : NOTCH, Electric field optimization 
   Frank Wennmohs         : Technical directorship and infrastructure
   Hang Xu                : AUTO-CI-Response properties 


 We gratefully acknowledge several colleagues who have allowed us to
 interface, adapt or use parts of their codes:
   Stefan Grimme, W. Hujo, H. Kruse, P. Pracht,  : VdW corrections, initial TS optimization,
                  C. Bannwarth, S. Ehlert,         DFT functionals, gCP, sTDA/sTD-DF
                  L. Wittmann, M. Mueller
   Ed Valeev, F. Pavosevic, A. Kumar             : LibInt (2-el integral package), F12 methods
   Garnet Chan, S. Sharma, J. Yang, R. Olivares  : DMRG
   Ulf Ekstrom                                   : XCFun DFT Library
   Mihaly Kallay                                 : mrcc  (arbitrary order and MRCC methods)
   Frank Weinhold                                : gennbo (NPA and NBO analysis)
   Simon Mueller                                 : openCOSMO-RS
   Christopher J. Cramer and Donald G. Truhlar   : smd solvation model
   Lars Goerigk                                  : TD-DFT with DH, B97 family of functionals
   V. Asgeirsson, H. Jonsson                     : NEB implementation
   FAccTs GmbH                                   : IRC, NEB, NEB-TS, DLPNO-Multilevel, CI-OPT
                                                   MM, QMMM, 2- and 3-layer-ONIOM, Crystal-QMMM,
                                                   LR-CPCM, SF, NACMEs, symmetry and pop. for TD-DFT,
                                                   nearIR, NL-DFT gradient (VV10), updates on ESD,
                                                   ML-optimized integration grids, MBIS, APM,
                                                   GOAT, DOCKER, SOLVATOR, interface openCOSMO-RS
   S Lehtola, MJT Oliveira, MAL Marques          : LibXC Library
   Liviu Ungur et al                             : ANISO software


 Your calculation uses the libint2 library for the computation of 2-el integrals
 For citations please refer to: http://libint.valeyev.net

 Your ORCA version has been built with support for libXC version: 6.2.2
 For citations please refer to: https://libxc.gitlab.io

 This ORCA versions uses:
   CBLAS   interface :  Fast vector & matrix operations
   LAPACKE interface :  Fast linear algebra routines
   SCALAPACK package :  Parallel linear algebra routines
   Shared memory     :  Shared parallel matrices
   BLAS/LAPACK       :  OpenBLAS 0.3.27  USE64BITINT DYNAMIC_ARCH NO_AFFINITY SkylakeX SINGLE_THREADED
        Core in use  :  SkylakeX
   Copyright (c) 2011-2014, The OpenBLAS Project


Warning: RI is on but no J-basis has been assigned. Assigning Def2/J (nothing to worry about!)
================================================================================

----- Orbital basis set information -----
Your calculation utilizes the basis: 6-31G*
   H-He, Li-Ne : W. J. Hehre, R. Ditchfield and J.A. Pople, J. Chem. Phys. 56, 2257 (1972).
                 Note: He and Ne are unpublished basis sets taken from the Gaussian program.
                 Note: Li and B from J. D. Dill and J. A. Pople, J. Chem. Phys. 62, 2921 (1975).
   Na - Ar     : M. M. Francl, W. J. Pietro, W. J. Hehre, J. S. Binkley, M. S. Gordon, 
                 D. J. DeFrees and J. A. Pople, J. Chem. Phys. 77, 3654 (1982).
   K - Zn      : V. A. Rassolov, J. A. Pople, M. A. Ratner, and T. L. Windus, J. Chem. Phys. 109, 1223 (1998).

----- AuxJ basis set information -----
Your calculation utilizes the auxiliary basis: def2/J
   F. Weigend, Phys. Chem. Chem. Phys. 8, 1057 (2006).

================================================================================
                                        WARNINGS
                       Please study these warnings very carefully!
================================================================================


================================================================================
                                       INPUT FILE
================================================================================
NAME = /home/nmrbox/aojoawo/Documents/ERDOS/inputs/CHEMBL4240425.inp
|  1> ! B3LYP 6-31G* SP
|  2> 
|  3> * xyz 0 1
|  4> O 1.5203 -1.8646 -1.5062
|  5> C 1.2669 -1.0608 -0.5734
|  6> C 2.2904 -0.0747 -0.1706
|  7> C 1.9108 1.2143 0.2477
|  8> C 2.8717 2.1263 0.6897
|  9> C 4.2195 1.7615 0.7320
| 10> N 5.1502 2.6405 1.1959
| 11> C 6.4635 2.3114 1.2755
| 12> C 6.8935 1.0469 0.8665
| 13> C 5.9665 0.1269 0.3650
| 14> C 4.6136 0.4790 0.2941
| 15> C 3.6488 -0.4263 -0.1725
| 16> N -0.0042 -1.1341 0.0999
| 17> C -0.0868 -0.9579 1.5539
| 18> C -0.7881 -2.1589 2.1748
| 19> C -2.0802 -2.4723 1.4668
| 20> C -3.0664 -3.2017 2.1449
| 21> C -4.2486 -3.5676 1.4976
| 22> C -4.4472 -3.2298 0.1599
| 23> C -3.4679 -2.5211 -0.5319
| 24> C -2.2764 -2.1331 0.1083
| 25> C -1.2383 -1.3458 -0.6732
| 26> C -1.7736 -0.0061 -1.1333
| 27> C -2.5330 0.8089 -0.2796
| 28> C -2.9770 2.0573 -0.6959
| 29> C -2.6592 2.5320 -1.9764
| 30> C -3.1482 3.8948 -2.4031
| 31> F -4.5267 3.9448 -2.3093
| 32> F -2.6049 4.8546 -1.5724
| 33> F -2.7919 4.1814 -3.7083
| 34> C -1.8856 1.7270 -2.8292
| 35> C -1.4531 0.4693 -2.4162
| 36> H 0.8714 1.5108 0.2294
| 37> H 2.5609 3.1147 1.0134
| 38> H 7.1796 3.0278 1.6503
| 39> H 7.9344 0.7814 0.9421
| 40> H 6.3015 -0.8473 0.0421
| 41> H 3.9484 -1.4186 -0.4918
| 42> H -0.6465 -0.0289 1.7883
| 43> H 0.9246 -0.8715 2.0099
| 44> H -0.9780 -1.9497 3.2510
| 45> H -0.1202 -3.0468 2.1082
| 46> H -2.9174 -3.4952 3.1761
| 47> H -5.0081 -4.1238 2.0323
| 48> H -5.3623 -3.5192 -0.3420
| 49> H -3.6386 -2.2714 -1.5702
| 50> H -1.0018 -1.9679 -1.5635
| 51> H -2.7891 0.4737 0.7159
| 52> H -3.5718 2.6597 -0.0201
| 53> H -1.6029 2.0750 -3.8121
| 54> H -0.8426 -0.1248 -3.0804
| 55> *
| 56> 
| 57>                          ****END OF INPUT****
================================================================================

                       ****************************
                       * Single Point Calculation *
                       ****************************

---------------------------------
CARTESIAN COORDINATES (ANGSTROEM)
---------------------------------
  O      1.520300   -1.864600   -1.506200
  C      1.266900   -1.060800   -0.573400
  C      2.290400   -0.074700   -0.170600
  C      1.910800    1.214300    0.247700
  C      2.871700    2.126300    0.689700
  C      4.219500    1.761500    0.732000
  N      5.150200    2.640500    1.195900
  C      6.463500    2.311400    1.275500
  C      6.893500    1.046900    0.866500
  C      5.966500    0.126900    0.365000
  C      4.613600    0.479000    0.294100
  C      3.648800   -0.426300   -0.172500
  N     -0.004200   -1.134100    0.099900
  C     -0.086800   -0.957900    1.553900
  C     -0.788100   -2.158900    2.174800
  C     -2.080200   -2.472300    1.466800
  C     -3.066400   -3.201700    2.144900
  C     -4.248600   -3.567600    1.497600
  C     -4.447200   -3.229800    0.159900
  C     -3.467900   -2.521100   -0.531900
  C     -2.276400   -2.133100    0.108300
  C     -1.238300   -1.345800   -0.673200
  C     -1.773600   -0.006100   -1.133300
  C     -2.533000    0.808900   -0.279600
  C     -2.977000    2.057300   -0.695900
  C     -2.659200    2.532000   -1.976400
  C     -3.148200    3.894800   -2.403100
  F     -4.526700    3.944800   -2.309300
  F     -2.604900    4.854600   -1.572400
  F     -2.791900    4.181400   -3.708300
  C     -1.885600    1.727000   -2.829200
  C     -1.453100    0.469300   -2.416200
  H      0.871400    1.510800    0.229400
  H      2.560900    3.114700    1.013400
  H      7.179600    3.027800    1.650300
  H      7.934400    0.781400    0.942100
  H      6.301500   -0.847300    0.042100
  H      3.948400   -1.418600   -0.491800
  H     -0.646500   -0.028900    1.788300
  H      0.924600   -0.871500    2.009900
  H     -0.978000   -1.949700    3.251000
  H     -0.120200   -3.046800    2.108200
  H     -2.917400   -3.495200    3.176100
  H     -5.008100   -4.123800    2.032300
  H     -5.362300   -3.519200   -0.342000
  H     -3.638600   -2.271400   -1.570200
  H     -1.001800   -1.967900   -1.563500
  H     -2.789100    0.473700    0.715900
  H     -3.571800    2.659700   -0.020100
  H     -1.602900    2.075000   -3.812100
  H     -0.842600   -0.124800   -3.080400

----------------------------
CARTESIAN COORDINATES (A.U.)
----------------------------
  NO LB      ZA    FRAG     MASS         X           Y           Z
   0 O     8.0000    0    15.999    2.872951   -3.523583   -2.846306
   1 C     6.0000    0    12.011    2.394094   -2.004621   -1.083569
   2 C     6.0000    0    12.011    4.328229   -0.141163   -0.322387
   3 C     6.0000    0    12.011    3.610889    2.294694    0.468085
   4 C     6.0000    0    12.011    5.426727    4.018125    1.303344
   5 C     6.0000    0    12.011    7.973699    3.328753    1.383280
   6 N     7.0000    0    14.007    9.732468    4.989822    2.259923
   7 C     6.0000    0    12.011   12.214245    4.367913    2.410346
   8 C     6.0000    0    12.011   13.026827    1.978354    1.637448
   9 C     6.0000    0    12.011   11.275051    0.239806    0.689750
  10 C     6.0000    0    12.011    8.718440    0.905179    0.555768
  11 C     6.0000    0    12.011    6.895233   -0.805590   -0.325978
  12 N     7.0000    0    14.007   -0.007937   -2.143138    0.188784
  13 C     6.0000    0    12.011   -0.164028   -1.810169    2.936445
  14 C     6.0000    0    12.011   -1.489293   -4.079730    4.109776
  15 C     6.0000    0    12.011   -3.931008   -4.671970    2.771850
  16 C     6.0000    0    12.011   -5.794656   -6.050336    4.053274
  17 C     6.0000    0    12.011   -8.028690   -6.741787    2.830054
  18 C     6.0000    0    12.011   -8.403990   -6.103437    0.302167
  19 C     6.0000    0    12.011   -6.553381   -4.764189   -1.005145
  20 C     6.0000    0    12.011   -4.301773   -4.030975    0.204657
  21 C     6.0000    0    12.011   -2.340048   -2.543193   -1.272164
  22 C     6.0000    0    12.011   -3.351618   -0.011527   -2.141627
  23 C     6.0000    0    12.011   -4.786676    1.528599   -0.528367
  24 C     6.0000    0    12.011   -5.625715    3.887734   -1.315060
  25 C     6.0000    0    12.011   -5.025160    4.784787   -3.734855
  26 C     6.0000    0    12.011   -5.949236    7.360105   -4.541201
  27 F     9.0000    0    18.998   -8.554223    7.454592   -4.363945
  28 F     9.0000    0    18.998   -4.922548    9.173864   -2.971405
  29 F     9.0000    0    18.998   -5.275926    7.901701   -7.007671
  30 C     6.0000    0    12.011   -3.563268    3.263557   -5.346413
  31 C     6.0000    0    12.011   -2.745961    0.886848   -4.565956
  32 H     1.0000    0     1.008    1.646707    2.854998    0.433503
  33 H     1.0000    0     1.008    4.839400    5.885930    1.915048
  34 H     1.0000    0     1.008   13.567478    5.721713    3.118615
  35 H     1.0000    0     1.008   14.993843    1.476632    1.780311
  36 H     1.0000    0     1.008   11.908109   -1.601165    0.079557
  37 H     1.0000    0     1.008    7.461395   -2.680765   -0.929367
  38 H     1.0000    0     1.008   -1.221708   -0.054613    3.379397
  39 H     1.0000    0     1.008    1.747241   -1.646896    3.798161
  40 H     1.0000    0     1.008   -1.848152   -3.684399    6.143500
  41 H     1.0000    0     1.008   -0.227145   -5.757618    3.983921
  42 H     1.0000    0     1.008   -5.513087   -6.604971    6.001959
  43 H     1.0000    0     1.008   -9.463937   -7.792853    3.840490
  44 H     1.0000    0     1.008  -10.133278   -6.650324   -0.646286
  45 H     1.0000    0     1.008   -6.875958   -4.292324   -2.967248
  46 H     1.0000    0     1.008   -1.893128   -3.718792   -2.954587
  47 H     1.0000    0     1.008   -5.270635    0.895163    1.352855
  48 H     1.0000    0     1.008   -6.749724    5.026105   -0.037983
  49 H     1.0000    0     1.008   -3.029042    3.921182   -7.203825
  50 H     1.0000    0     1.008   -1.592283   -0.235838   -5.821112

--------------------------------
INTERNAL COORDINATES (ANGSTROEM)
--------------------------------
 O      0   0   0     0.000000000000     0.00000000     0.00000000
 C      1   0   0     1.257148296741     0.00000000     0.00000000
 C      2   1   0     1.477224864399   119.30624481     0.00000000
 C      3   2   1     1.407335088030   120.36915264   144.57314519
 C      4   3   2     1.396580398688   120.43757590   176.91790183
 C      5   4   3     1.396937067301   120.19119396   359.40767747
 N      6   5   4     1.361633834774   120.08012988   181.70013950
 C      7   6   5     1.356244764045   121.68332728   178.70113963
 C      8   7   6     1.396832577656   120.03793748     0.49596662
 C      9   8   7     1.399010811252   119.75490390     0.52108944
 C     10   9   8     1.399764133703   119.54898750   359.21546366
 C     11  10   9     1.402897961364   121.27986961   181.54195807
 N      2   1   3     1.440278094675   119.48651565   181.18438095
 C     13   2   1     1.466964621250   120.45940101   139.91407013
 C     14  13   2     1.523069105458   109.58922618   234.88692584
 C     15  14  13     1.506322000769   111.55656353   310.21514537
 C     16  15  14     1.401582823097   118.97583504   202.14914909
 C     17  16  15     1.396594765850   120.51227922   183.20697127
 C     18  17  16     1.393912511602   120.12622049     1.16405329
 C     19  18  17     1.392792669424   119.98688696   359.72783896
 C     20  19  18     1.407150414846   120.64303588   359.65247919
 C     13   2   1     1.471564918717   120.12251835   318.02836132
 C     22  13   2     1.514276787777   109.19647114   272.81373215
 C     23  22  13     1.403466084378   121.34652427   278.58380237
 C     24  23  22     1.388864374228   120.83895185   177.60400948
 C     25  24  23     1.402147346037   120.37060271   359.26623195
 C     26  25  24     1.509442854168   119.36667987   180.28036374
 F     27  26  25     1.382592018637   109.66218921   302.47915227
 F     27  26  25     1.380743792309   109.27201626    61.95629651
 F     27  26  25     1.382980943470   111.74192092   182.42690649
 C     26  25  24     1.404902060643   119.02362585   359.95779086
 C     31  26  25     1.392635824615   120.56176447     0.74281002
 H      4   3   2     1.081017807439   120.36652447   356.83595338
 H      5   4   3     1.085501216029   119.47131924   180.30006799
 H      8   7   6     1.080047781350   120.09563511   180.18133505
 H      9   8   7     1.076883661312   120.01223929   180.81183239
 H     10   9   8     1.079608748575   119.67032296   179.52538594
 H     12  11  10     1.084606813550   119.88980116   359.65629224
 H     14  13   2     1.109616352619   109.77575583   113.98948470
 H     14  13   2     1.112803181160   111.36477717   354.59473116
 H     15  14  13     1.112669353402   108.94311641   188.18088035
 H     15  14  13     1.113055425394   109.16790494    70.36738292
 H     17  16  15     1.082458632004   120.34134332     2.73882028
 H     18  17  16     1.082636956694   119.96852756   180.51518105
 H     19  18  17     1.083080781844   120.02240642   179.66022578
 H     20  19  18     1.081459879052   118.90643181   179.77461146
 H     22  13   2     1.111564100716   108.83635308    31.80065051
 H     24  23  22     1.081187541549   120.54422190   357.26138376
 H     25  24  23     1.083225941344   119.23619361   179.24643495
 H     31  26  25     1.080331291780   120.78311797   181.57213872
 H     32  31  26     1.080197528233   119.33221705   181.22237448

---------------------------
INTERNAL COORDINATES (A.U.)
---------------------------
 O      0   0   0     0.000000000000     0.00000000     0.00000000
 C      1   0   0     2.375665990567     0.00000000     0.00000000
 C      2   1   0     2.791550431934   119.30624481     0.00000000
 C      3   2   1     2.659477895034   120.36915264   144.57314519
 C      4   3   2     2.639154477523   120.43757590   176.91790183
 C      5   4   3     2.639828483522   120.19119396   359.40767747
 N      6   5   4     2.573115042403   120.08012988   181.70013950
 C      7   6   5     2.562931174610   121.68332728   178.70113963
 C      8   7   6     2.639631026708   120.03793748     0.49596662
 C      9   8   7     2.643747291661   119.75490390     0.52108944
 C     10   9   8     2.645170864783   119.54898750   359.21546366
 C     11  10   9     2.651092940815   121.27986961   181.54195807
 N      2   1   3     2.721731155621   119.48651565   181.18438095
 C     13   2   1     2.772161382315   120.45940101   139.91407013
 C     14  13   2     2.878183492352   109.58922618   234.88692584
 C     15  14  13     2.846536050953   111.55656353   310.21514537
 C     16  15  14     2.648607689661   118.97583504   202.14914909
 C     17  16  15     2.639181627525   120.51227922   183.20697127
 C     18  17  16     2.634112901574   120.12622049     1.16405329
 C     19  18  17     2.631996706544   119.98688696   359.72783896
 C     20  19  18     2.659128913292   120.64303588   359.65247919
 C     13   2   1     2.780854684662   120.12251835   318.02836132
 C     22  13   2     2.861568419852   109.19647114   272.81373215
 C     23  22  13     2.652166537722   121.34652427   278.58380237
 C     24  23  22     2.624573304451   120.83895185   177.60400948
 C     25  24  23     2.649674483415   120.37060271   359.26623195
 C     26  25  24     2.852433609183   119.36667987   180.28036374
 F     27  26  25     2.612720270170   109.66218921   302.47915227
 F     27  26  25     2.609227628576   109.27201626    61.95629651
 F     27  26  25     2.613455231590   111.74192092   182.42690649
 C     26  25  24     2.654880139598   119.02362585   359.95779086
 C     31  26  25     2.631700312809   120.56176447     0.74281002
 H      4   3   2     2.042827601952   120.36652447   356.83595338
 H      5   4   3     2.051300016333   119.47131924   180.30006799
 H      8   7   6     2.040994518302   120.09563511   180.18133505
 H      9   8   7     2.035015197973   120.01223929   180.81183239
 H     10   9   8     2.040164866592   119.67032296   179.52538594
 H     12  11  10     2.049609840595   119.88980116   359.65629224
 H     14  13   2     2.096871020171   109.77575583   113.98948470
 H     14  13   2     2.102893253349   111.36477717   354.59473116
 H     15  14  13     2.102640355537   108.94311641   188.18088035
 H     15  14  13     2.103369925871   109.16790494    70.36738292
 H     17  16  15     2.045550365787   120.34134332     2.73882028
 H     18  17  16     2.045887350614   119.96852756   180.51518105
 H     19  18  17     2.046726058599   120.02240642   179.66022578
 H     20  19  18     2.043662996233   118.90643181   179.77461146
 H     22  13   2     2.100551730651   108.83635308    31.80065051
 H     24  23  22     2.043148352935   120.54422190   357.26138376
 H     25  24  23     2.047000370299   119.23619361   179.24643495
 H     31  26  25     2.041530275370   120.78311797   181.57213872
 H     32  31  26     2.041277498898   119.33221705   181.22237448

---------------------
BASIS SET INFORMATION
---------------------
There are 5 groups of distinct atoms

 Group   1 Type O   : 10s4p1d contracted to 3s2p1d pattern {631/31/1}
 Group   2 Type C   : 10s4p1d contracted to 3s2p1d pattern {631/31/1}
 Group   3 Type N   : 10s4p1d contracted to 3s2p1d pattern {631/31/1}
 Group   4 Type F   : 10s4p1d contracted to 3s2p1d pattern {631/31/1}
 Group   5 Type H   : 4s contracted to 2s pattern {31}

Atom   0O    basis set group =>   1
Atom   1C    basis set group =>   2
Atom   2C    basis set group =>   2
Atom   3C    basis set group =>   2
Atom   4C    basis set group =>   2
Atom   5C    basis set group =>   2
Atom   6N    basis set group =>   3
Atom   7C    basis set group =>   2
Atom   8C    basis set group =>   2
Atom   9C    basis set group =>   2
Atom  10C    basis set group =>   2
Atom  11C    basis set group =>   2
Atom  12N    basis set group =>   3
Atom  13C    basis set group =>   2
Atom  14C    basis set group =>   2
Atom  15C    basis set group =>   2
Atom  16C    basis set group =>   2
Atom  17C    basis set group =>   2
Atom  18C    basis set group =>   2
Atom  19C    basis set group =>   2
Atom  20C    basis set group =>   2
Atom  21C    basis set group =>   2
Atom  22C    basis set group =>   2
Atom  23C    basis set group =>   2
Atom  24C    basis set group =>   2
Atom  25C    basis set group =>   2
Atom  26C    basis set group =>   2
Atom  27F    basis set group =>   4
Atom  28F    basis set group =>   4
Atom  29F    basis set group =>   4
Atom  30C    basis set group =>   2
Atom  31C    basis set group =>   2
Atom  32H    basis set group =>   5
Atom  33H    basis set group =>   5
Atom  34H    basis set group =>   5
Atom  35H    basis set group =>   5
Atom  36H    basis set group =>   5
Atom  37H    basis set group =>   5
Atom  38H    basis set group =>   5
Atom  39H    basis set group =>   5
Atom  40H    basis set group =>   5
Atom  41H    basis set group =>   5
Atom  42H    basis set group =>   5
Atom  43H    basis set group =>   5
Atom  44H    basis set group =>   5
Atom  45H    basis set group =>   5
Atom  46H    basis set group =>   5
Atom  47H    basis set group =>   5
Atom  48H    basis set group =>   5
Atom  49H    basis set group =>   5
Atom  50H    basis set group =>   5
---------------------------------
AUXILIARY/J BASIS SET INFORMATION
---------------------------------
There are 5 groups of distinct atoms

 Group   1 Type O   : 12s5p4d2f1g contracted to 6s4p3d1f1g pattern {711111/2111/211/2/1}
 Group   2 Type C   : 12s5p4d2f1g contracted to 6s4p3d1f1g pattern {711111/2111/211/2/1}
 Group   3 Type N   : 12s5p4d2f1g contracted to 6s4p3d1f1g pattern {711111/2111/211/2/1}
 Group   4 Type F   : 12s5p4d2f1g contracted to 6s4p3d1f1g pattern {711111/2111/211/2/1}
 Group   5 Type H   : 5s2p1d contracted to 3s1p1d pattern {311/2/1}

Atom   0O    basis set group =>   1
Atom   1C    basis set group =>   2
Atom   2C    basis set group =>   2
Atom   3C    basis set group =>   2
Atom   4C    basis set group =>   2
Atom   5C    basis set group =>   2
Atom   6N    basis set group =>   3
Atom   7C    basis set group =>   2
Atom   8C    basis set group =>   2
Atom   9C    basis set group =>   2
Atom  10C    basis set group =>   2
Atom  11C    basis set group =>   2
Atom  12N    basis set group =>   3
Atom  13C    basis set group =>   2
Atom  14C    basis set group =>   2
Atom  15C    basis set group =>   2
Atom  16C    basis set group =>   2
Atom  17C    basis set group =>   2
Atom  18C    basis set group =>   2
Atom  19C    basis set group =>   2
Atom  20C    basis set group =>   2
Atom  21C    basis set group =>   2
Atom  22C    basis set group =>   2
Atom  23C    basis set group =>   2
Atom  24C    basis set group =>   2
Atom  25C    basis set group =>   2
Atom  26C    basis set group =>   2
Atom  27F    basis set group =>   4
Atom  28F    basis set group =>   4
Atom  29F    basis set group =>   4
Atom  30C    basis set group =>   2
Atom  31C    basis set group =>   2
Atom  32H    basis set group =>   5
Atom  33H    basis set group =>   5
Atom  34H    basis set group =>   5
Atom  35H    basis set group =>   5
Atom  36H    basis set group =>   5
Atom  37H    basis set group =>   5
Atom  38H    basis set group =>   5
Atom  39H    basis set group =>   5
Atom  40H    basis set group =>   5
Atom  41H    basis set group =>   5
Atom  42H    basis set group =>   5
Atom  43H    basis set group =>   5
Atom  44H    basis set group =>   5
Atom  45H    basis set group =>   5
Atom  46H    basis set group =>   5
Atom  47H    basis set group =>   5
Atom  48H    basis set group =>   5
Atom  49H    basis set group =>   5
Atom  50H    basis set group =>   5
------------------------------------------------------------------------------
                             ORCA STARTUP CALCULATIONS
                           -- RI-GTO INTEGRALS CHOSEN --
------------------------------------------------------------------------------
------------------------------------------------------------------------------
                   ___                                                        
                  /   \      - P O W E R E D   B Y -                         
                 /     \                                                     
                 |  |  |   _    _      __       _____    __    __             
                 |  |  |  | |  | |    /  \     |  _  \  |  |  /  |          
                  \  \/   | |  | |   /    \    | | | |  |  | /  /          
                 / \  \   | |__| |  /  /\  \   | |_| |  |  |/  /          
                |  |  |   |  __  | /  /__\  \  |    /   |      \           
                |  |  |   | |  | | |   __   |  |    \   |  |\   \          
                \     /   | |  | | |  |  |  |  | |\  \  |  | \   \       
                 \___/    |_|  |_| |__|  |__|  |_| \__\ |__|  \__/        
                                                                              
                      - O R C A' S   B I G   F R I E N D -                    
                                      &                                       
                       - I N T E G R A L  F E E D E R -                       
                                                                              
 v1 FN, 2020, v2 2021, v3 2022-2024                                           
------------------------------------------------------------------------------


----------------------
SHARK INTEGRAL PACKAGE
----------------------

Number of atoms                             ...     51
Number of basis functions                   ...    486
Number of shells                            ...    230
Maximum angular momentum                    ...      2
Integral batch strategy                     ... SHARK/LIBINT Hybrid
RI-J (if used) integral strategy            ... SPLIT-RIJ (Revised 2003 algorithm where possible)
Printlevel                                  ...      1
Contraction scheme used                     ... SEGMENTED contraction
Prescreening option                         ... SCHWARTZ
   Thresh                                   ... 1.000e-10
   Tcut                                     ... 1.000e-11
   Tpresel                                  ... 1.000e-11 
Coulomb Range Separation                    ... NOT USED
Exchange Range Separation                   ... NOT USED
Multipole approximations                    ... NOT USED
Finite Nucleus Model                        ... NOT USED
CABS basis                                  ... NOT available
Auxiliary Coulomb fitting basis             ... AVAILABLE
   # of basis functions in Aux-J            ...   1777
   # of shells in Aux-J                     ...    575
   Maximum angular momentum in Aux-J        ...      4
Auxiliary J/K fitting basis                 ... NOT available
Auxiliary Correlation fitting basis         ... NOT available
Auxiliary 'external' fitting basis          ... NOT available

Checking pre-screening integrals            ... done (  0.0 sec) Dimension = 230
Check shell pair data                       ... done (  0.0 sec)
Shell pair information
Shell pair cut-off parameter TPreSel        ...   1.0e-11
Total number of shell pairs                 ...     26565
Shell pairs after pre-screening             ...     15323
Total number of primitive shell pairs       ...    155575
Primitive shell pairs kept                  ...     46986
          la=0 lb=0:   4957 shell pairs
          la=1 lb=0:   5380 shell pairs
          la=1 lb=1:   1467 shell pairs
          la=2 lb=0:   2086 shell pairs
          la=2 lb=1:   1205 shell pairs
          la=2 lb=2:    228 shell pairs

Calculating one electron integrals          ... done (  0.2 sec)
Calculating RI/J V-Matrix + Cholesky decomp.... done (  0.4 sec)
Calculating Nuclear repulsion               ... done (  0.0 sec) ENN=   3023.264395972488 Eh

Diagonalization of the overlap matrix:
Smallest eigenvalue                        ... 3.727e-04
Time for diagonalization                   ...    0.043 sec
Threshold for overlap eigenvalues          ... 1.000e-07
Number of eigenvalues below threshold      ... 0
Time for construction of square roots      ...    0.032 sec
Total time needed                          ...    0.084 sec

-------------------
DFT GRID GENERATION
-------------------

General Integration Accuracy     IntAcc      ... 4.388
Radial Grid Type                 RadialGrid  ... OptM3 with GC (2021)
Angular Grid (max. ang.)         AngularGrid ... 4 (Lebedev-302)
Angular grid pruning method      GridPruning ... 4 (adaptive)
Weight generation scheme         WeightScheme... mBecke (2022)
Basis function cutoff            BFCut       ... 1.0000e-10
Integration weight cutoff        WCut        ... 1.0000e-14
Partially contracted basis set               ... off
Rotationally invariant grid construction     ... off
Angular grids for H and He will be reduced by one unit

Total number of grid points                  ...   251082
Total number of batches                      ...     3949
Average number of points per batch           ...       63
Average number of grid points per atom       ...     4923

--------------------
COSX GRID GENERATION
--------------------

GRIDX 1
-------
General Integration Accuracy     IntAcc      ... 3.816
Radial Grid Type                 RadialGrid  ... OptM3 with GC (2021)
Angular Grid (max. ang.)         AngularGrid ... 1 (Lebedev-50)
Angular grid pruning method      GridPruning ... 4 (adaptive)
Weight generation scheme         WeightScheme... mBecke (2022)
Basis function cutoff            BFCut       ... 1.0000e-10
Integration weight cutoff        WCut        ... 1.0000e-14
Partially contracted basis set               ... on
Rotationally invariant grid construction     ... off
Angular grids for H and He will be reduced by one unit

Total number of grid points                  ...    31726
Total number of batches                      ...      274
Average number of points per batch           ...      115
Average number of grid points per atom       ...      622
UseSFitting                                  ... on

GRIDX 2
-------
General Integration Accuracy     IntAcc      ... 4.020
Radial Grid Type                 RadialGrid  ... OptM3 with GC (2021)
Angular Grid (max. ang.)         AngularGrid ... 2 (Lebedev-110)
Angular grid pruning method      GridPruning ... 4 (adaptive)
Weight generation scheme         WeightScheme... mBecke (2022)
Basis function cutoff            BFCut       ... 1.0000e-10
Integration weight cutoff        WCut        ... 1.0000e-14
Partially contracted basis set               ... on
Rotationally invariant grid construction     ... off
Angular grids for H and He will be reduced by one unit

Total number of grid points                  ...    69697
Total number of batches                      ...      575
Average number of points per batch           ...      121
Average number of grid points per atom       ...     1367
UseSFitting                                  ... on

GRIDX 3
-------
General Integration Accuracy     IntAcc      ... 4.338
Radial Grid Type                 RadialGrid  ... OptM3 with GC (2021)
Angular Grid (max. ang.)         AngularGrid ... 3 (Lebedev-194)
Angular grid pruning method      GridPruning ... 4 (adaptive)
Weight generation scheme         WeightScheme... mBecke (2022)
Basis function cutoff            BFCut       ... 1.0000e-10
Integration weight cutoff        WCut        ... 1.0000e-14
Partially contracted basis set               ... on
Rotationally invariant grid construction     ... off
Angular grids for H and He will be reduced by one unit

Total number of grid points                  ...   152599
Total number of batches                      ...     1214
Average number of points per batch           ...      125
Average number of grid points per atom       ...     2992
UseSFitting                                  ... on
Initializing property integral containers    ... done (  0.0 sec)

SHARK setup successfully completed in  11.2 seconds

Maximum memory used throughout the entire STARTUP-calculation: 108.1 MB
-------------------------------------------------------------------------------
                                 ORCA GUESS
                   Start orbitals & Density for SCF / CASSCF
-------------------------------------------------------------------------------

------------
SCF SETTINGS
------------
Hamiltonian:
 Density Functional     Method          .... DFT(GTOs)
 Exchange Functional    Exchange        .... B88
   X-Alpha parameter    XAlpha          ....  0.666667
   Becke's b parameter  XBeta           ....  0.004200
 Correlation Functional Correlation     .... LYP
 LDA part of GGA corr.  LDAOpt          .... VWN-5
 Gradients option       PostSCFGGA      .... off
 Hybrid DFT is turned on
   Fraction HF Exchange ScalHFX         ....  0.200000
   Scaling of DF-GGA-X  ScalDFX         ....  0.720000
   Scaling of DF-GGA-C  ScalDFC         ....  0.810000
   Scaling of DF-LDA-C  ScalLDAC        ....  1.000000
   Perturbative correction              ....  0.000000
   NL short-range parameter             ....  4.800000
 RI-approximation to the Coulomb term is turned on
   Number of AuxJ basis functions       .... 1777
   RIJ-COSX (HFX calculated with COS-X)).... on


General Settings:
 Integral files         IntName         .... /home/nmrbox/aojoawo/Documents/ERDOS/inputs/CHEMBL4240425
 Hartree-Fock type      HFTyp           .... RHF
 Total Charge           Charge          ....    0
 Multiplicity           Mult            ....    1
 Number of Electrons    NEL             ....  224
 Basis Dimension        Dim             ....  486
 Nuclear Repulsion      ENuc            ....   3023.2643959725 Eh

Convergence Acceleration:
 AO-DIIS                CNVDIIS         .... on
   Start iteration      DIISMaxIt       ....    12
   Startup error        DIISStart       ....  0.200000
   # of expansion vecs  DIISMaxEq       ....     5
   Bias factor          DIISBfac        ....   1.050
   Max. coefficient     DIISMaxC        ....  10.000
 MO-DIIS                CNVKDIIS        .... off
 Trust-Rad. Augm. Hess. CNVTRAH         .... auto
   Auto Start mean grad. ratio tolernc. ....  1.125000
   Auto Start start iteration           ....    50
   Auto Start num. interpolation iter.  ....    10
   Max. Number of Micro iterations      ....    24
   Max. Number of Macro iterations      .... Maxiter - #DIIS iter
   Number of Davidson start vectors     ....     2
   Converg. threshold    (grad. norm)   ....   5.000e-05
   Grad. Scal. Fac. for Micro threshold ....   0.100
   Minimum threshold for Micro iter.    ....   1.000e-02
   NR start threshold (gradient norm)   ....   1.000e-04
   Initial trust radius                 ....   0.400
   Minimum AH scaling param. (alpha)    ....   1.000
   Maximum AH scaling param. (alpha)    .... 1000.000
   Quad. conv. algorithm                .... NR
   White noise on init. David. guess    .... on
   Maximum white noise                  ....   0.010
   Pseudo random numbers                .... off
   Inactive MOs                         .... canonical
   Orbital update algorithm             .... Taylor
   Preconditioner                       .... Diag
   Full preconditioner red. dimension   ....   250
 SOSCF                  CNVSOSCF        .... on
   Start iteration      SOSCFMaxIt      ....   150
   Startup grad/error   SOSCFStart      ....  0.003300
   Hessian update       SOSCFHessUp     .... L-BFGS
 Level Shifting         CNVShift        .... on
   Level shift para.    LevelShift      ....    0.2500
   Turn off err/grad.   ShiftErr        ....    0.0010
 Zerner damping         CNVZerner       .... off
 Static damping         CNVDamp         .... on
   Fraction old density DampFac         ....    0.7000
   Max. Damping (<1)    DampMax         ....    0.9800
   Min. Damping (>=0)   DampMin         ....    0.0000
   Turn off err/grad.   DampErr         ....    0.1000

SCF Procedure:
 Maximum # iterations   MaxIter         ....   125
 SCF integral mode      SCFMode         .... Direct
   Integral package                     .... SHARK and LIBINT hybrid scheme
 Reset frequency        DirectResetFreq ....    20
 Integral Threshold     Thresh          ....  1.000e-10 Eh
 Primitive CutOff       TCut            ....  1.000e-11 Eh

Convergence Tolerance:
 Convergence Check Mode ConvCheckMode   .... Total+1el-Energy
 Convergence forced     ConvForced      .... 0
 Energy Change          TolE            ....  1.000e-06 Eh
 1-El. energy change                    ....  1.000e-03 Eh
 Orbital Gradient       TolG            ....  5.000e-05
 Orbital Rotation angle TolX            ....  5.000e-05
 DIIS Error             TolErr          ....  1.000e-06

------------------------------
INITIAL GUESS: MODEL POTENTIAL
------------------------------
Loading Hartree-Fock densities                     ... done
Calculating cut-offs                               ... done
Initializing the effective Hamiltonian             ... done
Setting up the integral package (SHARK)            ... done
Starting the Coulomb interaction                   ... done (   2.9 sec)
Making the grid                                    ... done (   1.5 sec)
Mapping shells                                     ... done
Starting the XC term evaluation                    ... done (   1.1 sec)
  promolecular density results
     # of electrons  =    223.992219144
     EX              =   -190.822049449
     EC              =     -7.736974578
     EX+EC           =   -198.559024027
Transforming the Hamiltonian                       ... done (   0.0 sec)
Diagonalizing the Hamiltonian                      ... done (   0.0 sec)
Back transforming the eigenvectors                 ... done (   0.0 sec)
Now organizing SCF variables                       ... done
                      ------------------
                      INITIAL GUESS DONE (   5.6 sec)
                      ------------------
             **** ENERGY FILE WAS UPDATED (/home/nmrbox/aojoawo/Documents/ERDOS/inputs/CHEMBL4240425.en.tmp) ****
Finished Guess after   5.9 sec
Maximum memory used throughout the entire GUESS-calculation: 59.1 MB

-------------------------------------------------------------------------------------------
                                      ORCA LEAN-SCF
                              memory conserving SCF solver
-------------------------------------------------------------------------------------------

----------------------------------------D-I-I-S--------------------------------------------
Iteration    Energy (Eh)           Delta-E    RMSDP     MaxDP     DIISErr   Damp  Time(sec)
-------------------------------------------------------------------------------------------
               ***  Starting incremental Fock matrix formation  ***
    1    -1484.9678240165344505     0.00e+00  1.94e-03  9.14e-02  2.67e-01  0.700  57.3
    2    -1485.2624753755249003    -2.95e-01  1.33e-03  4.78e-02  9.40e-02  0.700  25.3
                               ***Turning on AO-DIIS***
    3    -1485.3818284352123555    -1.19e-01  5.85e-04  1.66e-02  3.29e-02  0.700  24.4
    4    -1485.4547742062709403    -7.29e-02  1.01e-03  2.72e-02  1.63e-02  0.000  22.6
    5    -1485.6135106687147527    -1.59e-01  2.04e-04  7.46e-03  6.04e-03  0.000  24.2
                              *** Initializing SOSCF ***
---------------------------------------S-O-S-C-F--------------------------------------
Iteration    Energy (Eh)           Delta-E    RMSDP     MaxDP     MaxGrad    Time(sec)
--------------------------------------------------------------------------------------
    6    -1485.6144732647776436    -9.63e-04  7.09e-05  3.11e-03  2.46e-03    20.2
               *** Restarting incremental Fock matrix formation ***
    7    -1485.6145332354731181    -6.00e-05  6.03e-05  3.74e-03  4.01e-04    56.6
    8    -1485.6144729488055418     6.03e-05  4.05e-05  2.80e-03  1.09e-03    32.2
    9    -1485.6145497264064943    -7.68e-05  7.23e-06  5.02e-04  4.75e-05    29.4
   10    -1485.6145489498217103     7.77e-07  4.74e-06  3.56e-04  1.10e-04    22.2
                 **** Energy Check signals convergence ****

               *****************************************************
               *                     SUCCESS                       *
               *           SCF CONVERGED AFTER  10 CYCLES          *
               *****************************************************

Recomputing exchange energy using gridx3       ... done (   99.947 sec)
Old exchange energy                            :    -38.662341560 Eh
New exchange energy                            :    -38.662380254 Eh
Exchange energy change after final integration :     -0.000038694 Eh
Total energy after final integration           :  -1485.614587644 Eh
             **** ENERGY FILE WAS UPDATED (/home/nmrbox/aojoawo/Documents/ERDOS/inputs/CHEMBL4240425.en.tmp) ****

----------------
TOTAL SCF ENERGY
----------------

Total Energy       :      -1485.61458764398390 Eh          -40425.62813 eV

Components:
Nuclear Repulsion  :       3023.26439597248782 Eh           82267.20660 eV
Electronic Energy  :      -4508.87894492230953 Eh         -122692.83367 eV
One Electron Energy:      -8040.32519980046436 Eh         -218788.37167 eV
Two Electron Energy:       3531.44625487815438 Eh           96095.53800 eV

Virial components:
Potential Energy   :      -2962.51420996628985 Eh          -80614.11000 eV
Kinetic Energy     :       1476.89962232230619 Eh           40188.48187 eV
Virial Ratio       :          2.00590085147965

DFT components:
N(Alpha)           :      111.999799291417 electrons
N(Beta)            :      111.999799291417 electrons
N(Total)           :      223.999598582835 electrons
E(X)               :     -153.609645134285 Eh       
E(C)               :       -9.097249470903 Eh       
E(XC)              :     -162.706894605188 Eh       

---------------
SCF CONVERGENCE
---------------

  Last Energy change         ...   -7.7658e-07  Tolerance :   1.0000e-06
  Last MAX-Density change    ...    3.5605e-04  Tolerance :   1.0000e-05
  Last RMS-Density change    ...    4.7428e-06  Tolerance :   1.0000e-06
  Last DIIS Error            ...    2.4637e-03  Tolerance :   1.0000e-06
  Last Orbital Gradient      ...    1.1035e-04  Tolerance :   5.0000e-05
  Last Orbital Rotation      ...    1.6344e-04  Tolerance :   5.0000e-05


----------------
ORBITAL ENERGIES
----------------

  NO   OCC          E(Eh)            E(eV) 
   0   2.0000     -24.717398      -672.5946 
   1   2.0000     -24.713318      -672.4836 
   2   2.0000     -24.712785      -672.4691 
   3   2.0000     -19.116526      -520.1871 
   4   2.0000     -14.351913      -390.5354 
   5   2.0000     -14.325951      -389.8290 
   6   2.0000     -10.430474      -283.8276 
   7   2.0000     -10.291175      -280.0371 
   8   2.0000     -10.233895      -278.4784 
   9   2.0000     -10.226399      -278.2745 
  10   2.0000     -10.224387      -278.2197 
  11   2.0000     -10.224074      -278.2112 
  12   2.0000     -10.210122      -277.8315 
  13   2.0000     -10.206721      -277.7390 
  14   2.0000     -10.205825      -277.7146 
  15   2.0000     -10.204169      -277.6695 
  16   2.0000     -10.200864      -277.5796 
  17   2.0000     -10.200336      -277.5653 
  18   2.0000     -10.200158      -277.5604 
  19   2.0000     -10.198997      -277.5288 
  20   2.0000     -10.198400      -277.5126 
  21   2.0000     -10.197296      -277.4825 
  22   2.0000     -10.196296      -277.4553 
  23   2.0000     -10.195244      -277.4267 
  24   2.0000     -10.194325      -277.4017 
  25   2.0000     -10.193302      -277.3738 
  26   2.0000     -10.191896      -277.3356 
  27   2.0000     -10.190659      -277.3019 
  28   2.0000     -10.185456      -277.1603 
  29   2.0000     -10.183763      -277.1143 
  30   2.0000     -10.183342      -277.1028 
  31   2.0000     -10.182923      -277.0914 
  32   2.0000      -1.276356       -34.7314 
  33   2.0000      -1.201902       -32.7054 
  34   2.0000      -1.199725       -32.6462 
  35   2.0000      -1.017732       -27.6939 
  36   2.0000      -0.938502       -25.5379 
  37   2.0000      -0.933107       -25.3911 
  38   2.0000      -0.871213       -23.7069 
  39   2.0000      -0.859190       -23.3797 
  40   2.0000      -0.854439       -23.2505 
  41   2.0000      -0.810630       -22.0584 
  42   2.0000      -0.805754       -21.9257 
  43   2.0000      -0.785082       -21.3632 
  44   2.0000      -0.769471       -20.9384 
  45   2.0000      -0.760565       -20.6960 
  46   2.0000      -0.757634       -20.6163 
  47   2.0000      -0.745253       -20.2794 
  48   2.0000      -0.734474       -19.9861 
  49   2.0000      -0.700913       -19.0728 
  50   2.0000      -0.676683       -18.4135 
  51   2.0000      -0.654411       -17.8074 
  52   2.0000      -0.644581       -17.5399 
  53   2.0000      -0.637729       -17.3535 
  54   2.0000      -0.623106       -16.9556 
  55   2.0000      -0.615272       -16.7424 
  56   2.0000      -0.610384       -16.6094 
  57   2.0000      -0.596760       -16.2387 
  58   2.0000      -0.584962       -15.9176 
  59   2.0000      -0.566333       -15.4107 
  60   2.0000      -0.564270       -15.3546 
  61   2.0000      -0.558976       -15.2105 
  62   2.0000      -0.550318       -14.9749 
  63   2.0000      -0.533142       -14.5075 
  64   2.0000      -0.526893       -14.3375 
  65   2.0000      -0.514656       -14.0045 
  66   2.0000      -0.506528       -13.7833 
  67   2.0000      -0.490977       -13.3602 
  68   2.0000      -0.485943       -13.2232 
  69   2.0000      -0.473192       -12.8762 
  70   2.0000      -0.470658       -12.8072 
  71   2.0000      -0.461247       -12.5512 
  72   2.0000      -0.458336       -12.4720 
  73   2.0000      -0.450941       -12.2707 
  74   2.0000      -0.445984       -12.1358 
  75   2.0000      -0.445627       -12.1261 
  76   2.0000      -0.441941       -12.0258 
  77   2.0000      -0.439985       -11.9726 
  78   2.0000      -0.437247       -11.8981 
  79   2.0000      -0.434022       -11.8103 
  80   2.0000      -0.426815       -11.6142 
  81   2.0000      -0.418562       -11.3897 
  82   2.0000      -0.417133       -11.3508 
  83   2.0000      -0.413726       -11.2580 
  84   2.0000      -0.412924       -11.2362 
  85   2.0000      -0.409815       -11.1516 
  86   2.0000      -0.406082       -11.0500 
  87   2.0000      -0.402050       -10.9403 
  88   2.0000      -0.394199       -10.7267 
  89   2.0000      -0.394052       -10.7227 
  90   2.0000      -0.390237       -10.6189 
  91   2.0000      -0.383684       -10.4406 
  92   2.0000      -0.374200       -10.1825 
  93   2.0000      -0.372070       -10.1245 
  94   2.0000      -0.366004        -9.9595 
  95   2.0000      -0.358274        -9.7491 
  96   2.0000      -0.357650        -9.7322 
  97   2.0000      -0.357171        -9.7191 
  98   2.0000      -0.346443        -9.4272 
  99   2.0000      -0.337670        -9.1885 
 100   2.0000      -0.334595        -9.1048 
 101   2.0000      -0.328656        -8.9432 
 102   2.0000      -0.308298        -8.3892 
 103   2.0000      -0.269560        -7.3351 
 104   2.0000      -0.264311        -7.1923 
 105   2.0000      -0.263632        -7.1738 
 106   2.0000      -0.252655        -6.8751 
 107   2.0000      -0.247658        -6.7391 
 108   2.0000      -0.244868        -6.6632 
 109   2.0000      -0.239936        -6.5290 
 110   2.0000      -0.230891        -6.2829 
 111   2.0000      -0.225614        -6.1393 
 112   0.0000      -0.070359        -1.9146 
 113   0.0000      -0.040034        -1.0894 
 114   0.0000      -0.026779        -0.7287 
 115   0.0000      -0.016268        -0.4427 
 116   0.0000      -0.008299        -0.2258 
 117   0.0000       0.001336         0.0364 
 118   0.0000       0.007907         0.2152 
 119   0.0000       0.028764         0.7827 
 120   0.0000       0.084680         2.3043 
 121   0.0000       0.091390         2.4869 
 122   0.0000       0.099565         2.7093 
*Only the first 10 virtual orbitals were printed.

                    ********************************
                    * MULLIKEN POPULATION ANALYSIS *
                    ********************************

-----------------------
MULLIKEN ATOMIC CHARGES
-----------------------
   0 O :   -0.462636
   1 C :    0.444030
   2 C :    0.079780
   3 C :   -0.170918
   4 C :   -0.147429
   5 C :    0.217088
   6 N :   -0.432541
   7 C :    0.020188
   8 C :   -0.151274
   9 C :   -0.146337
  10 C :    0.160589
  11 C :   -0.233542
  12 N :   -0.432929
  13 C :   -0.157499
  14 C :   -0.330201
  15 C :    0.106039
  16 C :   -0.185070
  17 C :   -0.121872
  18 C :   -0.130077
  19 C :   -0.167615
  20 C :    0.092715
  21 C :   -0.135593
  22 C :    0.192060
  23 C :   -0.179469
  24 C :   -0.159088
  25 C :   -0.017600
  26 C :    0.898054
  27 F :   -0.303358
  28 F :   -0.301848
  29 F :   -0.306593
  30 C :   -0.162052
  31 C :   -0.192672
  32 H :    0.154148
  33 H :    0.149287
  34 H :    0.152916
  35 H :    0.136172
  36 H :    0.148003
  37 H :    0.158092
  38 H :    0.138825
  39 H :    0.164348
  40 H :    0.144389
  41 H :    0.165061
  42 H :    0.123866
  43 H :    0.127822
  44 H :    0.130547
  45 H :    0.132251
  46 H :    0.186800
  47 H :    0.144380
  48 H :    0.151449
  49 H :    0.154056
  50 H :    0.155259
Sum of atomic charges:   -0.0000000

--------------------------------
MULLIKEN REDUCED ORBITAL CHARGES
--------------------------------
  0 O s       :     3.887016  s :     3.887016
      pz      :     1.404212  p :     4.550183
      px      :     1.713745
      py      :     1.432226
      dz2     :     0.007853  d :     0.025437
      dxz     :     0.003697
      dyz     :     0.006979
      dx2y2   :     0.003289
      dxy     :     0.003619

  1 C s       :     3.049041  s :     3.049041
      pz      :     0.785579  p :     2.406381
      px      :     0.789259
      py      :     0.831543
      dz2     :     0.016702  d :     0.100548
      dxz     :     0.025007
      dyz     :     0.017277
      dx2y2   :     0.018152
      dxy     :     0.023410

  2 C s       :     3.160702  s :     3.160702
      pz      :     0.983012  p :     2.720425
      px      :     0.872754
      py      :     0.864658
      dz2     :     0.003759  d :     0.039093
      dxz     :     0.005708
      dyz     :     0.005491
      dx2y2   :     0.011093
      dxy     :     0.013042

  3 C s       :     3.215204  s :     3.215204
      pz      :     0.969953  p :     2.919417
      px      :     0.998243
      py      :     0.951221
      dz2     :     0.004702  d :     0.036296
      dxz     :     0.003104
      dyz     :     0.005920
      dx2y2   :     0.012672
      dxy     :     0.009899

  4 C s       :     3.212480  s :     3.212480
      pz      :     0.974262  p :     2.900055
      px      :     0.960084
      py      :     0.965708
      dz2     :     0.003484  d :     0.034894
      dxz     :     0.005810
      dyz     :     0.004051
      dx2y2   :     0.011780
      dxy     :     0.009770

  5 C s       :     3.073193  s :     3.073193
      pz      :     0.933092  p :     2.649556
      px      :     0.828360
      py      :     0.888104
      dz2     :     0.005320  d :     0.060163
      dxz     :     0.009762
      dyz     :     0.007991
      dx2y2   :     0.020397
      dxy     :     0.016692

  6 N s       :     3.693220  s :     3.693220
      pz      :     1.160964  p :     3.703618
      px      :     1.030969
      py      :     1.511684
      dz2     :     0.004670  d :     0.035704
      dxz     :     0.006854
      dyz     :     0.005558
      dx2y2   :     0.007585
      dxy     :     0.011037

  7 C s       :     3.147360  s :     3.147360
      pz      :     0.934942  p :     2.778587
      px      :     0.886096
      py      :     0.957548
      dz2     :     0.004039  d :     0.053865
      dxz     :     0.009185
      dyz     :     0.005316
      dx2y2   :     0.014422
      dxy     :     0.020903

  8 C s       :     3.203257  s :     3.203257
      pz      :     0.987138  p :     2.913146
      px      :     0.999421
      py      :     0.926587
      dz2     :     0.004421  d :     0.034871
      dxz     :     0.003317
      dyz     :     0.005226
      dx2y2   :     0.012420
      dxy     :     0.009487

  9 C s       :     3.196252  s :     3.196252
      pz      :     0.950842  p :     2.913457
      px      :     0.990392
      py      :     0.972223
      dz2     :     0.003718  d :     0.036629
      dxz     :     0.006460
      dyz     :     0.004003
      dx2y2   :     0.011852
      dxy     :     0.010596

 10 C s       :     3.114473  s :     3.114473
      pz      :     0.961132  p :     2.683281
      px      :     0.866889
      py      :     0.855259
      dz2     :     0.004295  d :     0.041658
      dxz     :     0.007061
      dyz     :     0.005635
      dx2y2   :     0.012577
      dxy     :     0.012090

 11 C s       :     3.244937  s :     3.244937
      pz      :     0.960286  p :     2.952351
      px      :     0.994467
      py      :     0.997598
      dz2     :     0.003494  d :     0.036254
      dxz     :     0.006855
      dyz     :     0.003710
      dx2y2   :     0.011553
      dxy     :     0.010641

 12 N s       :     3.548152  s :     3.548152
      pz      :     1.087698  p :     3.851640
      px      :     1.096583
      py      :     1.667359
      dz2     :     0.008232  d :     0.033138
      dxz     :     0.010897
      dyz     :     0.004766
      dx2y2   :     0.004941
      dxy     :     0.004302

 13 C s       :     3.223410  s :     3.223410
      pz      :     0.794960  p :     2.878956
      px      :     1.073171
      py      :     1.010825
      dz2     :     0.017107  d :     0.055132
      dxz     :     0.008090
      dyz     :     0.012795
      dx2y2   :     0.008358
      dxy     :     0.008782

 14 C s       :     3.255562  s :     3.255562
      pz      :     1.019410  p :     3.034168
      px      :     1.014995
      py      :     0.999763
      dz2     :     0.011445  d :     0.040472
      dxz     :     0.005951
      dyz     :     0.004287
      dx2y2   :     0.006917
      dxy     :     0.011871

 15 C s       :     3.137462  s :     3.137462
      pz      :     0.900841  p :     2.715891
      px      :     0.866235
      py      :     0.948814
      dz2     :     0.010416  d :     0.040608
      dxz     :     0.010947
      dyz     :     0.006705
      dx2y2   :     0.006202
      dxy     :     0.006339

 16 C s       :     3.208846  s :     3.208846
      pz      :     0.982616  p :     2.940133
      px      :     0.969446
      py      :     0.988071
      dz2     :     0.010563  d :     0.036090
      dxz     :     0.008427
      dyz     :     0.004775
      dx2y2   :     0.006213
      dxy     :     0.006112

 17 C s       :     3.187551  s :     3.187551
      pz      :     0.944947  p :     2.897921
      px      :     0.966417
      py      :     0.986558
      dz2     :     0.008425  d :     0.036399
      dxz     :     0.011047
      dyz     :     0.006884
      dx2y2   :     0.003788
      dxy     :     0.006255

 18 C s       :     3.188456  s :     3.188456
      pz      :     0.942267  p :     2.905133
      px      :     0.981819
      py      :     0.981047
      dz2     :     0.008601  d :     0.036487
      dxz     :     0.011378
      dyz     :     0.006419
      dx2y2   :     0.005645
      dxy     :     0.004445

 19 C s       :     3.201157  s :     3.201157
      pz      :     0.983387  p :     2.930402
      px      :     0.962444
      py      :     0.984570
      dz2     :     0.010805  d :     0.036057
      dxz     :     0.008386
      dyz     :     0.004505
      dx2y2   :     0.006380
      dxy     :     0.005982

 20 C s       :     3.146992  s :     3.146992
      pz      :     0.884656  p :     2.720997
      px      :     0.875337
      py      :     0.961004
      dz2     :     0.009604  d :     0.039296
      dxz     :     0.010874
      dyz     :     0.007133
      dx2y2   :     0.005445
      dxy     :     0.006239

 21 C s       :     3.224749  s :     3.224749
      pz      :     1.023388  p :     2.850645
      px      :     0.848910
      py      :     0.978347
      dz2     :     0.006763  d :     0.060199
      dxz     :     0.013851
      dyz     :     0.012918
      dx2y2   :     0.012270
      dxy     :     0.014398

 22 C s       :     3.127289  s :     3.127289
      pz      :     0.855818  p :     2.640608
      px      :     0.916636
      py      :     0.868154
      dz2     :     0.009467  d :     0.040043
      dxz     :     0.006995
      dyz     :     0.011158
      dx2y2   :     0.006207
      dxy     :     0.006216

 23 C s       :     3.201372  s :     3.201372
      pz      :     0.993482  p :     2.941911
      px      :     0.990522
      py      :     0.957907
      dz2     :     0.009524  d :     0.036186
      dxz     :     0.004682
      dyz     :     0.009518
      dx2y2   :     0.006244
      dxy     :     0.006219

 24 C s       :     3.200333  s :     3.200333
      pz      :     0.959618  p :     2.922283
      px      :     0.984845
      py      :     0.977819
      dz2     :     0.007635  d :     0.036472
      dxz     :     0.007058
      dyz     :     0.010683
      dx2y2   :     0.004384
      dxy     :     0.006712

 25 C s       :     3.157802  s :     3.157802
      pz      :     0.920895  p :     2.821710
      px      :     0.981890
      py      :     0.918924
      dz2     :     0.009707  d :     0.038088
      dxz     :     0.006608
      dyz     :     0.009679
      dx2y2   :     0.006635
      dxy     :     0.005459

 26 C s       :     2.800687  s :     2.800687
      pz      :     0.634046  p :     2.162576
      px      :     0.657962
      py      :     0.870568
      dz2     :     0.032492  d :     0.138683
      dxz     :     0.025955
      dyz     :     0.026539
      dx2y2   :     0.030753
      dxy     :     0.022943

 27 F s       :     3.978295  s :     3.978295
      pz      :     1.901292  p :     5.308731
      px      :     1.489410
      py      :     1.918030
      dz2     :     0.002310  d :     0.016331
      dxz     :     0.003589
      dyz     :     0.000201
      dx2y2   :     0.006348
      dxy     :     0.003884

 28 F s       :     3.977617  s :     3.977617
      pz      :     1.753817  p :     5.307835
      px      :     1.838218
      py      :     1.715799
      dz2     :     0.002744  d :     0.016396
      dxz     :     0.002555
      dyz     :     0.004917
      dx2y2   :     0.002953
      dxy     :     0.003228

 29 F s       :     3.980311  s :     3.980311
      pz      :     1.536623  p :     5.309978
      px      :     1.879857
      py      :     1.893498
      dz2     :     0.006994  d :     0.016304
      dxz     :     0.004033
      dyz     :     0.003989
      dx2y2   :     0.000715
      dxy     :     0.000573

 30 C s       :     3.209146  s :     3.209146
      pz      :     0.990562  p :     2.916665
      px      :     0.969024
      py      :     0.957079
      dz2     :     0.008709  d :     0.036241
      dxz     :     0.004859
      dyz     :     0.009850
      dx2y2   :     0.006545
      dxy     :     0.006278

 31 C s       :     3.208284  s :     3.208284
      pz      :     0.980904  p :     2.948461
      px      :     0.990575
      py      :     0.976982
      dz2     :     0.007482  d :     0.035927
      dxz     :     0.006872
      dyz     :     0.010643
      dx2y2   :     0.004479
      dxy     :     0.006450

 32 H s       :     0.845852  s :     0.845852

 33 H s       :     0.850713  s :     0.850713

 34 H s       :     0.847084  s :     0.847084

 35 H s       :     0.863828  s :     0.863828

 36 H s       :     0.851997  s :     0.851997

 37 H s       :     0.841908  s :     0.841908

 38 H s       :     0.861175  s :     0.861175

 39 H s       :     0.835652  s :     0.835652

 40 H s       :     0.855611  s :     0.855611

 41 H s       :     0.834939  s :     0.834939

 42 H s       :     0.876134  s :     0.876134

 43 H s       :     0.872178  s :     0.872178

 44 H s       :     0.869453  s :     0.869453

 45 H s       :     0.867749  s :     0.867749

 46 H s       :     0.813200  s :     0.813200

 47 H s       :     0.855620  s :     0.855620

 48 H s       :     0.848551  s :     0.848551

 49 H s       :     0.845944  s :     0.845944

 50 H s       :     0.844741  s :     0.844741



                     *******************************
                     * LOEWDIN POPULATION ANALYSIS *
                     *******************************

----------------------
LOEWDIN ATOMIC CHARGES
----------------------
   0 O :   -0.266896
   1 C :    0.140258
   2 C :   -0.054918
   3 C :   -0.115363
   4 C :   -0.114632
   5 C :    0.020781
   6 N :   -0.130615
   7 C :   -0.059037
   8 C :   -0.150142
   9 C :   -0.087904
  10 C :   -0.030864
  11 C :   -0.085192
  12 N :   -0.108004
  13 C :   -0.152634
  14 C :   -0.227288
  15 C :   -0.028438
  16 C :   -0.131304
  17 C :   -0.127882
  18 C :   -0.129931
  19 C :   -0.124298
  20 C :   -0.023479
  21 C :   -0.042988
  22 C :   -0.010343
  23 C :   -0.129762
  24 C :   -0.109771
  25 C :   -0.071732
  26 C :    0.307769
  27 F :   -0.115223
  28 F :   -0.113856
  29 F :   -0.111909
  30 C :   -0.114124
  31 C :   -0.132121
  32 H :    0.144966
  33 H :    0.146941
  34 H :    0.137180
  35 H :    0.137089
  36 H :    0.141281
  37 H :    0.148079
  38 H :    0.112344
  39 H :    0.138705
  40 H :    0.130711
  41 H :    0.138448
  42 H :    0.130431
  43 H :    0.131595
  44 H :    0.132901
  45 H :    0.134611
  46 H :    0.155503
  47 H :    0.139633
  48 H :    0.142812
  49 H :    0.144741
  50 H :    0.143872

-------------------------------
LOEWDIN REDUCED ORBITAL CHARGES
-------------------------------
  0 O s       :     3.586820  s :     3.586820
      pz      :     1.450141  p :     4.629470
      px      :     1.708382
      py      :     1.470946
      dz2     :     0.012485  d :     0.050607
      dxz     :     0.007350
      dyz     :     0.017989
      dx2y2   :     0.006621
      dxy     :     0.006161

  1 C s       :     2.863872  s :     2.863872
      pz      :     0.904704  p :     2.760977
      px      :     0.928558
      py      :     0.927715
      dz2     :     0.035399  d :     0.234892
      dxz     :     0.061214
      dyz     :     0.042265
      dx2y2   :     0.042563
      dxy     :     0.053452

  2 C s       :     2.879104  s :     2.879104
      pz      :     0.988478  p :     3.075241
      px      :     1.048658
      py      :     1.038105
      dz2     :     0.008170  d :     0.100572
      dxz     :     0.013028
      dyz     :     0.012364
      dx2y2   :     0.030692
      dxy     :     0.036318

  3 C s       :     2.919287  s :     2.919287
      pz      :     0.975639  p :     3.111385
      px      :     1.084580
      py      :     1.051166
      dz2     :     0.008598  d :     0.084691
      dxz     :     0.006515
      dyz     :     0.014099
      dx2y2   :     0.030272
      dxy     :     0.025206

  4 C s       :     2.921094  s :     2.921094
      pz      :     0.985525  p :     3.110836
      px      :     1.055757
      py      :     1.069555
      dz2     :     0.006812  d :     0.082702
      dxz     :     0.013535
      dyz     :     0.007252
      dx2y2   :     0.029034
      dxy     :     0.026070

  5 C s       :     2.846538  s :     2.846538
      pz      :     0.945540  p :     2.983868
      px      :     1.021653
      py      :     1.016675
      dz2     :     0.011225  d :     0.148813
      dxz     :     0.021413
      dyz     :     0.018652
      dx2y2   :     0.053639
      dxy     :     0.043885

  6 N s       :     3.240019  s :     3.240019
      pz      :     1.153405  p :     3.811753
      px      :     1.151821
      py      :     1.506526
      dz2     :     0.008792  d :     0.078844
      dxz     :     0.015766
      dyz     :     0.007845
      dx2y2   :     0.020120
      dxy     :     0.026321

  7 C s       :     2.917043  s :     2.917043
      pz      :     0.944762  p :     3.018444
      px      :     1.020505
      py      :     1.053177
      dz2     :     0.008563  d :     0.123550
      dxz     :     0.018508
      dyz     :     0.010818
      dx2y2   :     0.035885
      dxy     :     0.049775

  8 C s       :     2.925785  s :     2.925785
      pz      :     1.000879  p :     3.140702
      px      :     1.075135
      py      :     1.064688
      dz2     :     0.008500  d :     0.083656
      dxz     :     0.006993
      dyz     :     0.013029
      dx2y2   :     0.029863
      dxy     :     0.025270

  9 C s       :     2.919792  s :     2.919792
      pz      :     0.959384  p :     3.083278
      px      :     1.060833
      py      :     1.063061
      dz2     :     0.007052  d :     0.084835
      dxz     :     0.014897
      dyz     :     0.007424
      dx2y2   :     0.028702
      dxy     :     0.026759

 10 C s       :     2.855973  s :     2.855973
      pz      :     0.974882  p :     3.065775
      px      :     1.046147
      py      :     1.044746
      dz2     :     0.009421  d :     0.109117
      dxz     :     0.016016
      dyz     :     0.013591
      dx2y2   :     0.035263
      dxy     :     0.034826

 11 C s       :     2.919114  s :     2.919114
      pz      :     0.965038  p :     3.082207
      px      :     1.048472
      py      :     1.068697
      dz2     :     0.006583  d :     0.083871
      dxz     :     0.014952
      dyz     :     0.006801
      dx2y2   :     0.029199
      dxy     :     0.026335

 12 N s       :     3.111246  s :     3.111246
      pz      :     1.147178  p :     3.912792
      px      :     1.144116
      py      :     1.621498
      dz2     :     0.022758  d :     0.083967
      dxz     :     0.030171
      dyz     :     0.010190
      dx2y2   :     0.011956
      dxy     :     0.008892

 13 C s       :     2.925583  s :     2.925583
      pz      :     0.916477  p :     3.110719
      px      :     1.108755
      py      :     1.085487
      dz2     :     0.036701  d :     0.116332
      dxz     :     0.017149
      dyz     :     0.028972
      dx2y2   :     0.015641
      dxy     :     0.017869

 14 C s       :     2.931918  s :     2.931918
      pz      :     1.075942  p :     3.209866
      px      :     1.061151
      py      :     1.072773
      dz2     :     0.022998  d :     0.085505
      dxz     :     0.012787
      dyz     :     0.009355
      dx2y2   :     0.015020
      dxy     :     0.025345

 15 C s       :     2.874218  s :     2.874218
      pz      :     1.042678  p :     3.053482
      px      :     1.019736
      py      :     0.991067
      dz2     :     0.026487  d :     0.100738
      dxz     :     0.029348
      dyz     :     0.016446
      dx2y2   :     0.013922
      dxy     :     0.014535

 16 C s       :     2.916572  s :     2.916572
      pz      :     1.064574  p :     3.129934
      px      :     1.053732
      py      :     1.011628
      dz2     :     0.022628  d :     0.084799
      dxz     :     0.021697
      dyz     :     0.009809
      dx2y2   :     0.015102
      dxy     :     0.015563

 17 C s       :     2.916597  s :     2.916597
      pz      :     1.065230  p :     3.125528
      px      :     1.056273
      py      :     1.004025
      dz2     :     0.022261  d :     0.085757
      dxz     :     0.027798
      dyz     :     0.015025
      dx2y2   :     0.008441
      dxy     :     0.012232

 18 C s       :     2.914852  s :     2.914852
      pz      :     1.065043  p :     3.128953
      px      :     1.056331
      py      :     1.007579
      dz2     :     0.022772  d :     0.086126
      dxz     :     0.026923
      dyz     :     0.015955
      dx2y2   :     0.010960
      dxy     :     0.009517

 19 C s       :     2.915045  s :     2.915045
      pz      :     1.068362  p :     3.124593
      px      :     1.046985
      py      :     1.009246
      dz2     :     0.023214  d :     0.084660
      dxz     :     0.021421
      dyz     :     0.009571
      dx2y2   :     0.015143
      dxy     :     0.015311

 20 C s       :     2.877636  s :     2.877636
      pz      :     1.042431  p :     3.047912
      px      :     1.021842
      py      :     0.983639
      dz2     :     0.025081  d :     0.097931
      dxz     :     0.029899
      dyz     :     0.016558
      dx2y2   :     0.012235
      dxy     :     0.014159

 21 C s       :     2.876614  s :     2.876614
      pz      :     1.048004  p :     3.034378
      px      :     0.942791
      py      :     1.043583
      dz2     :     0.013902  d :     0.131995
      dxz     :     0.031514
      dyz     :     0.027480
      dx2y2   :     0.026971
      dxy     :     0.032128

 22 C s       :     2.884770  s :     2.884770
      pz      :     1.047021  p :     3.025385
      px      :     0.968085
      py      :     1.010279
      dz2     :     0.025207  d :     0.100188
      dxz     :     0.017537
      dyz     :     0.028779
      dx2y2   :     0.014054
      dxy     :     0.014612

 23 C s       :     2.914395  s :     2.914395
      pz      :     1.066436  p :     3.130120
      px      :     1.012358
      py      :     1.051327
      dz2     :     0.020794  d :     0.085246
      dxz     :     0.009968
      dyz     :     0.023344
      dx2y2   :     0.015028
      dxy     :     0.016112

 24 C s       :     2.913790  s :     2.913790
      pz      :     1.049484  p :     3.110065
      px      :     1.003319
      py      :     1.057262
      dz2     :     0.019260  d :     0.085917
      dxz     :     0.014521
      dyz     :     0.027442
      dx2y2   :     0.010537
      dxy     :     0.014156

 25 C s       :     2.887432  s :     2.887432
      pz      :     1.062355  p :     3.087580
      px      :     1.021145
      py      :     1.004080
      dz2     :     0.025938  d :     0.096720
      dxz     :     0.017002
      dyz     :     0.025859
      dx2y2   :     0.014910
      dxy     :     0.013012

 26 C s       :     2.849873  s :     2.849873
      pz      :     0.777117  p :     2.511564
      px      :     0.792892
      py      :     0.941556
      dz2     :     0.080492  d :     0.330794
      dxz     :     0.059508
      dyz     :     0.062460
      dx2y2   :     0.076825
      dxy     :     0.051510

 27 F s       :     3.760598  s :     3.760598
      pz      :     1.897133  p :     5.323488
      px      :     1.515244
      py      :     1.911112
      dz2     :     0.004828  d :     0.031138
      dxz     :     0.005622
      dyz     :     0.000295
      dx2y2   :     0.013463
      dxy     :     0.006930

 28 F s       :     3.759893  s :     3.759893
      pz      :     1.758589  p :     5.322638
      px      :     1.839319
      py      :     1.724730
      dz2     :     0.004533  d :     0.031325
      dxz     :     0.004778
      dyz     :     0.010399
      dx2y2   :     0.005656
      dxy     :     0.005959

 29 F s       :     3.757155  s :     3.757155
      pz      :     1.555757  p :     5.323702
      px      :     1.877228
      py      :     1.890718
      dz2     :     0.014235  d :     0.031051
      dxz     :     0.007146
      dyz     :     0.007558
      dx2y2   :     0.001158
      dxy     :     0.000954

 30 C s       :     2.916917  s :     2.916917
      pz      :     1.065726  p :     3.112167
      px      :     0.995465
      py      :     1.050975
      dz2     :     0.019180  d :     0.085040
      dxz     :     0.010160
      dyz     :     0.023848
      dx2y2   :     0.015689
      dxy     :     0.016164

 31 C s       :     2.917596  s :     2.917596
      pz      :     1.056284  p :     3.129869
      px      :     1.015991
      py      :     1.057594
      dz2     :     0.018891  d :     0.084656
      dxz     :     0.013929
      dyz     :     0.027138
      dx2y2   :     0.011036
      dxy     :     0.013661

 32 H s       :     0.855034  s :     0.855034

 33 H s       :     0.853059  s :     0.853059

 34 H s       :     0.862820  s :     0.862820

 35 H s       :     0.862911  s :     0.862911

 36 H s       :     0.858719  s :     0.858719

 37 H s       :     0.851921  s :     0.851921

 38 H s       :     0.887656  s :     0.887656

 39 H s       :     0.861295  s :     0.861295

 40 H s       :     0.869289  s :     0.869289

 41 H s       :     0.861552  s :     0.861552

 42 H s       :     0.869569  s :     0.869569

 43 H s       :     0.868405  s :     0.868405

 44 H s       :     0.867099  s :     0.867099

 45 H s       :     0.865389  s :     0.865389

 46 H s       :     0.844497  s :     0.844497

 47 H s       :     0.860367  s :     0.860367

 48 H s       :     0.857188  s :     0.857188

 49 H s       :     0.855259  s :     0.855259

 50 H s       :     0.856128  s :     0.856128



                      *****************************
                      * MAYER POPULATION ANALYSIS *
                      *****************************

  NA   - Mulliken gross atomic population
  ZA   - Total nuclear charge
  QA   - Mulliken gross atomic charge
  VA   - Mayer's total valence
  BVA  - Mayer's bonded valence
  FA   - Mayer's free valence

  ATOM       NA         ZA         QA         VA         BVA        FA
  0 O      8.4626     8.0000    -0.4626     2.0454     2.0454     0.0000
  1 C      5.5560     6.0000     0.4440     3.9420     3.9420    -0.0000
  2 C      5.9202     6.0000     0.0798     3.8432     3.8432    -0.0000
  3 C      6.1709     6.0000    -0.1709     3.8853     3.8853     0.0000
  4 C      6.1474     6.0000    -0.1474     3.8735     3.8735    -0.0000
  5 C      5.7829     6.0000     0.2171     3.9728     3.9728    -0.0000
  6 N      7.4325     7.0000    -0.4325     2.9620     2.9620     0.0000
  7 C      5.9798     6.0000     0.0202     3.9109     3.9109    -0.0000
  8 C      6.1513     6.0000    -0.1513     3.9122     3.9122    -0.0000
  9 C      6.1463     6.0000    -0.1463     3.8874     3.8874     0.0000
 10 C      5.8394     6.0000     0.1606     3.9506     3.9506     0.0000
 11 C      6.2335     6.0000    -0.2335     3.8695     3.8695     0.0000
 12 N      7.4329     7.0000    -0.4329     2.9986     2.9986     0.0000
 13 C      6.1575     6.0000    -0.1575     3.8370     3.8370    -0.0000
 14 C      6.3302     6.0000    -0.3302     3.8342     3.8342     0.0000
 15 C      5.8940     6.0000     0.1060     3.9704     3.9704     0.0000
 16 C      6.1851     6.0000    -0.1851     3.9284     3.9284    -0.0000
 17 C      6.1219     6.0000    -0.1219     3.9374     3.9374    -0.0000
 18 C      6.1301     6.0000    -0.1301     3.9461     3.9461    -0.0000
 19 C      6.1676     6.0000    -0.1676     3.9059     3.9059    -0.0000
 20 C      5.9073     6.0000     0.0927     3.9480     3.9480    -0.0000
 21 C      6.1356     6.0000    -0.1356     3.8479     3.8479     0.0000
 22 C      5.8079     6.0000     0.1921     3.8862     3.8862     0.0000
 23 C      6.1795     6.0000    -0.1795     3.9102     3.9102     0.0000
 24 C      6.1591     6.0000    -0.1591     3.9384     3.9384    -0.0000
 25 C      6.0176     6.0000    -0.0176     3.9629     3.9629    -0.0000
 26 C      5.1019     6.0000     0.8981     3.9134     3.9134     0.0000
 27 F      9.3034     9.0000    -0.3034     1.0497     1.0497    -0.0000
 28 F      9.3018     9.0000    -0.3018     1.0508     1.0508     0.0000
 29 F      9.3066     9.0000    -0.3066     1.0582     1.0582     0.0000
 30 C      6.1621     6.0000    -0.1621     3.9179     3.9179    -0.0000
 31 C      6.1927     6.0000    -0.1927     3.9156     3.9156    -0.0000
 32 H      0.8459     1.0000     0.1541     0.9417     0.9417     0.0000
 33 H      0.8507     1.0000     0.1493     0.9421     0.9421     0.0000
 34 H      0.8471     1.0000     0.1529     0.9308     0.9308    -0.0000
 35 H      0.8638     1.0000     0.1362     0.9378     0.9378     0.0000
 36 H      0.8520     1.0000     0.1480     0.9329     0.9329    -0.0000
 37 H      0.8419     1.0000     0.1581     0.9421     0.9421     0.0000
 38 H      0.8612     1.0000     0.1388     0.9322     0.9322    -0.0000
 39 H      0.8357     1.0000     0.1643     0.9379     0.9379    -0.0000
 40 H      0.8556     1.0000     0.1444     0.9349     0.9349    -0.0000
 41 H      0.8349     1.0000     0.1651     0.9272     0.9272    -0.0000
 42 H      0.8761     1.0000     0.1239     0.9395     0.9395    -0.0000
 43 H      0.8722     1.0000     0.1278     0.9371     0.9371    -0.0000
 44 H      0.8695     1.0000     0.1305     0.9371     0.9371     0.0000
 45 H      0.8677     1.0000     0.1323     0.9410     0.9410     0.0000
 46 H      0.8132     1.0000     0.1868     0.9349     0.9349     0.0000
 47 H      0.8556     1.0000     0.1444     0.9450     0.9450     0.0000
 48 H      0.8486     1.0000     0.1514     0.9373     0.9373    -0.0000
 49 H      0.8459     1.0000     0.1541     0.9418     0.9418     0.0000
 50 H      0.8447     1.0000     0.1553     0.9371     0.9371    -0.0000

  Mayer bond orders larger than 0.100000
B(  0-O ,  1-C ) :   1.8232 B(  1-C ,  2-C ) :   0.9641 B(  1-C , 12-N ) :   1.0375 
B(  2-C ,  3-C ) :   1.2965 B(  2-C , 11-C ) :   1.4539 B(  3-C ,  4-C ) :   1.5036 
B(  3-C , 32-H ) :   0.9162 B(  4-C ,  5-C ) :   1.3049 B(  4-C , 11-C ) :   0.1017 
B(  4-C , 33-H ) :   0.9169 B(  5-C ,  6-N ) :   1.2551 B(  5-C , 10-C ) :   1.2502 
B(  6-N ,  7-C ) :   1.5120 B(  7-C ,  8-C ) :   1.3247 B(  7-C , 34-H ) :   0.9295 
B(  8-C ,  9-C ) :   1.5125 B(  8-C , 35-H ) :   0.9248 B(  9-C , 10-C ) :   1.2995 
B(  9-C , 36-H ) :   0.9234 B( 10-C , 11-C ) :   1.2499 B( 11-C , 37-H ) :   0.9137 
B( 12-N , 13-C ) :   0.9481 B( 12-N , 21-C ) :   0.9315 B( 13-C , 14-C ) :   0.9843 
B( 13-C , 38-H ) :   0.9188 B( 13-C , 39-H ) :   0.9284 B( 14-C , 15-C ) :   0.9907 
B( 14-C , 40-H ) :   0.9279 B( 14-C , 41-H ) :   0.9196 B( 15-C , 16-C ) :   1.4041 
B( 15-C , 20-C ) :   1.4442 B( 16-C , 17-C ) :   1.4513 B( 16-C , 42-H ) :   0.9258 
B( 17-C , 18-C ) :   1.4377 B( 17-C , 43-H ) :   0.9296 B( 18-C , 19-C ) :   1.4509 
B( 18-C , 44-H ) :   0.9295 B( 19-C , 20-C ) :   1.3937 B( 19-C , 45-H ) :   0.9232 
B( 20-C , 21-C ) :   0.9585 B( 21-C , 22-C ) :   0.9313 B( 21-C , 46-H ) :   0.8974 
B( 22-C , 23-C ) :   1.4064 B( 22-C , 31-C ) :   1.4231 B( 23-C , 24-C ) :   1.4411 
B( 23-C , 47-H ) :   0.9147 B( 24-C , 25-C ) :   1.3985 B( 24-C , 48-H ) :   0.9211 
B( 25-C , 26-C ) :   0.9809 B( 25-C , 30-C ) :   1.4230 B( 26-C , 27-F ) :   0.9650 
B( 26-C , 28-F ) :   0.9693 B( 26-C , 29-F ) :   0.9449 B( 30-C , 31-C ) :   1.4126 
B( 30-C , 49-H ) :   0.9189 B( 31-C , 50-H ) :   0.9193 

-------
TIMINGS
-------

Total SCF time: 0 days 0 hours 6 min 54 sec 

Total time                  ....     414.969 sec
Sum of individual times     ....     414.602 sec  ( 99.9%)

SCF preparation             ....       0.359 sec  (  0.1%)
Fock matrix formation       ....     412.304 sec  ( 99.4%)
  Startup                   ....       0.083 sec  (  0.0% of F)
  Split-RI-J                ....      50.043 sec  ( 12.1% of F)
  Chain of spheres X        ....     325.962 sec  ( 79.1% of F)
  XC integration            ....      35.404 sec  (  8.6% of F)
    Basis function eval.    ....      12.816 sec  ( 36.2% of XC)
    Density eval.           ....       8.769 sec  ( 24.8% of XC)
    XC-Functional eval.     ....       1.529 sec  (  4.3% of XC)
    XC-Potential eval.      ....      10.682 sec  ( 30.2% of XC)
Diagonalization             ....       0.000 sec  (  0.0%)
Density matrix formation    ....       0.315 sec  (  0.1%)
Total Energy calculation    ....       0.152 sec  (  0.0%)
Population analysis         ....       0.071 sec  (  0.0%)
Orbital Transformation      ....       0.168 sec  (  0.0%)
Orbital Orthonormalization  ....       0.000 sec  (  0.0%)
DIIS solution               ....       0.826 sec  (  0.2%)
SOSCF solution              ....       0.407 sec  (  0.1%)
Finished LeanSCF after 415.0 sec

Maximum memory used throughout the entire LEANSCF-calculation: 82.2 MB

-------------------------   --------------------
FINAL SINGLE POINT ENERGY     -1485.614587643984
-------------------------   --------------------


------------------------------------------------------------------------------
                              ORCA PROPERTY CALCULATIONS
------------------------------------------------------------------------------

GBWName                                 ... /home/nmrbox/aojoawo/Documents/ERDOS/inputs/CHEMBL4240425.gbw
Number of atoms                         ...     51
Number of basis functions               ...    486
Max core memory                         ...   1024 MB

Electric properties:
Dipole moment                           ... YES
Quadrupole moment                       ...  NO
Static polarizability (Dipole/Dipole)   ...  NO
Static polarizability (Dipole/Quad.)    ...  NO
Static polarizability (Quad./Quad.)     ...  NO
Static polarizability (Velocity)        ...  NO

Atomic electric properties:
Dipole moment                           ...  NO
Quadrupole moment                       ...  NO
Static polarizability                   ...  NO

Choice of electric origin               ... Center of mass
Position of electric origin             ...    -0.291306     0.858857    -0.635138

General magnetic properties:
Magnetizability                         ...  NO

EPR properties:
g-Tensor (aka g-matrix)                 ...  NO
Zero-Field splitting spin-orbit         ...  NO
Zero-field splitting spin-spin          ...  NO
Hyperfine couplings                     ...  NO (   0 nuclei)
Quadrupole couplings                    ...  NO (   0 nuclei)
Contact density                         ...  NO (   0 nuclei)

NMR properties:
Chemical shifts                         ...  NO (   0 nuclei)
Spin-rotation constants                 ...  NO (   0 nuclei)
Spin-spin couplings                     ...  NO (   0 nuclei,    0 pairs)

Choice of magnetic origin               ... GIAO
Position of magnetic origin             ...     0.000000     0.000000     0.000000

Properties with geometric perturbations:
SCF Hessian                             ...  NO
IR spectrum                             ...  NO
VCD spectrum                            ...  NO
X-ray spectroscopy properties:
SCF XES/XAS/RIXS spectra                ...  NO


-------------
DIPOLE MOMENT
-------------

Method             : SCF
Type of density    : Electron Density
Multiplicity       :   1
Irrep              :   0
Energy             : -1485.6145876439838958 Eh
Relativity type    : 
Basis              : AO
                                X                 Y                 Z
Electronic contribution:    -12.353840007      27.369469045     -18.505493723
Nuclear contribution   :     12.733345407     -28.298667808      19.662241120
                        -----------------------------------------
Total Dipole Moment    :      0.379505399      -0.929198763       1.156747397
                        -----------------------------------------
Magnitude (a.u.)       :      1.531502279
Magnitude (Debye)      :      3.892769429



--------------------
Rotational spectrum 
--------------------
 
Rotational constants in cm-1:             0.005008             0.002972             0.002062 
Rotational constants in MHz :           150.142876            89.091254            61.819187 

Dipole components along the rotational axes: 
x,y,z [a.u.] :     0.578680    -1.296623     0.573931 
x,y,z [Debye]:     1.470887    -3.295755     1.458817 

 

Dipole moment calculation done in   0.0 sec 

Maximum memory used throughout the entire PROP-calculation: 40.0 MB

--------------------------------
SUGGESTED CITATIONS FOR THIS RUN
--------------------------------

Below you find a list of papers that are relevant to this ORCA run
We neither can nor want to force you to cite these papers, but we appreciate if you do
You receive ORCA, which is the product of decades of hard work by many enthusiastic individuals, for free
The only thing we kindly ask in return is that you cite our papers,
We deeply appreciate it, if you show your appreciation for ORCA by not just citing the generic ORCA reference.

Please note that relegating all ORCA citations to the supporting information does *not* help us.
SI sections are not indexed - citations you put there will not count into any citation statistics
But we need these citations in order to attract the funding resources that allow us to do what we are doing

Therefore, if you are a happy ORCA user, please consider citing a few of the papers listed below in the main body of your paper

In addition to the list printed below, the program has created the file /home/nmrbox/aojoawo/Documents/ERDOS/inputs/CHEMBL4240425.bibtex that contains the list in bibtex format
You can import this file easily into all common literature databanks and citation aid programs


List of essential papers. We consider these as the minimum necessary citations

  1. Neese,F.
     Software update: the ORCA program system, version 5.0
     WIRES Comput. Molec. Sci., 2022 12(1)e1606
     doi.org/10.1002/wcms.1606

List of papers to cite with high priority. The work reported in these papers was absolutely
necessary for this run to complete.
Our perspective: the developers of density functionals and basis sets usually get cited in chemistry papers
Good! But without the algorithms to do something with them, the functionals or basis sets would not do anything.
Hence, in our opinion, the algorithm design and method developments papers are equally worthy of getting cited

  1. Neese,F.
     An improvement of the resolution of the identity approximation for the formation of the Coulomb matrix
     J. Comp. Chem., 2003 24(14)1740-1747
     doi.org/10.1002/jcc.10318
  2. Neese,F.; Wennmohs,F.; Hansen,A.; Becker,U.
     Efficient, approximate and parallel Hartree-Fock and hybrid DFT calculations. A 'chain-of-spheres' algorithm for the Hartree-Fock exchange
     Chem. Phys., 2009 356(1-3)98-109
     doi.org/10.1016/j.chemphys.2008.10.036
  3. Helmich-Paris,B.; de Souza,B.; Neese,F.; Izsák,R.
     An improved chain of spheres for exchange algorithm
     J. Chem. Phys., 2021 155 104109
     doi.org/doi: 10.1063/5.0058766.
  4. Neese,F.
     The SHARK Integral Generation and Digestion System
     J. Comp. Chem., 2022  1-16
     doi.org/10.1002/jcc.26942

List of suggested additional citations. These are papers that are important in the 'surrounding' of 
of this run, or papers that preceded the highly important papers. If you like your results we are grateful for a citation.

  1. Izsak,R.; Neese,F.
     An overlap fitted chain of spheres exchange method
     J. Chem. Phys., 2011 135 144105
     doi.org/10.1063/1.3646921
  2. Izsak,R.; Hansen,A.; Neese,F.
     The resolution of identity and chain of spheres approximations for the LPNO-CCSD singles Fock term
     Molec. Phys., 2012 110 2413-2417
     doi.org/10.1080/00268976.2012.687466
  3. Neese,F.
     The ORCA program system
     WIRES Comput. Molec. Sci., 2012 2(1)73-78
     doi.org/10.1002/wcms.81
  4. Izsak,R.; Neese,F.; Klopper,W.
     Robust fitting techniques in the chain of spheres approximation to the Fock exchange: The role of the complementary space
     J. Chem. Phys., 2013 139 
     doi.org/10.1063/1.4819264
  5. Neese,F.
     Software update: the ORCA program system, version 4.0
     WIRES Comput. Molec. Sci., 2018 8(1)1-6
     doi.org/10.1002/wcms.1327
  6. Neese,F.; Wennmohs,F.; Becker,U.; Riplinger,C.
     The ORCA quantum chemistry program package
     J. Chem. Phys., 2020 152 Art. No. L224108
     doi.org/10.1063/5.0004608

List of optional additional citations

  1. Neese,F.
     Approximate second-order SCF convergence for spin unrestricted wavefunctions
     Chem. Phys. Lett., 2000 325(1-3)93-98
     doi.org/10.1016/s0009-2614(00)00662-x

Timings for individual modules:

Sum of individual times          ...      432.493 sec (=   7.208 min)
Startup calculation              ...       11.291 sec (=   0.188 min)   2.6 %
SCF iterations                   ...      421.032 sec (=   7.017 min)  97.4 %
Property calculations            ...        0.169 sec (=   0.003 min)   0.0 %
                             ****ORCA TERMINATED NORMALLY****
TOTAL RUN TIME: 0 days 0 hours 7 minutes 13 seconds 101 msec
