
                                 *****************
                                 * O   R   C   A *
                                 *****************

                                            #,                                       
                                            ###                                      
                                            ####                                     
                                            #####                                    
                                            ######                                   
                                           ########,                                 
                                     ,,################,,,,,                         
                               ,,#################################,,                 
                          ,,##########################################,,             
                       ,#########################################, ''#####,          
                    ,#############################################,,   '####,        
                  ,##################################################,,,,####,       
                ,###########''''           ''''###############################       
              ,#####''   ,,,,##########,,,,          '''####'''          '####       
            ,##' ,,,,###########################,,,                        '##       
           ' ,,###''''                  '''############,,,                           
         ,,##''                                '''############,,,,        ,,,,,,###''
      ,#''                                            '''#######################'''  
     '                                                          ''''####''''         
             ,#######,   #######,   ,#######,      ##                                
            ,#'     '#,  ##    ##  ,#'     '#,    #''#        ,####,   ,####,        
            ##       ##  ##   ,#'  ##            #'  '#       #'       #'  '#        
            ##       ##  #######   ##           ,######,      #####,   #    #        
            '#,     ,#'  ##    ##  '#,     ,#' ,#      #,     #,   #   #,  ,#        
             '#######'   ##     ##  '#######'  #'      '#     '####' # '####'        



                #########################################################
                #                        -***-                          #
                #          Department of theory and spectroscopy        #
                #                                                       #
                #                      Frank Neese                      #
                #                                                       #
                #     Directorship, Architecture, Infrastructure        #
                #                    SHARK, DRIVERS                     #
                #        Core code/Algorithms in most modules           #
                #                                                       #
                #        Max Planck Institute fuer Kohlenforschung      #
                #                Kaiser Wilhelm Platz 1                 #
                #                 D-45470 Muelheim/Ruhr                 #
                #                      Germany                          #
                #                                                       #
                #                  All rights reserved                  #
                #                        -***-                          #
                #########################################################


                         Program Version 6.0.0  -   RELEASE  -


 With contributions from (in alphabetic order):
   Daniel Aravena         : Magnetic Suceptibility
   Michael Atanasov       : Ab Initio Ligand Field Theory (pilot matlab implementation)
   Alexander A. Auer      : GIAO ZORA, VPT2 properties, NMR spectrum
   Ute Becker             : All parallelization in ORCA, NUMFREQ, NUMCALC
   Giovanni Bistoni       : ED, misc. LED, open-shell LED, HFLD
   Martin Brehm           : Molecular dynamics
   Dmytro Bykov           : pre 5.0 version of the SCF Hessian
   Marcos Casanova-Páez   : Triplet and SCS-CIS(D). UHF-(DLPNO)-IP/EA/STEOM-CCSD. UHF-CVS-IP/STEOM-CCSD
   Vijay G. Chilkuri      : MRCI spin determinant printing, contributions to CSF-ICE
   Pauline Colinet        : FMM embedding
   Dipayan Datta          : RHF DLPNO-CCSD density
   Achintya Kumar Dutta   : EOM-CC, STEOM-CC
   Nicolas Foglia         : Exact transition moments, OPA infrastructure, MCD improvements
   Dmitry Ganyushin       : Spin-Orbit,Spin-Spin,Magnetic field MRCI
   Miquel Garcia          : C-PCM and meta-GGA Hessian, CCSD/C-PCM, Gaussian charge scheme
   Tiago L. C. Gouveia    : GS-ROHF, GS-ROCIS
   Yang Guo               : DLPNO-NEVPT2, F12-NEVPT2, CIM, IAO-localization
   Andreas Hansen         : Spin unrestricted coupled pair/coupled cluster methods
   Ingolf Harden          : AUTO-CI MPn and infrastructure 
   Benjamin Helmich-Paris : MC-RPA, TRAH-(SCF,CASSCF), AVAS, COSX integrals, SCF dyn. polar.
   Lee Huntington         : MR-EOM, pCC
   Robert Izsak           : Overlap fitted RIJCOSX, COSX-SCS-MP3, EOM
   Riya Kayal             : Wick's Theorem for AUTO-CI, AUTO-CI UHF-CCSDT
   Emily Kempfer          : AUTO-CI, RHF CISDT and CCSDT
   Christian Kollmar      : KDIIS, OOCD, Brueckner-CCSD(T), CCSD density, CASPT2, CASPT2-K, improved NEVPT2
   Axel Koslowski         : Symmetry handling
   Simone Kossmann        : Meta GGA functionals, TD-DFT gradient, OOMP2, (MP2 Hessian; deprecated post 5.0)
   Lucas Lang             : DCDCAS
   Marvin Lechner         : AUTO-CI (C++ implementation), FIC-MRCC
   Spencer Leger          : CASSCF response
   Dagmar Lenk            : GEPOL surface, SMD, ORCA-2-JSON
   Dimitrios Liakos       : Extrapolation schemes; Compound Job, initial MDCI parallelization
   Dimitrios Manganas     : Further ROCIS development; embedding schemes. LFT, Crystal Embedding
   Dimitrios Pantazis     : SARC Basis sets
   Anastasios Papadopoulos: AUTO-CI, single reference methods and gradients
   Taras Petrenko         : pre 6.0 DFT Hessian and TD-DFT gradient, (ASA, deprecated), ECA, 1-Electron XAS/XES, NRVS
   Peter Pinski           : DLPNO-MP2, DLPNO-MP2 Gradient
   Christoph Reimann      : Effective Core Potentials
   Marius Retegan         : Local ZFS, SOC
   Christoph Riplinger    : Optimizer, TS searches, QM/MM, DLPNO-CCSD(T), (RO)-DLPNO pert. Triples
   Michael Roemelt        : Original ROCIS implementation
   Masaaki Saitow         : Open-shell DLPNO-CCSD energy and density
   Barbara Sandhoefer     : DKH picture change effects
   Kantharuban Sivalingam : CASSCF convergence/infrastructure, NEVPT2 and variants, FIC-MRCI
   Bernardo de Souza      : ESD, SOC TD-DFT
   Georgi Stoychev        : AutoAux, RI-MP2 NMR, DLPNO-MP2 response, X2C
   Van Anh Tran           : RI-MP2 g-tensors
   Willem Van den Heuvel  : Paramagnetic NMR
   Zikuan Wang            : NOTCH, Electric field optimization 
   Frank Wennmohs         : Technical directorship and infrastructure
   Hang Xu                : AUTO-CI-Response properties 


 We gratefully acknowledge several colleagues who have allowed us to
 interface, adapt or use parts of their codes:
   Stefan Grimme, W. Hujo, H. Kruse, P. Pracht,  : VdW corrections, initial TS optimization,
                  C. Bannwarth, S. Ehlert,         DFT functionals, gCP, sTDA/sTD-DF
                  L. Wittmann, M. Mueller
   Ed Valeev, F. Pavosevic, A. Kumar             : LibInt (2-el integral package), F12 methods
   Garnet Chan, S. Sharma, J. Yang, R. Olivares  : DMRG
   Ulf Ekstrom                                   : XCFun DFT Library
   Mihaly Kallay                                 : mrcc  (arbitrary order and MRCC methods)
   Frank Weinhold                                : gennbo (NPA and NBO analysis)
   Simon Mueller                                 : openCOSMO-RS
   Christopher J. Cramer and Donald G. Truhlar   : smd solvation model
   Lars Goerigk                                  : TD-DFT with DH, B97 family of functionals
   V. Asgeirsson, H. Jonsson                     : NEB implementation
   FAccTs GmbH                                   : IRC, NEB, NEB-TS, DLPNO-Multilevel, CI-OPT
                                                   MM, QMMM, 2- and 3-layer-ONIOM, Crystal-QMMM,
                                                   LR-CPCM, SF, NACMEs, symmetry and pop. for TD-DFT,
                                                   nearIR, NL-DFT gradient (VV10), updates on ESD,
                                                   ML-optimized integration grids, MBIS, APM,
                                                   GOAT, DOCKER, SOLVATOR, interface openCOSMO-RS
   S Lehtola, MJT Oliveira, MAL Marques          : LibXC Library
   Liviu Ungur et al                             : ANISO software


 Your calculation uses the libint2 library for the computation of 2-el integrals
 For citations please refer to: http://libint.valeyev.net

 Your ORCA version has been built with support for libXC version: 6.2.2
 For citations please refer to: https://libxc.gitlab.io

 This ORCA versions uses:
   CBLAS   interface :  Fast vector & matrix operations
   LAPACKE interface :  Fast linear algebra routines
   SCALAPACK package :  Parallel linear algebra routines
   Shared memory     :  Shared parallel matrices
   BLAS/LAPACK       :  OpenBLAS 0.3.27  USE64BITINT DYNAMIC_ARCH NO_AFFINITY SkylakeX SINGLE_THREADED
        Core in use  :  SkylakeX
   Copyright (c) 2011-2014, The OpenBLAS Project


Warning: RI is on but no J-basis has been assigned. Assigning Def2/J (nothing to worry about!)
================================================================================

----- Orbital basis set information -----
Your calculation utilizes the basis: 6-31G*
   H-He, Li-Ne : W. J. Hehre, R. Ditchfield and J.A. Pople, J. Chem. Phys. 56, 2257 (1972).
                 Note: He and Ne are unpublished basis sets taken from the Gaussian program.
                 Note: Li and B from J. D. Dill and J. A. Pople, J. Chem. Phys. 62, 2921 (1975).
   Na - Ar     : M. M. Francl, W. J. Pietro, W. J. Hehre, J. S. Binkley, M. S. Gordon, 
                 D. J. DeFrees and J. A. Pople, J. Chem. Phys. 77, 3654 (1982).
   K - Zn      : V. A. Rassolov, J. A. Pople, M. A. Ratner, and T. L. Windus, J. Chem. Phys. 109, 1223 (1998).

----- AuxJ basis set information -----
Your calculation utilizes the auxiliary basis: def2/J
   F. Weigend, Phys. Chem. Chem. Phys. 8, 1057 (2006).

================================================================================
                                        WARNINGS
                       Please study these warnings very carefully!
================================================================================


================================================================================
                                       INPUT FILE
================================================================================
NAME = /home/nmrbox/aojoawo/Documents/ERDOS/inputs/CHEMBL2443080.inp
|  1> ! B3LYP 6-31G* SP
|  2> 
|  3> * xyz 0 1
|  4> O 2.7489 1.6629 0.6501
|  5> C 2.4392 0.5307 0.1886
|  6> N 3.4718 -0.3943 -0.2020
|  7> C 4.8725 -0.0710 -0.2205
|  8> C 5.8100 -1.0550 0.1314
|  9> C 7.1791 -0.7727 0.0977
| 10> C 7.6239 0.4895 -0.3035
| 11> C 6.7006 1.4680 -0.6803
| 12> C 5.3303 1.1900 -0.6467
| 13> N 1.0474 0.1760 0.0741
| 14> C 0.6244 -1.2269 0.1761
| 15> C -0.7603 -1.3358 0.8282
| 16> C -1.8082 -0.4132 0.1692
| 17> C -2.1612 -0.9182 -1.2595
| 18> C -3.3465 -0.1536 -1.8678
| 19> C -4.4874 -0.0149 -0.8944
| 20> C -5.7734 0.3011 -1.3592
| 21> C -6.8311 0.4477 -0.4567
| 22> C -6.6100 0.2878 0.9139
| 23> C -5.3292 -0.0124 1.3861
| 24> C -4.2645 -0.1535 0.4895
| 25> O -2.9882 -0.4551 0.9792
| 26> C -1.2671 1.0381 0.1767
| 27> C 0.1102 1.1599 -0.4841
| 28> H 3.2088 -1.3765 -0.4380
| 29> H 5.4772 -2.0376 0.4415
| 30> H 7.8952 -1.5336 0.3801
| 31> H 8.6840 0.7061 -0.3320
| 32> H 7.0471 2.4397 -1.0081
| 33> H 4.6353 1.9493 -0.9792
| 34> H 0.6157 -1.6881 -0.8342
| 35> H 1.3350 -1.7993 0.8110
| 36> H -1.1022 -2.3932 0.7908
| 37> H -0.6629 -1.0634 1.9030
| 38> H -1.2944 -0.8448 -1.9475
| 39> H -2.4408 -1.9937 -1.2028
| 40> H -3.0203 0.8566 -2.1933
| 41> H -3.6917 -0.6990 -2.7731
| 42> H -5.9563 0.4301 -2.4188
| 43> H -7.8226 0.6854 -0.8199
| 44> H -7.4307 0.3998 1.6106
| 45> H -5.1620 -0.1309 2.4491
| 46> H -1.9779 1.7316 -0.3187
| 47> H -1.1761 1.3805 1.2315
| 48> H 0.0275 1.0104 -1.5810
| 49> H 0.4807 2.1954 -0.3216
| 50> *
| 51> 
| 52>                          ****END OF INPUT****
================================================================================

                       ****************************
                       * Single Point Calculation *
                       ****************************

---------------------------------
CARTESIAN COORDINATES (ANGSTROEM)
---------------------------------
  O      2.748900    1.662900    0.650100
  C      2.439200    0.530700    0.188600
  N      3.471800   -0.394300   -0.202000
  C      4.872500   -0.071000   -0.220500
  C      5.810000   -1.055000    0.131400
  C      7.179100   -0.772700    0.097700
  C      7.623900    0.489500   -0.303500
  C      6.700600    1.468000   -0.680300
  C      5.330300    1.190000   -0.646700
  N      1.047400    0.176000    0.074100
  C      0.624400   -1.226900    0.176100
  C     -0.760300   -1.335800    0.828200
  C     -1.808200   -0.413200    0.169200
  C     -2.161200   -0.918200   -1.259500
  C     -3.346500   -0.153600   -1.867800
  C     -4.487400   -0.014900   -0.894400
  C     -5.773400    0.301100   -1.359200
  C     -6.831100    0.447700   -0.456700
  C     -6.610000    0.287800    0.913900
  C     -5.329200   -0.012400    1.386100
  C     -4.264500   -0.153500    0.489500
  O     -2.988200   -0.455100    0.979200
  C     -1.267100    1.038100    0.176700
  C      0.110200    1.159900   -0.484100
  H      3.208800   -1.376500   -0.438000
  H      5.477200   -2.037600    0.441500
  H      7.895200   -1.533600    0.380100
  H      8.684000    0.706100   -0.332000
  H      7.047100    2.439700   -1.008100
  H      4.635300    1.949300   -0.979200
  H      0.615700   -1.688100   -0.834200
  H      1.335000   -1.799300    0.811000
  H     -1.102200   -2.393200    0.790800
  H     -0.662900   -1.063400    1.903000
  H     -1.294400   -0.844800   -1.947500
  H     -2.440800   -1.993700   -1.202800
  H     -3.020300    0.856600   -2.193300
  H     -3.691700   -0.699000   -2.773100
  H     -5.956300    0.430100   -2.418800
  H     -7.822600    0.685400   -0.819900
  H     -7.430700    0.399800    1.610600
  H     -5.162000   -0.130900    2.449100
  H     -1.977900    1.731600   -0.318700
  H     -1.176100    1.380500    1.231500
  H      0.027500    1.010400   -1.581000
  H      0.480700    2.195400   -0.321600

----------------------------
CARTESIAN COORDINATES (A.U.)
----------------------------
  NO LB      ZA    FRAG     MASS         X           Y           Z
   0 O     8.0000    0    15.999    5.194668    3.142426    1.228511
   1 C     6.0000    0    12.011    4.609420    1.002878    0.356402
   2 N     7.0000    0    14.007    6.560751   -0.745119   -0.381725
   3 C     6.0000    0    12.011    9.207691   -0.134171   -0.416685
   4 C     6.0000    0    12.011   10.979309   -1.993661    0.248310
   5 C     6.0000    0    12.011   13.566533   -1.460191    0.184626
   6 C     6.0000    0    12.011   14.407083    0.925021   -0.573532
   7 C     6.0000    0    12.011   12.662299    2.774118   -1.285581
   8 C     6.0000    0    12.011   10.072807    2.248774   -1.222086
   9 N     7.0000    0    14.007    1.979299    0.332592    0.140029
  10 C     6.0000    0    12.011    1.179945   -2.318505    0.332781
  11 C     6.0000    0    12.011   -1.436759   -2.524296    1.565071
  12 C     6.0000    0    12.011   -3.417003   -0.780835    0.319742
  13 C     6.0000    0    12.011   -4.084076   -1.735147   -2.380110
  14 C     6.0000    0    12.011   -6.323969   -0.290262   -3.529630
  15 C     6.0000    0    12.011   -8.479957   -0.028157   -1.690171
  16 C     6.0000    0    12.011  -10.910145    0.568997   -2.568516
  17 C     6.0000    0    12.011  -12.908908    0.846030   -0.863038
  18 C     6.0000    0    12.011  -12.491090    0.543863    1.727021
  19 C     6.0000    0    12.011  -10.070729   -0.023433    2.619349
  20 C     6.0000    0    12.011   -8.058737   -0.290073    0.925021
  21 O     8.0000    0    15.999   -5.646880   -0.860014    1.850420
  22 C     6.0000    0    12.011   -2.394472    1.961725    0.333915
  23 C     6.0000    0    12.011    0.208248    2.191893   -0.914816
  24 H     1.0000    0     1.008    6.063753   -2.601208   -0.827700
  25 H     1.0000    0     1.008   10.350408   -3.850506    0.834314
  26 H     1.0000    0     1.008   14.919766   -2.898084    0.718285
  27 H     1.0000    0     1.008   16.410382    1.334336   -0.627389
  28 H     1.0000    0     1.008   13.317089    4.610365   -1.905033
  29 H     1.0000    0     1.008    8.759448    3.683643   -1.850420
  30 H     1.0000    0     1.008    1.163504   -3.190047   -1.576410
  31 H     1.0000    0     1.008    2.522784   -3.400184    1.532568
  32 H     1.0000    0     1.008   -2.082856   -4.522493    1.494395
  33 H     1.0000    0     1.008   -1.252699   -2.009535    3.596149
  34 H     1.0000    0     1.008   -2.446062   -1.596441   -3.680242
  35 H     1.0000    0     1.008   -4.612444   -3.767547   -2.272963
  36 H     1.0000    0     1.008   -5.707540    1.618739   -4.144736
  37 H     1.0000    0     1.008   -6.976302   -1.320919   -5.240400
  38 H     1.0000    0     1.008  -11.255776    0.812771   -4.570870
  39 H     1.0000    0     1.008  -14.782572    1.295218   -1.549386
  40 H     1.0000    0     1.008  -14.041988    0.755513    3.043593
  41 H     1.0000    0     1.008   -9.754766   -0.247365    4.628128
  42 H     1.0000    0     1.008   -3.737689    3.272250   -0.602256
  43 H     1.0000    0     1.008   -2.222507    2.608767    2.327198
  44 H     1.0000    0     1.008    0.051967    1.909379   -2.987657
  45 H     1.0000    0     1.008    0.908391    4.148705   -0.607736

--------------------------------
INTERNAL COORDINATES (ANGSTROEM)
--------------------------------
 O      0   0   0     0.000000000000     0.00000000     0.00000000
 C      1   0   0     1.261258569842     0.00000000     0.00000000
 N      2   1   0     1.440297233213   119.98022849     0.00000000
 C      3   2   1     1.437645863904   123.88828464   353.92908702
 C      4   3   2     1.403921600375   119.32531890   144.31101082
 C      5   4   3     1.398307473341   120.41648141   178.82649907
 C      6   5   4     1.397124661582   120.06810106   359.21277804
 C      7   6   5     1.397112515154   119.98579409   359.55970591
 C      8   7   6     1.398618979565   120.11858982     0.50353788
 N      2   1   3     1.440843357204   119.16020128   179.30804157
 C     10   2   1     1.468829945909   120.51666222   209.42293484
 C     11  10   2     1.534434003143   110.92704956   146.89407516
 C     12  11  10     1.543880231754   112.87359860    50.81250620
 C     13  12  11     1.555897711934   110.60874646    69.69444598
 C     14  13  12     1.536091839702   112.15666152   171.55124375
 C     15  14  13     1.506120201046   111.98858511   313.64254734
 C     16  15  14     1.403456818003   120.05331523   198.12655681
 C     17  16  15     1.398115553164   120.20076604   180.83244333
 C     18  17  16     1.397496898029   120.09270752     0.38093785
 C     19  18  17     1.397691496719   120.05927238     0.32615176
 C     20  19  18     1.399066424442   120.16659363     0.00000000
 O     21  20  19     1.399896546178   119.43051617   180.03868708
 C     13  12  11     1.548908373662   108.70801980   305.30641726
 C     10   2   1     1.469009969333   118.78867360    45.10293006
 H      3   2   1     1.043830369361   119.01165285   170.40898351
 H      5   4   3     1.082783731869   120.17122609   358.19694189
 H      6   5   4     1.082366749305   119.97171282   179.38044669
 H      7   6   5     1.082376930648   120.01100149   180.17777359
 H      8   7   6     1.082458304047   119.92312312   181.10725128
 H      9   8   7     1.081719806604   118.85400442   182.34845025
 H     11  10   2     1.110624698087   109.61560438   269.17995177
 H     11  10   2     1.111616898936   110.32722880    28.11470733
 H     12  11  10     1.111930362028   109.30971250   173.82590800
 H     12  11  10     1.113051463321   108.30261352   290.05230894
 H     14  13  12     1.109086921751   111.76625630   294.22330476
 H     14  13  12     1.112695510910   108.90140239    52.19378012
 H     15  14  13     1.110342618294   110.01466407    75.23061788
 H     15  14  13     1.111841845768   108.53272161   192.45810719
 H     17  16  15     1.082979949030   120.37145878     1.04489614
 H     18  17  16     1.082352890697   119.96245883   180.37870467
 H     19  18  17     1.082350858086   119.96678400   180.12206344
 H     20  19  18     1.082574288444   119.78683725   179.72345112
 H     23  13  12     1.109774774448   111.07622378   178.18828163
 H     23  13  12     1.112709216282   108.75281719   295.02322252
 H     24  10   2     1.110125736122   109.43797287    91.62039915
 H     24  10   2     1.111726922405   110.83564567   333.67214670

---------------------------
INTERNAL COORDINATES (A.U.)
---------------------------
 O      0   0   0     0.000000000000     0.00000000     0.00000000
 C      1   0   0     2.383433281063     0.00000000     0.00000000
 N      2   1   0     2.721767322216   119.98022849     0.00000000
 C      3   2   1     2.716756960343   123.88828464   353.92908702
 C      4   3   2     2.653027338206   119.32531890   144.31101082
 C      5   4   3     2.642418175629   120.41648141   178.82649907
 C      6   5   4     2.640182985337   120.06810106   359.21277804
 C      7   6   5     2.640160031915   119.98579409   359.55970591
 C      8   7   6     2.643006837083   120.11858982     0.50353788
 N      2   1   3     2.722799346996   119.16020128   179.30804157
 C     10   2   1     2.775686335071   120.51666222   209.42293484
 C     11  10   2     2.899660036516   110.92704956   146.89407516
 C     12  11  10     2.917510821589   112.87359860    50.81250620
 C     13  12  11     2.940220567949   110.60874646    69.69444598
 C     14  13  12     2.902792893589   112.15666152   171.55124375
 C     15  14  13     2.846154704744   111.98858511   313.64254734
 C     16  15  14     2.652149026811   120.05331523   198.12655681
 C     17  16  15     2.642055499056   120.20076604   180.83244333
 C     18  17  16     2.640886410279   120.09270752     0.38093785
 C     19  18  17     2.641254148509   120.05927238     0.32615176
 C     20  19  18     2.643852385359   120.16659363     0.00000000
 O     21  20  19     2.645421088098   119.43051617   180.03868708
 C     13  12  11     2.927012632758   108.70801980   305.30641726
 C     10   2   1     2.776026530040   118.78867360    45.10293006
 H      3   2   1     1.972553528362   119.01165285   170.40898351
 H      5   4   3     2.046164715497   120.17122609   358.19694189
 H      6   5   4     2.045376732648   119.97171282   179.38044669
 H      7   6   5     2.045395972600   120.01100149   180.17777359
 H      8   7   6     2.045549746037   119.92312312   181.10725128
 H      9   8   7     2.044154188120   118.85400442   182.34845025
 H     11  10   2     2.098776516953   109.61560438   269.17995177
 H     11  10   2     2.100651504828   110.32722880    28.11470733
 H     12  11  10     2.101243864225   109.30971250   173.82590800
 H     12  11  10     2.103362438636   108.30261352   290.05230894
 H     14  13  12     2.095870540824   111.76625630   294.22330476
 H     14  13  12     2.102689786064   108.90140239    52.19378012
 H     15  14  13     2.098243463397   110.01466407    75.23061788
 H     15  14  13     2.101076592734   108.53272161   192.45810719
 H     17  16  15     2.046535512194   120.37145878     1.04489614
 H     18  17  16     2.045350543675   119.96245883   180.37870467
 H     19  18  17     2.045346702598   119.96678400   180.12206344
 H     20  19  18     2.045768924784   119.78683725   179.72345112
 H     23  13  12     2.097170394040   111.07622378   178.18828163
 H     23  13  12     2.102715685464   108.75281719   295.02322252
 H     24  10   2     2.097833615488   109.43797287    91.62039915
 H     24  10   2     2.100859419052   110.83564567   333.67214670

---------------------
BASIS SET INFORMATION
---------------------
There are 4 groups of distinct atoms

 Group   1 Type O   : 10s4p1d contracted to 3s2p1d pattern {631/31/1}
 Group   2 Type C   : 10s4p1d contracted to 3s2p1d pattern {631/31/1}
 Group   3 Type N   : 10s4p1d contracted to 3s2p1d pattern {631/31/1}
 Group   4 Type H   : 4s contracted to 2s pattern {31}

Atom   0O    basis set group =>   1
Atom   1C    basis set group =>   2
Atom   2N    basis set group =>   3
Atom   3C    basis set group =>   2
Atom   4C    basis set group =>   2
Atom   5C    basis set group =>   2
Atom   6C    basis set group =>   2
Atom   7C    basis set group =>   2
Atom   8C    basis set group =>   2
Atom   9N    basis set group =>   3
Atom  10C    basis set group =>   2
Atom  11C    basis set group =>   2
Atom  12C    basis set group =>   2
Atom  13C    basis set group =>   2
Atom  14C    basis set group =>   2
Atom  15C    basis set group =>   2
Atom  16C    basis set group =>   2
Atom  17C    basis set group =>   2
Atom  18C    basis set group =>   2
Atom  19C    basis set group =>   2
Atom  20C    basis set group =>   2
Atom  21O    basis set group =>   1
Atom  22C    basis set group =>   2
Atom  23C    basis set group =>   2
Atom  24H    basis set group =>   4
Atom  25H    basis set group =>   4
Atom  26H    basis set group =>   4
Atom  27H    basis set group =>   4
Atom  28H    basis set group =>   4
Atom  29H    basis set group =>   4
Atom  30H    basis set group =>   4
Atom  31H    basis set group =>   4
Atom  32H    basis set group =>   4
Atom  33H    basis set group =>   4
Atom  34H    basis set group =>   4
Atom  35H    basis set group =>   4
Atom  36H    basis set group =>   4
Atom  37H    basis set group =>   4
Atom  38H    basis set group =>   4
Atom  39H    basis set group =>   4
Atom  40H    basis set group =>   4
Atom  41H    basis set group =>   4
Atom  42H    basis set group =>   4
Atom  43H    basis set group =>   4
Atom  44H    basis set group =>   4
Atom  45H    basis set group =>   4
---------------------------------
AUXILIARY/J BASIS SET INFORMATION
---------------------------------
There are 4 groups of distinct atoms

 Group   1 Type O   : 12s5p4d2f1g contracted to 6s4p3d1f1g pattern {711111/2111/211/2/1}
 Group   2 Type C   : 12s5p4d2f1g contracted to 6s4p3d1f1g pattern {711111/2111/211/2/1}
 Group   3 Type N   : 12s5p4d2f1g contracted to 6s4p3d1f1g pattern {711111/2111/211/2/1}
 Group   4 Type H   : 5s2p1d contracted to 3s1p1d pattern {311/2/1}

Atom   0O    basis set group =>   1
Atom   1C    basis set group =>   2
Atom   2N    basis set group =>   3
Atom   3C    basis set group =>   2
Atom   4C    basis set group =>   2
Atom   5C    basis set group =>   2
Atom   6C    basis set group =>   2
Atom   7C    basis set group =>   2
Atom   8C    basis set group =>   2
Atom   9N    basis set group =>   3
Atom  10C    basis set group =>   2
Atom  11C    basis set group =>   2
Atom  12C    basis set group =>   2
Atom  13C    basis set group =>   2
Atom  14C    basis set group =>   2
Atom  15C    basis set group =>   2
Atom  16C    basis set group =>   2
Atom  17C    basis set group =>   2
Atom  18C    basis set group =>   2
Atom  19C    basis set group =>   2
Atom  20C    basis set group =>   2
Atom  21O    basis set group =>   1
Atom  22C    basis set group =>   2
Atom  23C    basis set group =>   2
Atom  24H    basis set group =>   4
Atom  25H    basis set group =>   4
Atom  26H    basis set group =>   4
Atom  27H    basis set group =>   4
Atom  28H    basis set group =>   4
Atom  29H    basis set group =>   4
Atom  30H    basis set group =>   4
Atom  31H    basis set group =>   4
Atom  32H    basis set group =>   4
Atom  33H    basis set group =>   4
Atom  34H    basis set group =>   4
Atom  35H    basis set group =>   4
Atom  36H    basis set group =>   4
Atom  37H    basis set group =>   4
Atom  38H    basis set group =>   4
Atom  39H    basis set group =>   4
Atom  40H    basis set group =>   4
Atom  41H    basis set group =>   4
Atom  42H    basis set group =>   4
Atom  43H    basis set group =>   4
Atom  44H    basis set group =>   4
Atom  45H    basis set group =>   4
------------------------------------------------------------------------------
                             ORCA STARTUP CALCULATIONS
                           -- RI-GTO INTEGRALS CHOSEN --
------------------------------------------------------------------------------
------------------------------------------------------------------------------
                   ___                                                        
                  /   \      - P O W E R E D   B Y -                         
                 /     \                                                     
                 |  |  |   _    _      __       _____    __    __             
                 |  |  |  | |  | |    /  \     |  _  \  |  |  /  |          
                  \  \/   | |  | |   /    \    | | | |  |  | /  /          
                 / \  \   | |__| |  /  /\  \   | |_| |  |  |/  /          
                |  |  |   |  __  | /  /__\  \  |    /   |      \           
                |  |  |   | |  | | |   __   |  |    \   |  |\   \          
                \     /   | |  | | |  |  |  |  | |\  \  |  | \   \       
                 \___/    |_|  |_| |__|  |__|  |_| \__\ |__|  \__/        
                                                                              
                      - O R C A' S   B I G   F R I E N D -                    
                                      &                                       
                       - I N T E G R A L  F E E D E R -                       
                                                                              
 v1 FN, 2020, v2 2021, v3 2022-2024                                           
------------------------------------------------------------------------------


----------------------
SHARK INTEGRAL PACKAGE
----------------------

Number of atoms                             ...     46
Number of basis functions                   ...    380
Number of shells                            ...    188
Maximum angular momentum                    ...      2
Integral batch strategy                     ... SHARK/LIBINT Hybrid
RI-J (if used) integral strategy            ... SPLIT-RIJ (Revised 2003 algorithm where possible)
Printlevel                                  ...      1
Contraction scheme used                     ... SEGMENTED contraction
Prescreening option                         ... SCHWARTZ
   Thresh                                   ... 1.000e-10
   Tcut                                     ... 1.000e-11
   Tpresel                                  ... 1.000e-11 
Coulomb Range Separation                    ... NOT USED
Exchange Range Separation                   ... NOT USED
Multipole approximations                    ... NOT USED
Finite Nucleus Model                        ... NOT USED
CABS basis                                  ... NOT available
Auxiliary Coulomb fitting basis             ... AVAILABLE
   # of basis functions in Aux-J            ...   1418
   # of shells in Aux-J                     ...    470
   Maximum angular momentum in Aux-J        ...      4
Auxiliary J/K fitting basis                 ... NOT available
Auxiliary Correlation fitting basis         ... NOT available
Auxiliary 'external' fitting basis          ... NOT available

Checking pre-screening integrals            ... done (  0.0 sec) Dimension = 188
Check shell pair data                       ... done (  0.0 sec)
Shell pair information
Shell pair cut-off parameter TPreSel        ...   1.0e-11
Total number of shell pairs                 ...     17766
Shell pairs after pre-screening             ...     10786
Total number of primitive shell pairs       ...    101146
Primitive shell pairs kept                  ...     34179
          la=0 lb=0:   3951 shell pairs
          la=1 lb=0:   3633 shell pairs
          la=1 lb=1:    837 shell pairs
          la=2 lb=0:   1501 shell pairs
          la=2 lb=1:    714 shell pairs
          la=2 lb=2:    150 shell pairs

Calculating one electron integrals          ... done (  0.1 sec)
Calculating RI/J V-Matrix + Cholesky decomp.... done (  0.2 sec)
Calculating Nuclear repulsion               ... done (  0.0 sec) ENN=   1924.381593024274 Eh

Diagonalization of the overlap matrix:
Smallest eigenvalue                        ... 4.478e-04
Time for diagonalization                   ...    0.021 sec
Threshold for overlap eigenvalues          ... 1.000e-07
Number of eigenvalues below threshold      ... 0
Time for construction of square roots      ...    0.021 sec
Total time needed                          ...    0.051 sec

-------------------
DFT GRID GENERATION
-------------------

General Integration Accuracy     IntAcc      ... 4.388
Radial Grid Type                 RadialGrid  ... OptM3 with GC (2021)
Angular Grid (max. ang.)         AngularGrid ... 4 (Lebedev-302)
Angular grid pruning method      GridPruning ... 4 (adaptive)
Weight generation scheme         WeightScheme... mBecke (2022)
Basis function cutoff            BFCut       ... 1.0000e-10
Integration weight cutoff        WCut        ... 1.0000e-14
Partially contracted basis set               ... off
Rotationally invariant grid construction     ... off
Angular grids for H and He will be reduced by one unit

Total number of grid points                  ...   212943
Total number of batches                      ...     3353
Average number of points per batch           ...       63
Average number of grid points per atom       ...     4629

--------------------
COSX GRID GENERATION
--------------------

GRIDX 1
-------
General Integration Accuracy     IntAcc      ... 3.816
Radial Grid Type                 RadialGrid  ... OptM3 with GC (2021)
Angular Grid (max. ang.)         AngularGrid ... 1 (Lebedev-50)
Angular grid pruning method      GridPruning ... 4 (adaptive)
Weight generation scheme         WeightScheme... mBecke (2022)
Basis function cutoff            BFCut       ... 1.0000e-10
Integration weight cutoff        WCut        ... 1.0000e-14
Partially contracted basis set               ... on
Rotationally invariant grid construction     ... off
Angular grids for H and He will be reduced by one unit

Total number of grid points                  ...    27070
Total number of batches                      ...      240
Average number of points per batch           ...      112
Average number of grid points per atom       ...      588
UseSFitting                                  ... on

GRIDX 2
-------
General Integration Accuracy     IntAcc      ... 4.020
Radial Grid Type                 RadialGrid  ... OptM3 with GC (2021)
Angular Grid (max. ang.)         AngularGrid ... 2 (Lebedev-110)
Angular grid pruning method      GridPruning ... 4 (adaptive)
Weight generation scheme         WeightScheme... mBecke (2022)
Basis function cutoff            BFCut       ... 1.0000e-10
Integration weight cutoff        WCut        ... 1.0000e-14
Partially contracted basis set               ... on
Rotationally invariant grid construction     ... off
Angular grids for H and He will be reduced by one unit

Total number of grid points                  ...    58165
Total number of batches                      ...      476
Average number of points per batch           ...      122
Average number of grid points per atom       ...     1264
UseSFitting                                  ... on

GRIDX 3
-------
General Integration Accuracy     IntAcc      ... 4.338
Radial Grid Type                 RadialGrid  ... OptM3 with GC (2021)
Angular Grid (max. ang.)         AngularGrid ... 3 (Lebedev-194)
Angular grid pruning method      GridPruning ... 4 (adaptive)
Weight generation scheme         WeightScheme... mBecke (2022)
Basis function cutoff            BFCut       ... 1.0000e-10
Integration weight cutoff        WCut        ... 1.0000e-14
Partially contracted basis set               ... on
Rotationally invariant grid construction     ... off
Angular grids for H and He will be reduced by one unit

Total number of grid points                  ...   127022
Total number of batches                      ...     1018
Average number of points per batch           ...      124
Average number of grid points per atom       ...     2761
UseSFitting                                  ... on
Initializing property integral containers    ... done (  0.0 sec)

SHARK setup successfully completed in   9.9 seconds

Maximum memory used throughout the entire STARTUP-calculation: 88.3 MB
-------------------------------------------------------------------------------
                                 ORCA GUESS
                   Start orbitals & Density for SCF / CASSCF
-------------------------------------------------------------------------------

------------
SCF SETTINGS
------------
Hamiltonian:
 Density Functional     Method          .... DFT(GTOs)
 Exchange Functional    Exchange        .... B88
   X-Alpha parameter    XAlpha          ....  0.666667
   Becke's b parameter  XBeta           ....  0.004200
 Correlation Functional Correlation     .... LYP
 LDA part of GGA corr.  LDAOpt          .... VWN-5
 Gradients option       PostSCFGGA      .... off
 Hybrid DFT is turned on
   Fraction HF Exchange ScalHFX         ....  0.200000
   Scaling of DF-GGA-X  ScalDFX         ....  0.720000
   Scaling of DF-GGA-C  ScalDFC         ....  0.810000
   Scaling of DF-LDA-C  ScalLDAC        ....  1.000000
   Perturbative correction              ....  0.000000
   NL short-range parameter             ....  4.800000
 RI-approximation to the Coulomb term is turned on
   Number of AuxJ basis functions       .... 1418
   RIJ-COSX (HFX calculated with COS-X)).... on


General Settings:
 Integral files         IntName         .... /home/nmrbox/aojoawo/Documents/ERDOS/inputs/CHEMBL2443080
 Hartree-Fock type      HFTyp           .... RHF
 Total Charge           Charge          ....    0
 Multiplicity           Mult            ....    1
 Number of Electrons    NEL             ....  172
 Basis Dimension        Dim             ....  380
 Nuclear Repulsion      ENuc            ....   1924.3815930243 Eh

Convergence Acceleration:
 AO-DIIS                CNVDIIS         .... on
   Start iteration      DIISMaxIt       ....    12
   Startup error        DIISStart       ....  0.200000
   # of expansion vecs  DIISMaxEq       ....     5
   Bias factor          DIISBfac        ....   1.050
   Max. coefficient     DIISMaxC        ....  10.000
 MO-DIIS                CNVKDIIS        .... off
 Trust-Rad. Augm. Hess. CNVTRAH         .... auto
   Auto Start mean grad. ratio tolernc. ....  1.125000
   Auto Start start iteration           ....    50
   Auto Start num. interpolation iter.  ....    10
   Max. Number of Micro iterations      ....    24
   Max. Number of Macro iterations      .... Maxiter - #DIIS iter
   Number of Davidson start vectors     ....     2
   Converg. threshold    (grad. norm)   ....   5.000e-05
   Grad. Scal. Fac. for Micro threshold ....   0.100
   Minimum threshold for Micro iter.    ....   1.000e-02
   NR start threshold (gradient norm)   ....   1.000e-04
   Initial trust radius                 ....   0.400
   Minimum AH scaling param. (alpha)    ....   1.000
   Maximum AH scaling param. (alpha)    .... 1000.000
   Quad. conv. algorithm                .... NR
   White noise on init. David. guess    .... on
   Maximum white noise                  ....   0.010
   Pseudo random numbers                .... off
   Inactive MOs                         .... canonical
   Orbital update algorithm             .... Taylor
   Preconditioner                       .... Diag
   Full preconditioner red. dimension   ....   250
 SOSCF                  CNVSOSCF        .... on
   Start iteration      SOSCFMaxIt      ....   150
   Startup grad/error   SOSCFStart      ....  0.003300
   Hessian update       SOSCFHessUp     .... L-BFGS
 Level Shifting         CNVShift        .... on
   Level shift para.    LevelShift      ....    0.2500
   Turn off err/grad.   ShiftErr        ....    0.0010
 Zerner damping         CNVZerner       .... off
 Static damping         CNVDamp         .... on
   Fraction old density DampFac         ....    0.7000
   Max. Damping (<1)    DampMax         ....    0.9800
   Min. Damping (>=0)   DampMin         ....    0.0000
   Turn off err/grad.   DampErr         ....    0.1000

SCF Procedure:
 Maximum # iterations   MaxIter         ....   125
 SCF integral mode      SCFMode         .... Direct
   Integral package                     .... SHARK and LIBINT hybrid scheme
 Reset frequency        DirectResetFreq ....    20
 Integral Threshold     Thresh          ....  1.000e-10 Eh
 Primitive CutOff       TCut            ....  1.000e-11 Eh

Convergence Tolerance:
 Convergence Check Mode ConvCheckMode   .... Total+1el-Energy
 Convergence forced     ConvForced      .... 0
 Energy Change          TolE            ....  1.000e-06 Eh
 1-El. energy change                    ....  1.000e-03 Eh
 Orbital Gradient       TolG            ....  5.000e-05
 Orbital Rotation angle TolX            ....  5.000e-05
 DIIS Error             TolErr          ....  1.000e-06

------------------------------
INITIAL GUESS: MODEL POTENTIAL
------------------------------
Loading Hartree-Fock densities                     ... done
Calculating cut-offs                               ... done
Initializing the effective Hamiltonian             ... done
Setting up the integral package (SHARK)            ... done
Starting the Coulomb interaction                   ... done (   2.0 sec)
Making the grid                                    ... done (   1.4 sec)
Mapping shells                                     ... done
Starting the XC term evaluation                    ... done (   0.9 sec)
  promolecular density results
     # of electrons  =    171.986058117
     EX              =   -138.887645772
     EC              =     -5.818210603
     EX+EC           =   -144.705856375
Transforming the Hamiltonian                       ... done (   0.0 sec)
Diagonalizing the Hamiltonian                      ... done (   0.0 sec)
Back transforming the eigenvectors                 ... done (   0.0 sec)
Now organizing SCF variables                       ... done
                      ------------------
                      INITIAL GUESS DONE (   4.4 sec)
                      ------------------
             **** ENERGY FILE WAS UPDATED (/home/nmrbox/aojoawo/Documents/ERDOS/inputs/CHEMBL2443080.en.tmp) ****
Finished Guess after   4.6 sec
Maximum memory used throughout the entire GUESS-calculation: 45.6 MB

-------------------------------------------------------------------------------------------
                                      ORCA LEAN-SCF
                              memory conserving SCF solver
-------------------------------------------------------------------------------------------

----------------------------------------D-I-I-S--------------------------------------------
Iteration    Energy (Eh)           Delta-E    RMSDP     MaxDP     DIISErr   Damp  Time(sec)
-------------------------------------------------------------------------------------------
               ***  Starting incremental Fock matrix formation  ***
    1    -1034.0802997446890004     0.00e+00  2.28e-03  1.11e-01  2.87e-01  0.700  42.2
    2    -1034.3570148935164070    -2.77e-01  1.58e-03  6.14e-02  1.03e-01  0.700  20.0
                               ***Turning on AO-DIIS***
    3    -1034.4671723000187740    -1.10e-01  6.68e-04  1.78e-02  3.92e-02  0.700  19.3
    4    -1034.5336479089623936    -6.65e-02  1.06e-03  2.49e-02  1.76e-02  0.000  17.7
    5    -1034.6784328349722273    -1.45e-01  2.49e-04  8.71e-03  8.00e-03  0.000  18.6
                              *** Initializing SOSCF ***
---------------------------------------S-O-S-C-F--------------------------------------
Iteration    Energy (Eh)           Delta-E    RMSDP     MaxDP     MaxGrad    Time(sec)
--------------------------------------------------------------------------------------
    6    -1034.6794627789499827    -1.03e-03  8.04e-05  2.58e-03  2.26e-03    16.1
               *** Restarting incremental Fock matrix formation ***
    7    -1034.6795582970567011    -9.55e-05  5.75e-05  2.41e-03  3.42e-04    43.2
    8    -1034.6795427792444571     1.55e-05  3.09e-05  1.95e-03  7.64e-04    25.1
    9    -1034.6795683853515584    -2.56e-05  1.06e-05  4.56e-04  8.89e-05    22.0
   10    -1034.6795676576648475     7.28e-07  6.08e-06  3.17e-04  1.56e-04    18.7
                 **** Energy Check signals convergence ****

               *****************************************************
               *                     SUCCESS                       *
               *           SCF CONVERGED AFTER  10 CYCLES          *
               *****************************************************

Recomputing exchange energy using gridx3       ... done (   75.172 sec)
Old exchange energy                            :    -28.241594112 Eh
New exchange energy                            :    -28.241637705 Eh
Exchange energy change after final integration :     -0.000043592 Eh
Total energy after final integration           :  -1034.679611250 Eh
             **** ENERGY FILE WAS UPDATED (/home/nmrbox/aojoawo/Documents/ERDOS/inputs/CHEMBL2443080.en.tmp) ****

----------------
TOTAL SCF ENERGY
----------------

Total Energy       :      -1034.67961124980616 Eh          -28155.06360 eV

Components:
Nuclear Repulsion  :       1924.38159302427448 Eh           52365.08534 eV
Electronic Energy  :      -2959.06116068193933 Eh          -80520.14775 eV
One Electron Energy:      -5228.10204821610932 Eh         -142263.88929 eV
Two Electron Energy:       2269.04088753417000 Eh           61743.74154 eV

Virial components:
Potential Energy   :      -2062.43364739028812 Eh          -56121.67272 eV
Kinetic Energy     :       1027.75403614048196 Eh           27966.60912 eV
Virial Ratio       :          2.00673855306405

DFT components:
N(Alpha)           :       86.000122389064 electrons
N(Beta)            :       86.000122389064 electrons
N(Total)           :      172.000244778129 electrons
E(X)               :     -112.130689571512 Eh       
E(C)               :       -6.848970970652 Eh       
E(XC)              :     -118.979660542164 Eh       

---------------
SCF CONVERGENCE
---------------

  Last Energy change         ...   -7.2769e-07  Tolerance :   1.0000e-06
  Last MAX-Density change    ...    3.1654e-04  Tolerance :   1.0000e-05
  Last RMS-Density change    ...    6.0768e-06  Tolerance :   1.0000e-06
  Last DIIS Error            ...    2.2564e-03  Tolerance :   1.0000e-06
  Last Orbital Gradient      ...    1.5586e-04  Tolerance :   5.0000e-05
  Last Orbital Rotation      ...    2.2506e-04  Tolerance :   5.0000e-05


----------------
ORBITAL ENERGIES
----------------

  NO   OCC          E(Eh)            E(eV) 
   0   2.0000     -19.159476      -521.3559 
   1   2.0000     -19.098876      -519.7068 
   2   2.0000     -14.366007      -390.9189 
   3   2.0000     -14.347221      -390.4077 
   4   2.0000     -10.313083      -280.6333 
   5   2.0000     -10.251013      -278.9443 
   6   2.0000     -10.238739      -278.6103 
   7   2.0000     -10.228909      -278.3428 
   8   2.0000     -10.226045      -278.2648 
   9   2.0000     -10.217003      -278.0188 
  10   2.0000     -10.189363      -277.2667 
  11   2.0000     -10.187891      -277.2266 
  12   2.0000     -10.187351      -277.2119 
  13   2.0000     -10.183289      -277.1014 
  14   2.0000     -10.181352      -277.0487 
  15   2.0000     -10.180893      -277.0362 
  16   2.0000     -10.179179      -276.9895 
  17   2.0000     -10.177428      -276.9419 
  18   2.0000     -10.177394      -276.9410 
  19   2.0000     -10.176098      -276.9057 
  20   2.0000     -10.175035      -276.8768 
  21   2.0000     -10.174078      -276.8507 
  22   2.0000     -10.173482      -276.8345 
  23   2.0000     -10.171273      -276.7744 
  24   2.0000      -1.045809       -28.4579 
  25   2.0000      -1.014497       -27.6059 
  26   2.0000      -0.921663       -25.0797 
  27   2.0000      -0.910832       -24.7850 
  28   2.0000      -0.846497       -23.0343 
  29   2.0000      -0.834319       -22.7030 
  30   2.0000      -0.815205       -22.1829 
  31   2.0000      -0.778214       -21.1763 
  32   2.0000      -0.767107       -20.8740 
  33   2.0000      -0.738437       -20.0939 
  34   2.0000      -0.735042       -20.0015 
  35   2.0000      -0.731028       -19.8923 
  36   2.0000      -0.716891       -19.5076 
  37   2.0000      -0.658322       -17.9139 
  38   2.0000      -0.642955       -17.4957 
  39   2.0000      -0.635930       -17.3045 
  40   2.0000      -0.612193       -16.6586 
  41   2.0000      -0.603760       -16.4291 
  42   2.0000      -0.598735       -16.2924 
  43   2.0000      -0.585796       -15.9403 
  44   2.0000      -0.559941       -15.2368 
  45   2.0000      -0.540762       -14.7149 
  46   2.0000      -0.528634       -14.3849 
  47   2.0000      -0.519642       -14.1402 
  48   2.0000      -0.509198       -13.8560 
  49   2.0000      -0.489882       -13.3304 
  50   2.0000      -0.478352       -13.0166 
  51   2.0000      -0.475270       -12.9328 
  52   2.0000      -0.462387       -12.5822 
  53   2.0000      -0.454646       -12.3715 
  54   2.0000      -0.451158       -12.2766 
  55   2.0000      -0.441486       -12.0134 
  56   2.0000      -0.435917       -11.8619 
  57   2.0000      -0.432318       -11.7640 
  58   2.0000      -0.430347       -11.7103 
  59   2.0000      -0.424717       -11.5571 
  60   2.0000      -0.415955       -11.3187 
  61   2.0000      -0.407934       -11.1004 
  62   2.0000      -0.402123       -10.9423 
  63   2.0000      -0.397043       -10.8041 
  64   2.0000      -0.394414       -10.7326 
  65   2.0000      -0.385648       -10.4940 
  66   2.0000      -0.381729       -10.3874 
  67   2.0000      -0.371728       -10.1152 
  68   2.0000      -0.369885       -10.0651 
  69   2.0000      -0.356477        -9.7002 
  70   2.0000      -0.355221        -9.6661 
  71   2.0000      -0.352756        -9.5990 
  72   2.0000      -0.348571        -9.4851 
  73   2.0000      -0.345714        -9.4073 
  74   2.0000      -0.341415        -9.2904 
  75   2.0000      -0.331724        -9.0267 
  76   2.0000      -0.327169        -8.9027 
  77   2.0000      -0.299332        -8.1452 
  78   2.0000      -0.293472        -7.9858 
  79   2.0000      -0.283247        -7.7075 
  80   2.0000      -0.253327        -6.8934 
  81   2.0000      -0.239925        -6.5287 
  82   2.0000      -0.237281        -6.4567 
  83   2.0000      -0.223954        -6.0941 
  84   2.0000      -0.214029        -5.8240 
  85   2.0000      -0.211014        -5.7420 
  86   0.0000      -0.003938        -0.1072 
  87   0.0000       0.001726         0.0470 
  88   0.0000       0.006417         0.1746 
  89   0.0000       0.017950         0.4884 
  90   0.0000       0.042149         1.1469 
  91   0.0000       0.061432         1.6717 
  92   0.0000       0.081404         2.2151 
  93   0.0000       0.094625         2.5749 
  94   0.0000       0.098906         2.6914 
  95   0.0000       0.102536         2.7901 
  96   0.0000       0.109928         2.9913 
*Only the first 10 virtual orbitals were printed.

                    ********************************
                    * MULLIKEN POPULATION ANALYSIS *
                    ********************************

-----------------------
MULLIKEN ATOMIC CHARGES
-----------------------
   0 O :   -0.483582
   1 C :    0.668223
   2 N :   -0.715199
   3 C :    0.332110
   4 C :   -0.180090
   5 C :   -0.130780
   6 C :   -0.125661
   7 C :   -0.139302
   8 C :   -0.126814
   9 N :   -0.430038
  10 C :   -0.153282
  11 C :   -0.288267
  12 C :    0.338797
  13 C :   -0.306397
  14 C :   -0.348507
  15 C :    0.103810
  16 C :   -0.181575
  17 C :   -0.134835
  18 C :   -0.124050
  19 C :   -0.187243
  20 C :    0.320896
  21 O :   -0.555353
  22 C :   -0.294066
  23 C :   -0.136557
  24 H :    0.328080
  25 H :    0.118509
  26 H :    0.127574
  27 H :    0.123940
  28 H :    0.131285
  29 H :    0.150179
  30 H :    0.130374
  31 H :    0.152840
  32 H :    0.142727
  33 H :    0.158490
  34 H :    0.139527
  35 H :    0.144938
  36 H :    0.152637
  37 H :    0.148865
  38 H :    0.121834
  39 H :    0.120908
  40 H :    0.127971
  41 H :    0.133967
  42 H :    0.144959
  43 H :    0.161055
  44 H :    0.130556
  45 H :    0.186548
Sum of atomic charges:    0.0000000

--------------------------------
MULLIKEN REDUCED ORBITAL CHARGES
--------------------------------
  0 O s       :     3.887741  s :     3.887741
      pz      :     1.439590  p :     4.570573
      px      :     1.757099
      py      :     1.373884
      dz2     :     0.004043  d :     0.025269
      dxz     :     0.001642
      dyz     :     0.007824
      dx2y2   :     0.006491
      dxy     :     0.005268

  1 C s       :     2.921755  s :     2.921755
      pz      :     0.821990  p :     2.295134
      px      :     0.730055
      py      :     0.743089
      dz2     :     0.011828  d :     0.114889
      dxz     :     0.019107
      dyz     :     0.019198
      dx2y2   :     0.027641
      dxy     :     0.037115

  2 N s       :     3.632076  s :     3.632076
      pz      :     1.668818  p :     4.053776
      px      :     1.159148
      py      :     1.225811
      dz2     :     0.003435  d :     0.029347
      dxz     :     0.005683
      dyz     :     0.002260
      dx2y2   :     0.009885
      dxy     :     0.008084

  3 C s       :     3.066506  s :     3.066506
      pz      :     0.957898  p :     2.546629
      px      :     0.702909
      py      :     0.885822
      dz2     :     0.005183  d :     0.054755
      dxz     :     0.012193
      dyz     :     0.006313
      dx2y2   :     0.016888
      dxy     :     0.014177

  4 C s       :     3.185378  s :     3.185378
      pz      :     1.023663  p :     2.959692
      px      :     0.975805
      py      :     0.960224
      dz2     :     0.003264  d :     0.035020
      dxz     :     0.006513
      dyz     :     0.003503
      dx2y2   :     0.010418
      dxy     :     0.011321

  5 C s       :     3.189433  s :     3.189433
      pz      :     0.991214  p :     2.904967
      px      :     0.953264
      py      :     0.960489
      dz2     :     0.003438  d :     0.036380
      dxz     :     0.005578
      dyz     :     0.004512
      dx2y2   :     0.009456
      dxy     :     0.013395

  6 C s       :     3.181345  s :     3.181345
      pz      :     0.997946  p :     2.908271
      px      :     0.969350
      py      :     0.940976
      dz2     :     0.004363  d :     0.036044
      dxz     :     0.002924
      dyz     :     0.005649
      dx2y2   :     0.013260
      dxy     :     0.009849

  7 C s       :     3.193942  s :     3.193942
      pz      :     0.992579  p :     2.908962
      px      :     0.941240
      py      :     0.975143
      dz2     :     0.003158  d :     0.036398
      dxz     :     0.006456
      dyz     :     0.003925
      dx2y2   :     0.011681
      dxy     :     0.011178

  8 C s       :     3.184314  s :     3.184314
      pz      :     0.976572  p :     2.907534
      px      :     0.954094
      py      :     0.976869
      dz2     :     0.003241  d :     0.034966
      dxz     :     0.005780
      dyz     :     0.004738
      dx2y2   :     0.009094
      dxy     :     0.012114

  9 N s       :     3.551408  s :     3.551408
      pz      :     1.652896  p :     3.845200
      px      :     1.107192
      py      :     1.085113
      dz2     :     0.003979  d :     0.033430
      dxz     :     0.004674
      dyz     :     0.004917
      dx2y2   :     0.011418
      dxy     :     0.008442

 10 C s       :     3.215467  s :     3.215467
      pz      :     1.040942  p :     2.882831
      px      :     1.007369
      py      :     0.834520
      dz2     :     0.009702  d :     0.054984
      dxz     :     0.007915
      dyz     :     0.015225
      dx2y2   :     0.011663
      dxy     :     0.010480

 11 C s       :     3.269050  s :     3.269050
      pz      :     1.028779  p :     2.981030
      px      :     0.928451
      py      :     1.023800
      dz2     :     0.011632  d :     0.038188
      dxz     :     0.006682
      dyz     :     0.003346
      dx2y2   :     0.009616
      dxy     :     0.006912

 12 C s       :     3.102709  s :     3.102709
      pz      :     0.827303  p :     2.487181
      px      :     0.744144
      py      :     0.915734
      dz2     :     0.013338  d :     0.071313
      dxz     :     0.018333
      dyz     :     0.010047
      dx2y2   :     0.014509
      dxy     :     0.015086

 13 C s       :     3.269350  s :     3.269350
      pz      :     0.971609  p :     2.998318
      px      :     1.003181
      py      :     1.023528
      dz2     :     0.007966  d :     0.038729
      dxz     :     0.010956
      dyz     :     0.004414
      dx2y2   :     0.010268
      dxy     :     0.005126

 14 C s       :     3.259387  s :     3.259387
      pz      :     1.027986  p :     3.048134
      px      :     0.983362
      py      :     1.036787
      dz2     :     0.006318  d :     0.040986
      dxz     :     0.009895
      dyz     :     0.008346
      dx2y2   :     0.008764
      dxy     :     0.007664

 15 C s       :     3.118468  s :     3.118468
      pz      :     0.845116  p :     2.738301
      px      :     0.880509
      py      :     1.012676
      dz2     :     0.010686  d :     0.039421
      dxz     :     0.011362
      dyz     :     0.006129
      dx2y2   :     0.005560
      dxy     :     0.005685

 16 C s       :     3.207630  s :     3.207630
      pz      :     0.973198  p :     2.937572
      px      :     0.965155
      py      :     0.999218
      dz2     :     0.011957  d :     0.036373
      dxz     :     0.009818
      dyz     :     0.002578
      dx2y2   :     0.005571
      dxy     :     0.006449

 17 C s       :     3.183603  s :     3.183603
      pz      :     0.930800  p :     2.915257
      px      :     0.968004
      py      :     1.016453
      dz2     :     0.009705  d :     0.035975
      dxz     :     0.011473
      dyz     :     0.005903
      dx2y2   :     0.005610
      dxy     :     0.003284

 18 C s       :     3.188536  s :     3.188536
      pz      :     0.946561  p :     2.898849
      px      :     0.961670
      py      :     0.990618
      dz2     :     0.008190  d :     0.036665
      dxz     :     0.014056
      dyz     :     0.005005
      dx2y2   :     0.005324
      dxy     :     0.004090

 19 C s       :     3.195237  s :     3.195237
      pz      :     0.962927  p :     2.957513
      px      :     0.958997
      py      :     1.035590
      dz2     :     0.010378  d :     0.034493
      dxz     :     0.010481
      dyz     :     0.002759
      dx2y2   :     0.005083
      dxy     :     0.005791

 20 C s       :     3.089732  s :     3.089732
      pz      :     0.875278  p :     2.522737
      px      :     0.678874
      py      :     0.968585
      dz2     :     0.014100  d :     0.066635
      dxz     :     0.020036
      dyz     :     0.007789
      dx2y2   :     0.011312
      dxy     :     0.013396

 21 O s       :     3.899124  s :     3.899124
      pz      :     1.632279  p :     4.628971
      px      :     1.208739
      py      :     1.787953
      dz2     :     0.004223  d :     0.027258
      dxz     :     0.009755
      dyz     :     0.003031
      dx2y2   :     0.004593
      dxy     :     0.005656

 22 C s       :     3.268185  s :     3.268185
      pz      :     1.051970  p :     2.987731
      px      :     0.957388
      py      :     0.978374
      dz2     :     0.009481  d :     0.038149
      dxz     :     0.006320
      dyz     :     0.006372
      dx2y2   :     0.006917
      dxy     :     0.009059

 23 C s       :     3.216103  s :     3.216103
      pz      :     0.989779  p :     2.866043
      px      :     0.896662
      py      :     0.979602
      dz2     :     0.017542  d :     0.054412
      dxz     :     0.009242
      dyz     :     0.005548
      dx2y2   :     0.009430
      dxy     :     0.012650

 24 H s       :     0.671920  s :     0.671920

 25 H s       :     0.881491  s :     0.881491

 26 H s       :     0.872426  s :     0.872426

 27 H s       :     0.876060  s :     0.876060

 28 H s       :     0.868715  s :     0.868715

 29 H s       :     0.849821  s :     0.849821

 30 H s       :     0.869626  s :     0.869626

 31 H s       :     0.847160  s :     0.847160

 32 H s       :     0.857273  s :     0.857273

 33 H s       :     0.841510  s :     0.841510

 34 H s       :     0.860473  s :     0.860473

 35 H s       :     0.855062  s :     0.855062

 36 H s       :     0.847363  s :     0.847363

 37 H s       :     0.851135  s :     0.851135

 38 H s       :     0.878166  s :     0.878166

 39 H s       :     0.879092  s :     0.879092

 40 H s       :     0.872029  s :     0.872029

 41 H s       :     0.866033  s :     0.866033

 42 H s       :     0.855041  s :     0.855041

 43 H s       :     0.838945  s :     0.838945

 44 H s       :     0.869444  s :     0.869444

 45 H s       :     0.813452  s :     0.813452



                     *******************************
                     * LOEWDIN POPULATION ANALYSIS *
                     *******************************

----------------------
LOEWDIN ATOMIC CHARGES
----------------------
   0 O :   -0.300231
   1 C :    0.166486
   2 N :   -0.226777
   3 C :    0.036325
   4 C :   -0.150351
   5 C :   -0.128264
   6 C :   -0.138716
   7 C :   -0.125995
   8 C :   -0.123166
   9 N :   -0.138733
  10 C :   -0.156919
  11 C :   -0.224972
  12 C :    0.074755
  13 C :   -0.235377
  14 C :   -0.224432
  15 C :   -0.058726
  16 C :   -0.128029
  17 C :   -0.147790
  18 C :   -0.126784
  19 C :   -0.151147
  20 C :    0.081156
  21 O :   -0.173981
  22 C :   -0.236789
  23 C :   -0.146520
  24 H :    0.253308
  25 H :    0.127481
  26 H :    0.131711
  27 H :    0.129657
  28 H :    0.133384
  29 H :    0.145921
  30 H :    0.104091
  31 H :    0.130510
  32 H :    0.129503
  33 H :    0.135548
  34 H :    0.124488
  35 H :    0.126775
  36 H :    0.127846
  37 H :    0.132439
  38 H :    0.129417
  39 H :    0.128365
  40 H :    0.132438
  41 H :    0.138632
  42 H :    0.129902
  43 H :    0.136626
  44 H :    0.105904
  45 H :    0.151031

-------------------------------
LOEWDIN REDUCED ORBITAL CHARGES
-------------------------------
  0 O s       :     3.590726  s :     3.590726
      pz      :     1.449149  p :     4.659648
      px      :     1.755530
      py      :     1.454969
      dz2     :     0.006960  d :     0.049857
      dxz     :     0.002658
      dyz     :     0.015054
      dx2y2   :     0.014735
      dxy     :     0.010450

  1 C s       :     2.841857  s :     2.841857
      pz      :     0.862830  p :     2.728809
      px      :     0.917634
      py      :     0.948346
      dz2     :     0.024772  d :     0.262847
      dxz     :     0.041004
      dyz     :     0.042381
      dx2y2   :     0.065452
      dxy     :     0.089237

  2 N s       :     3.148734  s :     3.148734
      pz      :     1.623641  p :     4.008718
      px      :     1.164054
      py      :     1.221023
      dz2     :     0.005401  d :     0.069325
      dxz     :     0.012514
      dyz     :     0.004614
      dx2y2   :     0.024391
      dxy     :     0.022406

  3 C s       :     2.856230  s :     2.856230
      pz      :     0.986014  p :     2.975192
      px      :     0.916860
      py      :     1.072318
      dz2     :     0.010903  d :     0.132253
      dxz     :     0.026159
      dyz     :     0.014255
      dx2y2   :     0.043339
      dxy     :     0.037597

  4 C s       :     2.916800  s :     2.916800
      pz      :     1.024361  p :     3.151163
      px      :     1.066966
      py      :     1.059836
      dz2     :     0.006244  d :     0.082388
      dxz     :     0.014463
      dyz     :     0.006193
      dx2y2   :     0.026687
      dxy     :     0.028799

  5 C s       :     2.916322  s :     2.916322
      pz      :     0.994618  p :     3.126373
      px      :     1.066662
      py      :     1.065092
      dz2     :     0.006527  d :     0.085570
      dxz     :     0.012118
      dyz     :     0.009345
      dx2y2   :     0.025331
      dxy     :     0.032248

  6 C s       :     2.916256  s :     2.916256
      pz      :     1.004495  p :     3.137465
      px      :     1.071307
      py      :     1.061664
      dz2     :     0.008114  d :     0.084994
      dxz     :     0.006016
      dyz     :     0.013450
      dx2y2   :     0.031728
      dxy     :     0.025686

  7 C s       :     2.917341  s :     2.917341
      pz      :     0.990793  p :     3.123231
      px      :     1.069774
      py      :     1.062665
      dz2     :     0.006168  d :     0.085423
      dxz     :     0.014497
      dyz     :     0.006998
      dx2y2   :     0.029322
      dxy     :     0.028439

  8 C s       :     2.918698  s :     2.918698
      pz      :     0.993033  p :     3.122882
      px      :     1.073969
      py      :     1.055880
      dz2     :     0.006325  d :     0.081586
      dxz     :     0.012062
      dyz     :     0.009495
      dx2y2   :     0.024416
      dxy     :     0.029288

  9 N s       :     3.112488  s :     3.112488
      pz      :     1.626140  p :     3.941943
      px      :     1.148411
      py      :     1.167392
      dz2     :     0.007987  d :     0.084302
      dxz     :     0.009737
      dyz     :     0.010685
      dx2y2   :     0.031236
      dxy     :     0.024656

 10 C s       :     2.927821  s :     2.927821
      pz      :     1.103168  p :     3.113934
      px      :     1.066600
      py      :     0.944166
      dz2     :     0.018791  d :     0.115164
      dxz     :     0.016162
      dyz     :     0.031203
      dx2y2   :     0.026685
      dxy     :     0.022323

 11 C s       :     2.948981  s :     2.948981
      pz      :     1.089324  p :     3.195860
      px      :     1.025861
      py      :     1.080675
      dz2     :     0.022545  d :     0.080131
      dxz     :     0.015303
      dyz     :     0.006752
      dx2y2   :     0.020367
      dxy     :     0.015164

 12 C s       :     2.867137  s :     2.867137
      pz      :     0.976250  p :     2.893119
      px      :     0.871076
      py      :     1.045793
      dz2     :     0.032364  d :     0.164989
      dxz     :     0.042793
      dyz     :     0.021651
      dx2y2   :     0.032267
      dxy     :     0.035915

 13 C s       :     2.945492  s :     2.945492
      pz      :     1.051037  p :     3.208993
      px      :     1.070388
      py      :     1.087567
      dz2     :     0.017627  d :     0.080892
      dxz     :     0.022673
      dyz     :     0.009861
      dx2y2   :     0.019805
      dxy     :     0.010927

 14 C s       :     2.926470  s :     2.926470
      pz      :     1.073065  p :     3.212013
      px      :     1.044653
      py      :     1.094295
      dz2     :     0.012869  d :     0.085949
      dxz     :     0.022042
      dyz     :     0.016613
      dx2y2   :     0.017595
      dxy     :     0.016831

 15 C s       :     2.873309  s :     2.873309
      pz      :     1.037720  p :     3.086747
      px      :     1.039280
      py      :     1.009747
      dz2     :     0.028215  d :     0.098670
      dxz     :     0.032704
      dyz     :     0.012766
      dx2y2   :     0.012990
      dxy     :     0.011995

 16 C s       :     2.916466  s :     2.916466
      pz      :     1.070728  p :     3.126080
      px      :     1.058152
      py      :     0.997200
      dz2     :     0.025592  d :     0.085483
      dxz     :     0.026084
      dyz     :     0.004732
      dx2y2   :     0.014476
      dxy     :     0.014598

 17 C s       :     2.914776  s :     2.914776
      pz      :     1.068374  p :     3.147981
      px      :     1.066793
      py      :     1.012814
      dz2     :     0.026312  d :     0.085034
      dxz     :     0.029419
      dyz     :     0.013082
      dx2y2   :     0.010277
      dxy     :     0.005942

 18 C s       :     2.915884  s :     2.915884
      pz      :     1.072132  p :     3.124867
      px      :     1.063565
      py      :     0.989170
      dz2     :     0.021729  d :     0.086032
      dxz     :     0.033652
      dyz     :     0.010916
      dx2y2   :     0.011154
      dxy     :     0.008582

 19 C s       :     2.915911  s :     2.915911
      pz      :     1.068755  p :     3.153745
      px      :     1.056346
      py      :     1.028644
      dz2     :     0.022506  d :     0.081490
      dxz     :     0.027740
      dyz     :     0.004769
      dx2y2   :     0.013458
      dxy     :     0.013018

 20 C s       :     2.857382  s :     2.857382
      pz      :     1.053129  p :     2.903071
      px      :     0.878088
      py      :     0.971854
      dz2     :     0.035992  d :     0.158390
      dxz     :     0.051737
      dyz     :     0.016723
      dx2y2   :     0.026031
      dxy     :     0.027907

 21 O s       :     3.461328  s :     3.461328
      pz      :     1.646096  p :     4.651207
      px      :     1.235902
      py      :     1.769209
      dz2     :     0.008827  d :     0.061446
      dxz     :     0.022457
      dyz     :     0.004353
      dx2y2   :     0.012640
      dxy     :     0.013168

 22 C s       :     2.950332  s :     2.950332
      pz      :     1.106371  p :     3.205665
      px      :     1.048402
      py      :     1.050892
      dz2     :     0.018971  d :     0.080793
      dxz     :     0.013708
      dyz     :     0.012020
      dx2y2   :     0.016505
      dxy     :     0.019589

 23 C s       :     2.926541  s :     2.926541
      pz      :     1.068011  p :     3.105605
      px      :     0.992574
      py      :     1.045020
      dz2     :     0.035178  d :     0.114374
      dxz     :     0.020561
      dyz     :     0.011068
      dx2y2   :     0.020590
      dxy     :     0.026979

 24 H s       :     0.746692  s :     0.746692

 25 H s       :     0.872519  s :     0.872519

 26 H s       :     0.868289  s :     0.868289

 27 H s       :     0.870343  s :     0.870343

 28 H s       :     0.866616  s :     0.866616

 29 H s       :     0.854079  s :     0.854079

 30 H s       :     0.895909  s :     0.895909

 31 H s       :     0.869490  s :     0.869490

 32 H s       :     0.870497  s :     0.870497

 33 H s       :     0.864452  s :     0.864452

 34 H s       :     0.875512  s :     0.875512

 35 H s       :     0.873225  s :     0.873225

 36 H s       :     0.872154  s :     0.872154

 37 H s       :     0.867561  s :     0.867561

 38 H s       :     0.870583  s :     0.870583

 39 H s       :     0.871635  s :     0.871635

 40 H s       :     0.867562  s :     0.867562

 41 H s       :     0.861368  s :     0.861368

 42 H s       :     0.870098  s :     0.870098

 43 H s       :     0.863374  s :     0.863374

 44 H s       :     0.894096  s :     0.894096

 45 H s       :     0.848969  s :     0.848969



                      *****************************
                      * MAYER POPULATION ANALYSIS *
                      *****************************

  NA   - Mulliken gross atomic population
  ZA   - Total nuclear charge
  QA   - Mulliken gross atomic charge
  VA   - Mayer's total valence
  BVA  - Mayer's bonded valence
  FA   - Mayer's free valence

  ATOM       NA         ZA         QA         VA         BVA        FA
  0 O      8.4836     8.0000    -0.4836     2.0401     2.0401     0.0000
  1 C      5.3318     6.0000     0.6682     3.9469     3.9469     0.0000
  2 N      7.7152     7.0000    -0.7152     2.8625     2.8625     0.0000
  3 C      5.6679     6.0000     0.3321     3.8688     3.8688     0.0000
  4 C      6.1801     6.0000    -0.1801     3.9231     3.9231    -0.0000
  5 C      6.1308     6.0000    -0.1308     3.9650     3.9650    -0.0000
  6 C      6.1257     6.0000    -0.1257     3.9429     3.9429     0.0000
  7 C      6.1393     6.0000    -0.1393     3.9498     3.9498     0.0000
  8 C      6.1268     6.0000    -0.1268     3.9257     3.9257     0.0000
  9 N      7.4300     7.0000    -0.4300     3.0007     3.0007    -0.0000
 10 C      6.1533     6.0000    -0.1533     3.8339     3.8339    -0.0000
 11 C      6.2883     6.0000    -0.2883     3.8424     3.8424     0.0000
 12 C      5.6612     6.0000     0.3388     3.8364     3.8364     0.0000
 13 C      6.3064     6.0000    -0.3064     3.8384     3.8384    -0.0000
 14 C      6.3485     6.0000    -0.3485     3.8618     3.8618    -0.0000
 15 C      5.8962     6.0000     0.1038     3.8986     3.8986     0.0000
 16 C      6.1816     6.0000    -0.1816     3.9371     3.9371     0.0000
 17 C      6.1348     6.0000    -0.1348     3.9377     3.9377    -0.0000
 18 C      6.1240     6.0000    -0.1240     3.9504     3.9504    -0.0000
 19 C      6.1872     6.0000    -0.1872     3.9077     3.9077    -0.0000
 20 C      5.6791     6.0000     0.3209     3.8628     3.8628    -0.0000
 21 O      8.5554     8.0000    -0.5554     1.9200     1.9200     0.0000
 22 C      6.2941     6.0000    -0.2941     3.8223     3.8223    -0.0000
 23 C      6.1366     6.0000    -0.1366     3.8207     3.8207    -0.0000
 24 H      0.6719     1.0000     0.3281     0.8664     0.8664    -0.0000
 25 H      0.8815     1.0000     0.1185     0.9395     0.9395    -0.0000
 26 H      0.8724     1.0000     0.1276     0.9372     0.9372     0.0000
 27 H      0.8761     1.0000     0.1239     0.9375     0.9375    -0.0000
 28 H      0.8687     1.0000     0.1313     0.9369     0.9369    -0.0000
 29 H      0.8498     1.0000     0.1502     0.9473     0.9473     0.0000
 30 H      0.8696     1.0000     0.1304     0.9260     0.9260    -0.0000
 31 H      0.8472     1.0000     0.1528     0.9355     0.9355     0.0000
 32 H      0.8573     1.0000     0.1427     0.9391     0.9391     0.0000
 33 H      0.8415     1.0000     0.1585     0.9373     0.9373     0.0000
 34 H      0.8605     1.0000     0.1395     0.9391     0.9391    -0.0000
 35 H      0.8551     1.0000     0.1449     0.9356     0.9356    -0.0000
 36 H      0.8474     1.0000     0.1526     0.9278     0.9278    -0.0000
 37 H      0.8511     1.0000     0.1489     0.9327     0.9327    -0.0000
 38 H      0.8782     1.0000     0.1218     0.9397     0.9397    -0.0000
 39 H      0.8791     1.0000     0.1209     0.9387     0.9387    -0.0000
 40 H      0.8720     1.0000     0.1280     0.9376     0.9376    -0.0000
 41 H      0.8660     1.0000     0.1340     0.9398     0.9398    -0.0000
 42 H      0.8550     1.0000     0.1450     0.9388     0.9388    -0.0000
 43 H      0.8389     1.0000     0.1611     0.9364     0.9364    -0.0000
 44 H      0.8694     1.0000     0.1306     0.9274     0.9274     0.0000
 45 H      0.8135     1.0000     0.1865     0.9385     0.9385    -0.0000

  Mayer bond orders larger than 0.100000
B(  0-O ,  1-C ) :   1.8006 B(  1-C ,  2-N ) :   1.0147 B(  1-C ,  9-N ) :   1.0359 
B(  2-N ,  3-C ) :   0.8607 B(  2-N , 24-H ) :   0.8202 B(  3-C ,  4-C ) :   1.4117 
B(  3-C ,  8-C ) :   1.4260 B(  4-C ,  5-C ) :   1.4477 B(  4-C , 25-H ) :   0.9258 
B(  5-C ,  6-C ) :   1.4567 B(  5-C , 26-H ) :   0.9295 B(  6-C ,  7-C ) :   1.4429 
B(  6-C , 27-H ) :   0.9309 B(  7-C ,  8-C ) :   1.4451 B(  7-C , 28-H ) :   0.9297 
B(  8-C , 29-H ) :   0.9125 B(  9-N , 10-C ) :   0.9538 B(  9-N , 23-C ) :   0.9460 
B( 10-C , 11-C ) :   0.9822 B( 10-C , 30-H ) :   0.9150 B( 10-C , 31-H ) :   0.9302 
B( 11-C , 12-C ) :   0.9979 B( 11-C , 32-H ) :   0.9264 B( 11-C , 33-H ) :   0.9252 
B( 12-C , 13-C ) :   0.9721 B( 12-C , 21-O ) :   0.8355 B( 12-C , 22-C ) :   0.9827 
B( 13-C , 14-C ) :   0.9979 B( 13-C , 34-H ) :   0.9235 B( 13-C , 35-H ) :   0.9312 
B( 14-C , 15-C ) :   0.9800 B( 14-C , 36-H ) :   0.9218 B( 14-C , 37-H ) :   0.9332 
B( 15-C , 16-C ) :   1.4181 B( 15-C , 20-C ) :   1.3720 B( 16-C , 17-C ) :   1.4439 
B( 16-C , 38-H ) :   0.9279 B( 17-C , 18-C ) :   1.4411 B( 17-C , 39-H ) :   0.9309 
B( 18-C , 19-C ) :   1.4532 B( 18-C , 40-H ) :   0.9308 B( 19-C , 20-C ) :   1.3935 
B( 19-C , 41-H ) :   0.9192 B( 20-C , 21-O ) :   0.9048 B( 22-C , 23-C ) :   0.9834 
B( 22-C , 42-H ) :   0.9239 B( 22-C , 43-H ) :   0.9255 B( 23-C , 44-H ) :   0.9226 
B( 23-C , 45-H ) :   0.9170 

-------
TIMINGS
-------

Total SCF time: 0 days 0 hours 5 min 18 sec 

Total time                  ....     318.815 sec
Sum of individual times     ....     318.573 sec  ( 99.9%)

SCF preparation             ....       0.291 sec  (  0.1%)
Fock matrix formation       ....     316.957 sec  ( 99.4%)
  Startup                   ....       0.060 sec  (  0.0% of F)
  Split-RI-J                ....      35.929 sec  ( 11.3% of F)
  Chain of spheres X        ....     249.726 sec  ( 78.8% of F)
  XC integration            ....      30.617 sec  (  9.7% of F)
    XC Preparation          ....       0.000 sec  (  0.0% of XC)
    Basis function eval.    ....      11.717 sec  ( 38.3% of XC)
    Density eval.           ....       7.305 sec  ( 23.9% of XC)
    XC-Functional eval.     ....       1.600 sec  (  5.2% of XC)
    XC-Potential eval.      ....       8.709 sec  ( 28.4% of XC)
Diagonalization             ....       0.000 sec  (  0.0%)
Density matrix formation    ....       0.230 sec  (  0.1%)
Total Energy calculation    ....       0.065 sec  (  0.0%)
Population analysis         ....       0.052 sec  (  0.0%)
Orbital Transformation      ....       0.122 sec  (  0.0%)
Orbital Orthonormalization  ....       0.000 sec  (  0.0%)
DIIS solution               ....       0.541 sec  (  0.2%)
SOSCF solution              ....       0.315 sec  (  0.1%)
Finished LeanSCF after 318.9 sec

Maximum memory used throughout the entire LEANSCF-calculation: 60.0 MB

-------------------------   --------------------
FINAL SINGLE POINT ENERGY     -1034.679611249806
-------------------------   --------------------


------------------------------------------------------------------------------
                              ORCA PROPERTY CALCULATIONS
------------------------------------------------------------------------------

GBWName                                 ... /home/nmrbox/aojoawo/Documents/ERDOS/inputs/CHEMBL2443080.gbw
Number of atoms                         ...     46
Number of basis functions               ...    380
Max core memory                         ...   1024 MB

Electric properties:
Dipole moment                           ... YES
Quadrupole moment                       ...  NO
Static polarizability (Dipole/Dipole)   ...  NO
Static polarizability (Dipole/Quad.)    ...  NO
Static polarizability (Quad./Quad.)     ...  NO
Static polarizability (Velocity)        ...  NO

Atomic electric properties:
Dipole moment                           ...  NO
Quadrupole moment                       ...  NO
Static polarizability                   ...  NO

Choice of electric origin               ... Center of mass
Position of electric origin             ...     0.197619     0.140157    -0.156840

General magnetic properties:
Magnetizability                         ...  NO

EPR properties:
g-Tensor (aka g-matrix)                 ...  NO
Zero-Field splitting spin-orbit         ...  NO
Zero-field splitting spin-spin          ...  NO
Hyperfine couplings                     ...  NO (   0 nuclei)
Quadrupole couplings                    ...  NO (   0 nuclei)
Contact density                         ...  NO (   0 nuclei)

NMR properties:
Chemical shifts                         ...  NO (   0 nuclei)
Spin-rotation constants                 ...  NO (   0 nuclei)
Spin-spin couplings                     ...  NO (   0 nuclei,    0 pairs)

Choice of magnetic origin               ... GIAO
Position of magnetic origin             ...     0.000000     0.000000     0.000000

Properties with geometric perturbations:
SCF Hessian                             ...  NO
IR spectrum                             ...  NO
VCD spectrum                            ...  NO
X-ray spectroscopy properties:
SCF XES/XAS/RIXS spectra                ...  NO


-------------
DIPOLE MOMENT
-------------

Method             : SCF
Type of density    : Electron Density
Multiplicity       :   1
Irrep              :   0
Energy             : -1034.6796112498061575 Eh
Relativity type    : 
Basis              : AO
                                X                 Y                 Z
Electronic contribution:      4.064861842       2.032196890       4.350159147
Nuclear contribution   :     -4.328589295      -3.182616325      -5.343998494
                        -----------------------------------------
Total Dipole Moment    :     -0.263727453      -1.150419435      -0.993839347
                        -----------------------------------------
Magnitude (a.u.)       :      1.542962635
Magnitude (Debye)      :      3.921899340



--------------------
Rotational spectrum 
--------------------
 
Rotational constants in cm-1:             0.035669             0.002541             0.002519 
Rotational constants in MHz :          1069.335446            76.192124            75.505776 

Dipole components along the rotational axes: 
x,y,z [a.u.] :     0.282414     0.464600     1.443995 
x,y,z [Debye]:     0.717840     1.180919     3.670345 

 

Dipole moment calculation done in   0.0 sec 

Maximum memory used throughout the entire PROP-calculation: 28.1 MB

--------------------------------
SUGGESTED CITATIONS FOR THIS RUN
--------------------------------

Below you find a list of papers that are relevant to this ORCA run
We neither can nor want to force you to cite these papers, but we appreciate if you do
You receive ORCA, which is the product of decades of hard work by many enthusiastic individuals, for free
The only thing we kindly ask in return is that you cite our papers,
We deeply appreciate it, if you show your appreciation for ORCA by not just citing the generic ORCA reference.

Please note that relegating all ORCA citations to the supporting information does *not* help us.
SI sections are not indexed - citations you put there will not count into any citation statistics
But we need these citations in order to attract the funding resources that allow us to do what we are doing

Therefore, if you are a happy ORCA user, please consider citing a few of the papers listed below in the main body of your paper

In addition to the list printed below, the program has created the file /home/nmrbox/aojoawo/Documents/ERDOS/inputs/CHEMBL2443080.bibtex that contains the list in bibtex format
You can import this file easily into all common literature databanks and citation aid programs


List of essential papers. We consider these as the minimum necessary citations

  1. Neese,F.
     Software update: the ORCA program system, version 5.0
     WIRES Comput. Molec. Sci., 2022 12(1)e1606
     doi.org/10.1002/wcms.1606

List of papers to cite with high priority. The work reported in these papers was absolutely
necessary for this run to complete.
Our perspective: the developers of density functionals and basis sets usually get cited in chemistry papers
Good! But without the algorithms to do something with them, the functionals or basis sets would not do anything.
Hence, in our opinion, the algorithm design and method developments papers are equally worthy of getting cited

  1. Neese,F.
     An improvement of the resolution of the identity approximation for the formation of the Coulomb matrix
     J. Comp. Chem., 2003 24(14)1740-1747
     doi.org/10.1002/jcc.10318
  2. Neese,F.; Wennmohs,F.; Hansen,A.; Becker,U.
     Efficient, approximate and parallel Hartree-Fock and hybrid DFT calculations. A 'chain-of-spheres' algorithm for the Hartree-Fock exchange
     Chem. Phys., 2009 356(1-3)98-109
     doi.org/10.1016/j.chemphys.2008.10.036
  3. Helmich-Paris,B.; de Souza,B.; Neese,F.; Izsák,R.
     An improved chain of spheres for exchange algorithm
     J. Chem. Phys., 2021 155 104109
     doi.org/doi: 10.1063/5.0058766.
  4. Neese,F.
     The SHARK Integral Generation and Digestion System
     J. Comp. Chem., 2022  1-16
     doi.org/10.1002/jcc.26942

List of suggested additional citations. These are papers that are important in the 'surrounding' of 
of this run, or papers that preceded the highly important papers. If you like your results we are grateful for a citation.

  1. Izsak,R.; Neese,F.
     An overlap fitted chain of spheres exchange method
     J. Chem. Phys., 2011 135 144105
     doi.org/10.1063/1.3646921
  2. Izsak,R.; Hansen,A.; Neese,F.
     The resolution of identity and chain of spheres approximations for the LPNO-CCSD singles Fock term
     Molec. Phys., 2012 110 2413-2417
     doi.org/10.1080/00268976.2012.687466
  3. Neese,F.
     The ORCA program system
     WIRES Comput. Molec. Sci., 2012 2(1)73-78
     doi.org/10.1002/wcms.81
  4. Izsak,R.; Neese,F.; Klopper,W.
     Robust fitting techniques in the chain of spheres approximation to the Fock exchange: The role of the complementary space
     J. Chem. Phys., 2013 139 
     doi.org/10.1063/1.4819264
  5. Neese,F.
     Software update: the ORCA program system, version 4.0
     WIRES Comput. Molec. Sci., 2018 8(1)1-6
     doi.org/10.1002/wcms.1327
  6. Neese,F.; Wennmohs,F.; Becker,U.; Riplinger,C.
     The ORCA quantum chemistry program package
     J. Chem. Phys., 2020 152 Art. No. L224108
     doi.org/10.1063/5.0004608

List of optional additional citations

  1. Neese,F.
     Approximate second-order SCF convergence for spin unrestricted wavefunctions
     Chem. Phys. Lett., 2000 325(1-3)93-98
     doi.org/10.1016/s0009-2614(00)00662-x

Timings for individual modules:

Sum of individual times          ...      333.816 sec (=   5.564 min)
Startup calculation              ...       10.034 sec (=   0.167 min)   3.0 %
SCF iterations                   ...      323.599 sec (=   5.393 min)  96.9 %
Property calculations            ...        0.182 sec (=   0.003 min)   0.1 %
                             ****ORCA TERMINATED NORMALLY****
TOTAL RUN TIME: 0 days 0 hours 5 minutes 34 seconds 442 msec
