
                                 *****************
                                 * O   R   C   A *
                                 *****************

                                            #,                                       
                                            ###                                      
                                            ####                                     
                                            #####                                    
                                            ######                                   
                                           ########,                                 
                                     ,,################,,,,,                         
                               ,,#################################,,                 
                          ,,##########################################,,             
                       ,#########################################, ''#####,          
                    ,#############################################,,   '####,        
                  ,##################################################,,,,####,       
                ,###########''''           ''''###############################       
              ,#####''   ,,,,##########,,,,          '''####'''          '####       
            ,##' ,,,,###########################,,,                        '##       
           ' ,,###''''                  '''############,,,                           
         ,,##''                                '''############,,,,        ,,,,,,###''
      ,#''                                            '''#######################'''  
     '                                                          ''''####''''         
             ,#######,   #######,   ,#######,      ##                                
            ,#'     '#,  ##    ##  ,#'     '#,    #''#        ,####,   ,####,        
            ##       ##  ##   ,#'  ##            #'  '#       #'       #'  '#        
            ##       ##  #######   ##           ,######,      #####,   #    #        
            '#,     ,#'  ##    ##  '#,     ,#' ,#      #,     #,   #   #,  ,#        
             '#######'   ##     ##  '#######'  #'      '#     '####' # '####'        



                #########################################################
                #                        -***-                          #
                #          Department of theory and spectroscopy        #
                #                                                       #
                #                      Frank Neese                      #
                #                                                       #
                #     Directorship, Architecture, Infrastructure        #
                #                    SHARK, DRIVERS                     #
                #        Core code/Algorithms in most modules           #
                #                                                       #
                #        Max Planck Institute fuer Kohlenforschung      #
                #                Kaiser Wilhelm Platz 1                 #
                #                 D-45470 Muelheim/Ruhr                 #
                #                      Germany                          #
                #                                                       #
                #                  All rights reserved                  #
                #                        -***-                          #
                #########################################################


                         Program Version 6.0.0  -   RELEASE  -


 With contributions from (in alphabetic order):
   Daniel Aravena         : Magnetic Suceptibility
   Michael Atanasov       : Ab Initio Ligand Field Theory (pilot matlab implementation)
   Alexander A. Auer      : GIAO ZORA, VPT2 properties, NMR spectrum
   Ute Becker             : All parallelization in ORCA, NUMFREQ, NUMCALC
   Giovanni Bistoni       : ED, misc. LED, open-shell LED, HFLD
   Martin Brehm           : Molecular dynamics
   Dmytro Bykov           : pre 5.0 version of the SCF Hessian
   Marcos Casanova-Páez   : Triplet and SCS-CIS(D). UHF-(DLPNO)-IP/EA/STEOM-CCSD. UHF-CVS-IP/STEOM-CCSD
   Vijay G. Chilkuri      : MRCI spin determinant printing, contributions to CSF-ICE
   Pauline Colinet        : FMM embedding
   Dipayan Datta          : RHF DLPNO-CCSD density
   Achintya Kumar Dutta   : EOM-CC, STEOM-CC
   Nicolas Foglia         : Exact transition moments, OPA infrastructure, MCD improvements
   Dmitry Ganyushin       : Spin-Orbit,Spin-Spin,Magnetic field MRCI
   Miquel Garcia          : C-PCM and meta-GGA Hessian, CCSD/C-PCM, Gaussian charge scheme
   Tiago L. C. Gouveia    : GS-ROHF, GS-ROCIS
   Yang Guo               : DLPNO-NEVPT2, F12-NEVPT2, CIM, IAO-localization
   Andreas Hansen         : Spin unrestricted coupled pair/coupled cluster methods
   Ingolf Harden          : AUTO-CI MPn and infrastructure 
   Benjamin Helmich-Paris : MC-RPA, TRAH-(SCF,CASSCF), AVAS, COSX integrals, SCF dyn. polar.
   Lee Huntington         : MR-EOM, pCC
   Robert Izsak           : Overlap fitted RIJCOSX, COSX-SCS-MP3, EOM
   Riya Kayal             : Wick's Theorem for AUTO-CI, AUTO-CI UHF-CCSDT
   Emily Kempfer          : AUTO-CI, RHF CISDT and CCSDT
   Christian Kollmar      : KDIIS, OOCD, Brueckner-CCSD(T), CCSD density, CASPT2, CASPT2-K, improved NEVPT2
   Axel Koslowski         : Symmetry handling
   Simone Kossmann        : Meta GGA functionals, TD-DFT gradient, OOMP2, (MP2 Hessian; deprecated post 5.0)
   Lucas Lang             : DCDCAS
   Marvin Lechner         : AUTO-CI (C++ implementation), FIC-MRCC
   Spencer Leger          : CASSCF response
   Dagmar Lenk            : GEPOL surface, SMD, ORCA-2-JSON
   Dimitrios Liakos       : Extrapolation schemes; Compound Job, initial MDCI parallelization
   Dimitrios Manganas     : Further ROCIS development; embedding schemes. LFT, Crystal Embedding
   Dimitrios Pantazis     : SARC Basis sets
   Anastasios Papadopoulos: AUTO-CI, single reference methods and gradients
   Taras Petrenko         : pre 6.0 DFT Hessian and TD-DFT gradient, (ASA, deprecated), ECA, 1-Electron XAS/XES, NRVS
   Peter Pinski           : DLPNO-MP2, DLPNO-MP2 Gradient
   Christoph Reimann      : Effective Core Potentials
   Marius Retegan         : Local ZFS, SOC
   Christoph Riplinger    : Optimizer, TS searches, QM/MM, DLPNO-CCSD(T), (RO)-DLPNO pert. Triples
   Michael Roemelt        : Original ROCIS implementation
   Masaaki Saitow         : Open-shell DLPNO-CCSD energy and density
   Barbara Sandhoefer     : DKH picture change effects
   Kantharuban Sivalingam : CASSCF convergence/infrastructure, NEVPT2 and variants, FIC-MRCI
   Bernardo de Souza      : ESD, SOC TD-DFT
   Georgi Stoychev        : AutoAux, RI-MP2 NMR, DLPNO-MP2 response, X2C
   Van Anh Tran           : RI-MP2 g-tensors
   Willem Van den Heuvel  : Paramagnetic NMR
   Zikuan Wang            : NOTCH, Electric field optimization 
   Frank Wennmohs         : Technical directorship and infrastructure
   Hang Xu                : AUTO-CI-Response properties 


 We gratefully acknowledge several colleagues who have allowed us to
 interface, adapt or use parts of their codes:
   Stefan Grimme, W. Hujo, H. Kruse, P. Pracht,  : VdW corrections, initial TS optimization,
                  C. Bannwarth, S. Ehlert,         DFT functionals, gCP, sTDA/sTD-DF
                  L. Wittmann, M. Mueller
   Ed Valeev, F. Pavosevic, A. Kumar             : LibInt (2-el integral package), F12 methods
   Garnet Chan, S. Sharma, J. Yang, R. Olivares  : DMRG
   Ulf Ekstrom                                   : XCFun DFT Library
   Mihaly Kallay                                 : mrcc  (arbitrary order and MRCC methods)
   Frank Weinhold                                : gennbo (NPA and NBO analysis)
   Simon Mueller                                 : openCOSMO-RS
   Christopher J. Cramer and Donald G. Truhlar   : smd solvation model
   Lars Goerigk                                  : TD-DFT with DH, B97 family of functionals
   V. Asgeirsson, H. Jonsson                     : NEB implementation
   FAccTs GmbH                                   : IRC, NEB, NEB-TS, DLPNO-Multilevel, CI-OPT
                                                   MM, QMMM, 2- and 3-layer-ONIOM, Crystal-QMMM,
                                                   LR-CPCM, SF, NACMEs, symmetry and pop. for TD-DFT,
                                                   nearIR, NL-DFT gradient (VV10), updates on ESD,
                                                   ML-optimized integration grids, MBIS, APM,
                                                   GOAT, DOCKER, SOLVATOR, interface openCOSMO-RS
   S Lehtola, MJT Oliveira, MAL Marques          : LibXC Library
   Liviu Ungur et al                             : ANISO software


 Your calculation uses the libint2 library for the computation of 2-el integrals
 For citations please refer to: http://libint.valeyev.net

 Your ORCA version has been built with support for libXC version: 6.2.2
 For citations please refer to: https://libxc.gitlab.io

 This ORCA versions uses:
   CBLAS   interface :  Fast vector & matrix operations
   LAPACKE interface :  Fast linear algebra routines
   SCALAPACK package :  Parallel linear algebra routines
   Shared memory     :  Shared parallel matrices
   BLAS/LAPACK       :  OpenBLAS 0.3.27  USE64BITINT DYNAMIC_ARCH NO_AFFINITY SkylakeX SINGLE_THREADED
        Core in use  :  SkylakeX
   Copyright (c) 2011-2014, The OpenBLAS Project


Warning: RI is on but no J-basis has been assigned. Assigning Def2/J (nothing to worry about!)
================================================================================

----- Orbital basis set information -----
Your calculation utilizes the basis: 6-31G*
   H-He, Li-Ne : W. J. Hehre, R. Ditchfield and J.A. Pople, J. Chem. Phys. 56, 2257 (1972).
                 Note: He and Ne are unpublished basis sets taken from the Gaussian program.
                 Note: Li and B from J. D. Dill and J. A. Pople, J. Chem. Phys. 62, 2921 (1975).
   Na - Ar     : M. M. Francl, W. J. Pietro, W. J. Hehre, J. S. Binkley, M. S. Gordon, 
                 D. J. DeFrees and J. A. Pople, J. Chem. Phys. 77, 3654 (1982).
   K - Zn      : V. A. Rassolov, J. A. Pople, M. A. Ratner, and T. L. Windus, J. Chem. Phys. 109, 1223 (1998).

----- AuxJ basis set information -----
Your calculation utilizes the auxiliary basis: def2/J
   F. Weigend, Phys. Chem. Chem. Phys. 8, 1057 (2006).

================================================================================
                                        WARNINGS
                       Please study these warnings very carefully!
================================================================================


================================================================================
                                       INPUT FILE
================================================================================
NAME = /home/nmrbox/aojoawo/Documents/ERDOS/inputs/CHEMBL1377190.inp
|  1> ! B3LYP 6-31G* SP
|  2> 
|  3> * xyz 0 1
|  4> C 5.1631 -1.2063 -1.1495
|  5> C 4.6501 -1.0107 0.2724
|  6> O 3.2511 -0.7334 0.2691
|  7> C 2.7114 0.5067 -0.0912
|  8> O 3.4663 1.4730 -0.3864
|  9> C 1.2521 0.6767 -0.1158
| 10> S 0.1343 -0.5233 0.2555
| 11> C -1.2030 0.4714 -0.0156
| 12> C -2.6220 0.0712 0.1253
| 13> C -3.6470 1.0004 -0.1316
| 14> C -4.9890 0.6304 -0.0009
| 15> C -5.3239 -0.6697 0.3873
| 16> Cl -7.0083 -1.1315 0.5506
| 17> C -4.3144 -1.6012 0.6451
| 18> C -2.9710 -1.2355 0.5157
| 19> N -0.8115 1.7129 -0.3876
| 20> C 0.5427 1.8297 -0.4441
| 21> O 1.1586 3.0234 -0.8062
| 22> H 4.5985 -2.0233 -1.6467
| 23> H 5.0442 -0.2719 -1.7365
| 24> H 6.2398 -1.4765 -1.1239
| 25> H 5.2070 -0.1901 0.7749
| 26> H 4.8234 -1.9457 0.8456
| 27> H -3.4127 2.0135 -0.4337
| 28> H -5.7673 1.3556 -0.2018
| 29> H -4.5691 -2.6095 0.9461
| 30> H -2.2106 -1.9772 0.7217
| 31> H 0.6072 3.8406 -1.0382
| 32> *
| 33> 
| 34>                          ****END OF INPUT****
================================================================================

                       ****************************
                       * Single Point Calculation *
                       ****************************

---------------------------------
CARTESIAN COORDINATES (ANGSTROEM)
---------------------------------
  C      5.163100   -1.206300   -1.149500
  C      4.650100   -1.010700    0.272400
  O      3.251100   -0.733400    0.269100
  C      2.711400    0.506700   -0.091200
  O      3.466300    1.473000   -0.386400
  C      1.252100    0.676700   -0.115800
  S      0.134300   -0.523300    0.255500
  C     -1.203000    0.471400   -0.015600
  C     -2.622000    0.071200    0.125300
  C     -3.647000    1.000400   -0.131600
  C     -4.989000    0.630400   -0.000900
  C     -5.323900   -0.669700    0.387300
  Cl    -7.008300   -1.131500    0.550600
  C     -4.314400   -1.601200    0.645100
  C     -2.971000   -1.235500    0.515700
  N     -0.811500    1.712900   -0.387600
  C      0.542700    1.829700   -0.444100
  O      1.158600    3.023400   -0.806200
  H      4.598500   -2.023300   -1.646700
  H      5.044200   -0.271900   -1.736500
  H      6.239800   -1.476500   -1.123900
  H      5.207000   -0.190100    0.774900
  H      4.823400   -1.945700    0.845600
  H     -3.412700    2.013500   -0.433700
  H     -5.767300    1.355600   -0.201800
  H     -4.569100   -2.609500    0.946100
  H     -2.210600   -1.977200    0.721700
  H      0.607200    3.840600   -1.038200

----------------------------
CARTESIAN COORDINATES (A.U.)
----------------------------
  NO LB      ZA    FRAG     MASS         X           Y           Z
   0 C     6.0000    0    12.011    9.756845   -2.279577   -2.172240
   1 C     6.0000    0    12.011    8.787415   -1.909946    0.514761
   2 O     8.0000    0    15.999    6.143689   -1.385925    0.508525
   3 C     6.0000    0    12.011    5.123803    0.957524   -0.172343
   4 O     8.0000    0    15.999    6.550358    2.783567   -0.730190
   5 C     6.0000    0    12.011    2.366126    1.278778   -0.218830
   6 S    16.0000    0    32.060    0.253790   -0.988894    0.482825
   7 C     6.0000    0    12.011   -2.273341    0.890817   -0.029480
   8 C     6.0000    0    12.011   -4.954862    0.134549    0.236783
   9 C     6.0000    0    12.011   -6.891831    1.890482   -0.248688
  10 C     6.0000    0    12.011   -9.427844    1.191283   -0.001701
  11 C     6.0000    0    12.011  -10.060713   -1.265550    0.731891
  12 Cl   17.0000    0    35.453  -13.243768   -2.138225    1.040483
  13 C     6.0000    0    12.011   -8.153034   -3.025829    1.219062
  14 C     6.0000    0    12.011   -5.614376   -2.334757    0.974532
  15 N     7.0000    0    14.007   -1.533513    3.236912   -0.732458
  16 C     6.0000    0    12.011    1.025554    3.457632   -0.839227
  17 O     8.0000    0    15.999    2.189437    5.713398   -1.523497
  18 H     1.0000    0     1.008    8.689906   -3.823483   -3.111812
  19 H     1.0000    0     1.008    9.532157   -0.513817   -3.281509
  20 H     1.0000    0     1.008   11.791513   -2.790181   -2.123863
  21 H     1.0000    0     1.008    9.839804   -0.359237    1.464349
  22 H     1.0000    0     1.008    9.114905   -3.676840    1.597952
  23 H     1.0000    0     1.008   -6.449068    3.804964   -0.819574
  24 H     1.0000    0     1.008  -10.898618    2.561713   -0.381347
  25 H     1.0000    0     1.008   -8.634348   -4.931240    1.787870
  26 H     1.0000    0     1.008   -4.177429   -3.736367    1.363815
  27 H     1.0000    0     1.008    1.147442    7.257682   -1.961914

--------------------------------
INTERNAL COORDINATES (ANGSTROEM)
--------------------------------
 C      0   0   0     0.000000000000     0.00000000     0.00000000
 C      1   0   0     1.524213885910     0.00000000     0.00000000
 O      2   1   0     1.426221294190   110.66696945     0.00000000
 C      3   2   1     1.399621445249   123.44319084   284.17343954
 O      4   3   2     1.261250466799   120.54920093   357.15743120
 C      4   3   2     1.469374577839   119.32607891   177.49028844
 S      6   4   3     1.681469752925   125.02636488   359.73287664
 C      7   6   4     1.688577682548    94.05007794   180.08190640
 C      8   7   6     1.481071858486   125.75561571   180.00556852
 C      9   8   7     1.407137253433   120.13902308   180.00021696
 C     10   9   8     1.398194010143   120.48689959   179.99742090
 C     11  10   9     1.397539716788   120.14212610     0.00000000
 Cl    12  11  10     1.754174874407   120.05723633   179.99930594
 C     12  11  10     1.397584823902   119.87980469     0.00000000
 C     14  12  11     1.398286240367   120.17082918     0.00000000
 N      8   7   6     1.353875363540   110.81066659     0.00000000
 C     16   8   7     1.360401459129   112.20947664     0.00000000
 O     17  16   8     1.391175369966   121.68041503   179.97614296
 H      1   2   3     1.110616945666   109.93360665   302.83999513
 H      1   2   3     1.109869167965   110.44406628    63.34733540
 H      1   2   3     1.110381146274   109.63808804   183.12835019
 H      2   1   3     1.111768060344   110.35108691   237.47770015
 H      2   1   3     1.110322534221   108.72318704   119.12649914
 H     10   9   8     1.082835403005   120.73985991     0.00000000
 H     11  10   9     1.082601838166   119.69683744   180.00287013
 H     14  12  11     1.082655060488   120.13819804   179.99934230
 H     15  14  12     1.082018045136   118.57319207   179.99853631
 H     18  17  16     1.012759497610   120.72716759     0.00000000

---------------------------
INTERNAL COORDINATES (A.U.)
---------------------------
 C      0   0   0     0.000000000000     0.00000000     0.00000000
 C      1   0   0     2.880346813889     0.00000000     0.00000000
 O      2   1   0     2.695167652385   110.66696945     0.00000000
 C      3   2   1     2.644901222683   123.44319084   284.17343954
 O      4   3   2     2.383417968530   120.54920093   357.15743120
 C      4   3   2     2.776715540262   119.32607891   177.49028844
 S      6   4   3     3.177517335500   125.02636488   359.73287664
 C      7   6   4     3.190949375868    94.05007794   180.08190640
 C      8   7   6     2.798820197197   125.75561571   180.00556852
 C      9   8   7     2.659104041827   120.13902308   180.00021696
 C     10   9   8     2.642203761260   120.48689959   179.99742090
 C     11  10   9     2.640967326007   120.14212610     0.00000000
 Cl    12  11  10     3.314910103634   120.05723633   179.99930594
 C     12  11  10     2.641052566099   119.87980469     0.00000000
 C     14  12  11     2.642378051124   120.17082918     0.00000000
 N      8   7   6     2.558453656553   110.81066659     0.00000000
 C     16   8   7     2.570786189940   112.20947664     0.00000000
 O     17  16   8     2.628940453492   121.68041503   179.97614296
 H      1   2   3     2.098761867000   109.93360665   302.83999513
 H      1   2   3     2.097348771937   110.44406628    63.34733540
 H      1   2   3     2.098316270727   109.63808804   183.12835019
 H      2   1   3     2.100937158490   110.35108691   237.47770015
 H      2   1   3     2.098205510000   108.72318704   119.12649914
 H     10   9   8     2.046262359793   120.73985991     0.00000000
 H     11  10   9     2.045820986213   119.69683744   180.00287013
 H     14  12  11     2.045921561826   120.13819804   179.99934230
 H     15  14  12     2.044717777268   118.57319207   179.99853631
 H     18  17  16     1.913838090011   120.72716759     0.00000000

---------------------
BASIS SET INFORMATION
---------------------
There are 6 groups of distinct atoms

 Group   1 Type C   : 10s4p1d contracted to 3s2p1d pattern {631/31/1}
 Group   2 Type O   : 10s4p1d contracted to 3s2p1d pattern {631/31/1}
 Group   3 Type S   : 16s10p1d contracted to 4s3p1d pattern {6631/631/1}
 Group   4 Type Cl  : 16s10p1d contracted to 4s3p1d pattern {6631/631/1}
 Group   5 Type N   : 10s4p1d contracted to 3s2p1d pattern {631/31/1}
 Group   6 Type H   : 4s contracted to 2s pattern {31}

Atom   0C    basis set group =>   1
Atom   1C    basis set group =>   1
Atom   2O    basis set group =>   2
Atom   3C    basis set group =>   1
Atom   4O    basis set group =>   2
Atom   5C    basis set group =>   1
Atom   6S    basis set group =>   3
Atom   7C    basis set group =>   1
Atom   8C    basis set group =>   1
Atom   9C    basis set group =>   1
Atom  10C    basis set group =>   1
Atom  11C    basis set group =>   1
Atom  12Cl   basis set group =>   4
Atom  13C    basis set group =>   1
Atom  14C    basis set group =>   1
Atom  15N    basis set group =>   5
Atom  16C    basis set group =>   1
Atom  17O    basis set group =>   2
Atom  18H    basis set group =>   6
Atom  19H    basis set group =>   6
Atom  20H    basis set group =>   6
Atom  21H    basis set group =>   6
Atom  22H    basis set group =>   6
Atom  23H    basis set group =>   6
Atom  24H    basis set group =>   6
Atom  25H    basis set group =>   6
Atom  26H    basis set group =>   6
Atom  27H    basis set group =>   6
---------------------------------
AUXILIARY/J BASIS SET INFORMATION
---------------------------------
There are 6 groups of distinct atoms

 Group   1 Type C   : 12s5p4d2f1g contracted to 6s4p3d1f1g pattern {711111/2111/211/2/1}
 Group   2 Type O   : 12s5p4d2f1g contracted to 6s4p3d1f1g pattern {711111/2111/211/2/1}
 Group   3 Type S   : 14s5p5d2f1g contracted to 8s4p3d1f1g pattern {71111111/2111/311/2/1}
 Group   4 Type Cl  : 14s5p5d2f1g contracted to 8s4p3d1f1g pattern {71111111/2111/311/2/1}
 Group   5 Type N   : 12s5p4d2f1g contracted to 6s4p3d1f1g pattern {711111/2111/211/2/1}
 Group   6 Type H   : 5s2p1d contracted to 3s1p1d pattern {311/2/1}

Atom   0C    basis set group =>   1
Atom   1C    basis set group =>   1
Atom   2O    basis set group =>   2
Atom   3C    basis set group =>   1
Atom   4O    basis set group =>   2
Atom   5C    basis set group =>   1
Atom   6S    basis set group =>   3
Atom   7C    basis set group =>   1
Atom   8C    basis set group =>   1
Atom   9C    basis set group =>   1
Atom  10C    basis set group =>   1
Atom  11C    basis set group =>   1
Atom  12Cl   basis set group =>   4
Atom  13C    basis set group =>   1
Atom  14C    basis set group =>   1
Atom  15N    basis set group =>   5
Atom  16C    basis set group =>   1
Atom  17O    basis set group =>   2
Atom  18H    basis set group =>   6
Atom  19H    basis set group =>   6
Atom  20H    basis set group =>   6
Atom  21H    basis set group =>   6
Atom  22H    basis set group =>   6
Atom  23H    basis set group =>   6
Atom  24H    basis set group =>   6
Atom  25H    basis set group =>   6
Atom  26H    basis set group =>   6
Atom  27H    basis set group =>   6
------------------------------------------------------------------------------
                             ORCA STARTUP CALCULATIONS
                           -- RI-GTO INTEGRALS CHOSEN --
------------------------------------------------------------------------------
------------------------------------------------------------------------------
                   ___                                                        
                  /   \      - P O W E R E D   B Y -                         
                 /     \                                                     
                 |  |  |   _    _      __       _____    __    __             
                 |  |  |  | |  | |    /  \     |  _  \  |  |  /  |          
                  \  \/   | |  | |   /    \    | | | |  |  | /  /          
                 / \  \   | |__| |  /  /\  \   | |_| |  |  |/  /          
                |  |  |   |  __  | /  /__\  \  |    /   |      \           
                |  |  |   | |  | | |   __   |  |    \   |  |\   \          
                \     /   | |  | | |  |  |  |  | |\  \  |  | \   \       
                 \___/    |_|  |_| |__|  |__|  |_| \__\ |__|  \__/        
                                                                              
                      - O R C A' S   B I G   F R I E N D -                    
                                      &                                       
                       - I N T E G R A L  F E E D E R -                       
                                                                              
 v1 FN, 2020, v2 2021, v3 2022-2024                                           
------------------------------------------------------------------------------


----------------------
SHARK INTEGRAL PACKAGE
----------------------

Number of atoms                             ...     28
Number of basis functions                   ...    280
Number of shells                            ...    132
Maximum angular momentum                    ...      2
Integral batch strategy                     ... SHARK/LIBINT Hybrid
RI-J (if used) integral strategy            ... SPLIT-RIJ (Revised 2003 algorithm where possible)
Printlevel                                  ...      1
Contraction scheme used                     ... SEGMENTED contraction
Prescreening option                         ... SCHWARTZ
   Thresh                                   ... 1.000e-10
   Tcut                                     ... 1.000e-11
   Tpresel                                  ... 1.000e-11 
Coulomb Range Separation                    ... NOT USED
Exchange Range Separation                   ... NOT USED
Multipole approximations                    ... NOT USED
Finite Nucleus Model                        ... NOT USED
CABS basis                                  ... NOT available
Auxiliary Coulomb fitting basis             ... AVAILABLE
   # of basis functions in Aux-J            ...    996
   # of shells in Aux-J                     ...    324
   Maximum angular momentum in Aux-J        ...      4
Auxiliary J/K fitting basis                 ... NOT available
Auxiliary Correlation fitting basis         ... NOT available
Auxiliary 'external' fitting basis          ... NOT available

Checking pre-screening integrals            ... done (  0.0 sec) Dimension = 132
Check shell pair data                       ... done (  0.0 sec)
Shell pair information
Shell pair cut-off parameter TPreSel        ...   1.0e-11
Total number of shell pairs                 ...      8778
Shell pairs after pre-screening             ...      5708
Total number of primitive shell pairs       ...     56413
Primitive shell pairs kept                  ...     20509
          la=0 lb=0:   1756 shell pairs
          la=1 lb=0:   1999 shell pairs
          la=1 lb=1:    584 shell pairs
          la=2 lb=0:    793 shell pairs
          la=2 lb=1:    475 shell pairs
          la=2 lb=2:    101 shell pairs

Calculating one electron integrals          ... done (  0.1 sec)
Calculating RI/J V-Matrix + Cholesky decomp.... done (  0.1 sec)
Calculating Nuclear repulsion               ... done (  0.0 sec) ENN=   1433.612908565715 Eh

Diagonalization of the overlap matrix:
Smallest eigenvalue                        ... 4.603e-04
Time for diagonalization                   ...    0.023 sec
Threshold for overlap eigenvalues          ... 1.000e-07
Number of eigenvalues below threshold      ... 0
Time for construction of square roots      ...    0.015 sec
Total time needed                          ...    0.048 sec

-------------------
DFT GRID GENERATION
-------------------

General Integration Accuracy     IntAcc      ... 4.388
Radial Grid Type                 RadialGrid  ... OptM3 with GC (2021)
Angular Grid (max. ang.)         AngularGrid ... 4 (Lebedev-302)
Angular grid pruning method      GridPruning ... 4 (adaptive)
Weight generation scheme         WeightScheme... mBecke (2022)
Basis function cutoff            BFCut       ... 1.0000e-10
Integration weight cutoff        WCut        ... 1.0000e-14
Partially contracted basis set               ... off
Rotationally invariant grid construction     ... off
Angular grids for H and He will be reduced by one unit

Total number of grid points                  ...   142961
Total number of batches                      ...     2245
Average number of points per batch           ...       63
Average number of grid points per atom       ...     5106

--------------------
COSX GRID GENERATION
--------------------

GRIDX 1
-------
General Integration Accuracy     IntAcc      ... 3.816
Radial Grid Type                 RadialGrid  ... OptM3 with GC (2021)
Angular Grid (max. ang.)         AngularGrid ... 1 (Lebedev-50)
Angular grid pruning method      GridPruning ... 4 (adaptive)
Weight generation scheme         WeightScheme... mBecke (2022)
Basis function cutoff            BFCut       ... 1.0000e-10
Integration weight cutoff        WCut        ... 1.0000e-14
Partially contracted basis set               ... on
Rotationally invariant grid construction     ... off
Angular grids for H and He will be reduced by one unit

Total number of grid points                  ...    20228
Total number of batches                      ...      173
Average number of points per batch           ...      116
Average number of grid points per atom       ...      722
UseSFitting                                  ... on

GRIDX 2
-------
General Integration Accuracy     IntAcc      ... 4.020
Radial Grid Type                 RadialGrid  ... OptM3 with GC (2021)
Angular Grid (max. ang.)         AngularGrid ... 2 (Lebedev-110)
Angular grid pruning method      GridPruning ... 4 (adaptive)
Weight generation scheme         WeightScheme... mBecke (2022)
Basis function cutoff            BFCut       ... 1.0000e-10
Integration weight cutoff        WCut        ... 1.0000e-14
Partially contracted basis set               ... on
Rotationally invariant grid construction     ... off
Angular grids for H and He will be reduced by one unit

Total number of grid points                  ...    40057
Total number of batches                      ...      328
Average number of points per batch           ...      122
Average number of grid points per atom       ...     1431
UseSFitting                                  ... on

GRIDX 3
-------
General Integration Accuracy     IntAcc      ... 4.338
Radial Grid Type                 RadialGrid  ... OptM3 with GC (2021)
Angular Grid (max. ang.)         AngularGrid ... 3 (Lebedev-194)
Angular grid pruning method      GridPruning ... 4 (adaptive)
Weight generation scheme         WeightScheme... mBecke (2022)
Basis function cutoff            BFCut       ... 1.0000e-10
Integration weight cutoff        WCut        ... 1.0000e-14
Partially contracted basis set               ... on
Rotationally invariant grid construction     ... off
Angular grids for H and He will be reduced by one unit

Total number of grid points                  ...    89163
Total number of batches                      ...      710
Average number of points per batch           ...      125
Average number of grid points per atom       ...     3184
UseSFitting                                  ... on
Initializing property integral containers    ... done (  0.1 sec)

SHARK setup successfully completed in   4.2 seconds

Maximum memory used throughout the entire STARTUP-calculation: 59.2 MB
-------------------------------------------------------------------------------
                                 ORCA GUESS
                   Start orbitals & Density for SCF / CASSCF
-------------------------------------------------------------------------------

------------
SCF SETTINGS
------------
Hamiltonian:
 Density Functional     Method          .... DFT(GTOs)
 Exchange Functional    Exchange        .... B88
   X-Alpha parameter    XAlpha          ....  0.666667
   Becke's b parameter  XBeta           ....  0.004200
 Correlation Functional Correlation     .... LYP
 LDA part of GGA corr.  LDAOpt          .... VWN-5
 Gradients option       PostSCFGGA      .... off
 Hybrid DFT is turned on
   Fraction HF Exchange ScalHFX         ....  0.200000
   Scaling of DF-GGA-X  ScalDFX         ....  0.720000
   Scaling of DF-GGA-C  ScalDFC         ....  0.810000
   Scaling of DF-LDA-C  ScalLDAC        ....  1.000000
   Perturbative correction              ....  0.000000
   NL short-range parameter             ....  4.800000
 RI-approximation to the Coulomb term is turned on
   Number of AuxJ basis functions       .... 996
   RIJ-COSX (HFX calculated with COS-X)).... on


General Settings:
 Integral files         IntName         .... /home/nmrbox/aojoawo/Documents/ERDOS/inputs/CHEMBL1377190
 Hartree-Fock type      HFTyp           .... RHF
 Total Charge           Charge          ....    0
 Multiplicity           Mult            ....    1
 Number of Electrons    NEL             ....  146
 Basis Dimension        Dim             ....  280
 Nuclear Repulsion      ENuc            ....   1433.6129085657 Eh

Convergence Acceleration:
 AO-DIIS                CNVDIIS         .... on
   Start iteration      DIISMaxIt       ....    12
   Startup error        DIISStart       ....  0.200000
   # of expansion vecs  DIISMaxEq       ....     5
   Bias factor          DIISBfac        ....   1.050
   Max. coefficient     DIISMaxC        ....  10.000
 MO-DIIS                CNVKDIIS        .... off
 Trust-Rad. Augm. Hess. CNVTRAH         .... auto
   Auto Start mean grad. ratio tolernc. ....  1.125000
   Auto Start start iteration           ....    50
   Auto Start num. interpolation iter.  ....    10
   Max. Number of Micro iterations      ....    24
   Max. Number of Macro iterations      .... Maxiter - #DIIS iter
   Number of Davidson start vectors     ....     2
   Converg. threshold    (grad. norm)   ....   5.000e-05
   Grad. Scal. Fac. for Micro threshold ....   0.100
   Minimum threshold for Micro iter.    ....   1.000e-02
   NR start threshold (gradient norm)   ....   1.000e-04
   Initial trust radius                 ....   0.400
   Minimum AH scaling param. (alpha)    ....   1.000
   Maximum AH scaling param. (alpha)    .... 1000.000
   Quad. conv. algorithm                .... NR
   White noise on init. David. guess    .... on
   Maximum white noise                  ....   0.010
   Pseudo random numbers                .... off
   Inactive MOs                         .... canonical
   Orbital update algorithm             .... Taylor
   Preconditioner                       .... Diag
   Full preconditioner red. dimension   ....   250
 SOSCF                  CNVSOSCF        .... on
   Start iteration      SOSCFMaxIt      ....   150
   Startup grad/error   SOSCFStart      ....  0.003300
   Hessian update       SOSCFHessUp     .... L-BFGS
 Level Shifting         CNVShift        .... on
   Level shift para.    LevelShift      ....    0.2500
   Turn off err/grad.   ShiftErr        ....    0.0010
 Zerner damping         CNVZerner       .... off
 Static damping         CNVDamp         .... on
   Fraction old density DampFac         ....    0.7000
   Max. Damping (<1)    DampMax         ....    0.9800
   Min. Damping (>=0)   DampMin         ....    0.0000
   Turn off err/grad.   DampErr         ....    0.1000

SCF Procedure:
 Maximum # iterations   MaxIter         ....   125
 SCF integral mode      SCFMode         .... Direct
   Integral package                     .... SHARK and LIBINT hybrid scheme
 Reset frequency        DirectResetFreq ....    20
 Integral Threshold     Thresh          ....  1.000e-10 Eh
 Primitive CutOff       TCut            ....  1.000e-11 Eh

Convergence Tolerance:
 Convergence Check Mode ConvCheckMode   .... Total+1el-Energy
 Convergence forced     ConvForced      .... 0
 Energy Change          TolE            ....  1.000e-06 Eh
 1-El. energy change                    ....  1.000e-03 Eh
 Orbital Gradient       TolG            ....  5.000e-05
 Orbital Rotation angle TolX            ....  5.000e-05
 DIIS Error             TolErr          ....  1.000e-06

------------------------------
INITIAL GUESS: MODEL POTENTIAL
------------------------------
Loading Hartree-Fock densities                     ... done
Calculating cut-offs                               ... done
Initializing the effective Hamiltonian             ... done
Setting up the integral package (SHARK)            ... done
Starting the Coulomb interaction                   ... done (   0.5 sec)
Making the grid                                    ... done (   0.4 sec)
Mapping shells                                     ... done
Starting the XC term evaluation                    ... done (   0.3 sec)
  promolecular density results
     # of electrons  =    145.992979881
     EX              =   -148.354302626
     EC              =     -5.263481682
     EX+EC           =   -153.617784308
Transforming the Hamiltonian                       ... done (   0.0 sec)
Diagonalizing the Hamiltonian                      ... done (   0.0 sec)
Back transforming the eigenvectors                 ... done (   0.0 sec)
Now organizing SCF variables                       ... done
                      ------------------
                      INITIAL GUESS DONE (   1.3 sec)
                      ------------------
             **** ENERGY FILE WAS UPDATED (/home/nmrbox/aojoawo/Documents/ERDOS/inputs/CHEMBL1377190.en.tmp) ****
Finished Guess after   1.5 sec
Maximum memory used throughout the entire GUESS-calculation: 30.4 MB

-------------------------------------------------------------------------------------------
                                      ORCA LEAN-SCF
                              memory conserving SCF solver
-------------------------------------------------------------------------------------------

----------------------------------------D-I-I-S--------------------------------------------
Iteration    Energy (Eh)           Delta-E    RMSDP     MaxDP     DIISErr   Damp  Time(sec)
-------------------------------------------------------------------------------------------
               ***  Starting incremental Fock matrix formation  ***
    1    -1601.0571433741456531     0.00e+00  2.95e-03  1.17e-01  2.85e-01  0.700  13.2
    2    -1601.2865030902426042    -2.29e-01  1.86e-03  6.40e-02  9.59e-02  0.700   6.7
                               ***Turning on AO-DIIS***
    3    -1601.3639630082502663    -7.75e-02  7.58e-04  2.20e-02  3.35e-02  0.700   6.6
    4    -1601.4137149875014074    -4.98e-02  1.35e-03  6.10e-02  1.49e-02  0.000   6.0
    5    -1601.5267257070750020    -1.13e-01  3.26e-04  9.72e-03  8.67e-03  0.000   6.3
                              *** Initializing SOSCF ***
---------------------------------------S-O-S-C-F--------------------------------------
Iteration    Energy (Eh)           Delta-E    RMSDP     MaxDP     MaxGrad    Time(sec)
--------------------------------------------------------------------------------------
    6    -1601.5277319265442202    -1.01e-03  1.14e-04  3.80e-03  3.28e-03     5.7
               *** Restarting incremental Fock matrix formation ***
    7    -1601.5278032462274496    -7.13e-05  8.99e-05  4.08e-03  5.23e-04    13.0
    8    -1601.5277686719832673     3.46e-05  5.44e-05  3.20e-03  1.42e-03     8.6
    9    -1601.5278216652791343    -5.30e-05  1.57e-05  7.04e-04  8.76e-05     7.8
   10    -1601.5278204097717207     1.26e-06  1.01e-05  5.22e-04  1.88e-04     6.7
   11    -1601.5278221813259734    -1.77e-06  5.34e-06  3.01e-04  3.24e-05     6.3
   12    -1601.5278221261937688     5.51e-08  3.30e-06  1.95e-04  3.78e-05     5.6
                 **** Energy Check signals convergence ****

               *****************************************************
               *                     SUCCESS                       *
               *           SCF CONVERGED AFTER  12 CYCLES          *
               *****************************************************

Recomputing exchange energy using gridx3       ... done (   22.239 sec)
Old exchange energy                            :    -29.912494960 Eh
New exchange energy                            :    -29.912519980 Eh
Exchange energy change after final integration :     -0.000025021 Eh
Total energy after final integration           :  -1601.527847147 Eh
             **** ENERGY FILE WAS UPDATED (/home/nmrbox/aojoawo/Documents/ERDOS/inputs/CHEMBL1377190.en.tmp) ****

----------------
TOTAL SCF ENERGY
----------------

Total Energy       :      -1601.52784714677364 Eh          -43579.78827 eV

Components:
Nuclear Repulsion  :       1433.61290856571486 Eh           39010.59050 eV
Electronic Energy  :      -3035.14073069190817 Eh          -82590.37810 eV
One Electron Energy:      -5046.91630183151119 Eh         -137333.57448 eV
Two Electron Energy:       2011.77557113960279 Eh           54743.19638 eV

Virial components:
Potential Energy   :      -3196.61903904559767 Eh          -86984.42626 eV
Kinetic Energy     :       1595.09119189882426 Eh           43404.63798 eV
Virial Ratio       :          2.00403528981957

DFT components:
N(Alpha)           :       72.999987063758 electrons
N(Beta)            :       72.999987063758 electrons
N(Total)           :      145.999974127516 electrons
E(X)               :     -118.860520566685 Eh       
E(C)               :       -6.182317833278 Eh       
E(XC)              :     -125.042838399963 Eh       

---------------
SCF CONVERGENCE
---------------

  Last Energy change         ...   -5.5132e-08  Tolerance :   1.0000e-06
  Last MAX-Density change    ...    1.9523e-04  Tolerance :   1.0000e-05
  Last RMS-Density change    ...    3.2976e-06  Tolerance :   1.0000e-06
  Last DIIS Error            ...    3.2786e-03  Tolerance :   1.0000e-06
  Last Orbital Gradient      ...    3.7759e-05  Tolerance :   5.0000e-05
  Last Orbital Rotation      ...    7.6352e-05  Tolerance :   5.0000e-05


----------------
ORBITAL ENERGIES
----------------

  NO   OCC          E(Eh)            E(eV) 
   0   2.0000    -101.537756     -2762.9828 
   1   2.0000     -88.911849     -2419.4144 
   2   2.0000     -19.180913      -521.9392 
   3   2.0000     -19.177152      -521.8368 
   4   2.0000     -19.119425      -520.2660 
   5   2.0000     -14.345064      -390.3490 
   6   2.0000     -10.321574      -280.8643 
   7   2.0000     -10.298517      -280.2369 
   8   2.0000     -10.271537      -279.5027 
   9   2.0000     -10.260332      -279.1978 
  10   2.0000     -10.237154      -278.5671 
  11   2.0000     -10.228396      -278.3288 
  12   2.0000     -10.225578      -278.2521 
  13   2.0000     -10.213126      -277.9133 
  14   2.0000     -10.210500      -277.8418 
  15   2.0000     -10.208855      -277.7971 
  16   2.0000     -10.208298      -277.7819 
  17   2.0000     -10.170006      -276.7399 
  18   2.0000      -9.469614      -257.6813 
  19   2.0000      -7.988869      -217.3882 
  20   2.0000      -7.232653      -196.8105 
  21   2.0000      -7.223260      -196.5549 
  22   2.0000      -7.222849      -196.5437 
  23   2.0000      -5.951820      -161.9573 
  24   2.0000      -5.947764      -161.8469 
  25   2.0000      -5.945966      -161.7980 
  26   2.0000      -1.072140       -29.1744 
  27   2.0000      -1.050520       -28.5861 
  28   2.0000      -0.983702       -26.7679 
  29   2.0000      -0.971857       -26.4456 
  30   2.0000      -0.900485       -24.5034 
  31   2.0000      -0.852837       -23.2069 
  32   2.0000      -0.828476       -22.5440 
  33   2.0000      -0.783818       -21.3288 
  34   2.0000      -0.769809       -20.9476 
  35   2.0000      -0.759578       -20.6692 
  36   2.0000      -0.730359       -19.8741 
  37   2.0000      -0.667171       -18.1546 
  38   2.0000      -0.639548       -17.4030 
  39   2.0000      -0.635406       -17.2903 
  40   2.0000      -0.607750       -16.5377 
  41   2.0000      -0.589059       -16.0291 
  42   2.0000      -0.558478       -15.1970 
  43   2.0000      -0.529354       -14.4044 
  44   2.0000      -0.523668       -14.2497 
  45   2.0000      -0.505743       -13.7620 
  46   2.0000      -0.484677       -13.1887 
  47   2.0000      -0.470036       -12.7903 
  48   2.0000      -0.466937       -12.7060 
  49   2.0000      -0.457252       -12.4425 
  50   2.0000      -0.449377       -12.2282 
  51   2.0000      -0.443544       -12.0694 
  52   2.0000      -0.438929       -11.9439 
  53   2.0000      -0.424159       -11.5420 
  54   2.0000      -0.406798       -11.0695 
  55   2.0000      -0.397658       -10.8208 
  56   2.0000      -0.387837       -10.5536 
  57   2.0000      -0.383477       -10.4349 
  58   2.0000      -0.375255       -10.2112 
  59   2.0000      -0.373007       -10.1500 
  60   2.0000      -0.368921       -10.0389 
  61   2.0000      -0.361882        -9.8473 
  62   2.0000      -0.361032        -9.8242 
  63   2.0000      -0.338513        -9.2114 
  64   2.0000      -0.326975        -8.8974 
  65   2.0000      -0.320683        -8.7262 
  66   2.0000      -0.294110        -8.0031 
  67   2.0000      -0.288645        -7.8544 
  68   2.0000      -0.282465        -7.6863 
  69   2.0000      -0.273887        -7.4528 
  70   2.0000      -0.266090        -7.2407 
  71   2.0000      -0.255943        -6.9646 
  72   2.0000      -0.224173        -6.1000 
  73   0.0000      -0.077486        -2.1085 
  74   0.0000      -0.024831        -0.6757 
  75   0.0000      -0.013531        -0.3682 
  76   0.0000       0.014089         0.3834 
  77   0.0000       0.026258         0.7145 
  78   0.0000       0.031236         0.8500 
  79   0.0000       0.068800         1.8721 
  80   0.0000       0.083403         2.2695 
  81   0.0000       0.093248         2.5374 
  82   0.0000       0.109927         2.9913 
  83   0.0000       0.117926         3.2089 
*Only the first 10 virtual orbitals were printed.

                    ********************************
                    * MULLIKEN POPULATION ANALYSIS *
                    ********************************

-----------------------
MULLIKEN ATOMIC CHARGES
-----------------------
   0 C :   -0.459961
   1 C :   -0.017322
   2 O :   -0.487801
   3 C :    0.588514
   4 O :   -0.452131
   5 C :   -0.266970
   6 S :    0.302020
   7 C :   -0.016588
   8 C :    0.134881
   9 C :   -0.141023
  10 C :   -0.132887
  11 C :   -0.057963
  12 Cl:   -0.005686
  13 C :   -0.138112
  14 C :   -0.176447
  15 N :   -0.427672
  16 C :    0.513620
  17 O :   -0.615729
  18 H :    0.149980
  19 H :    0.180785
  20 H :    0.142171
  21 H :    0.158053
  22 H :    0.150452
  23 H :    0.169668
  24 H :    0.160122
  25 H :    0.160074
  26 H :    0.160369
  27 H :    0.425585
Sum of atomic charges:   -0.0000000

--------------------------------
MULLIKEN REDUCED ORBITAL CHARGES
--------------------------------
  0 C s       :     3.309861  s :     3.309861
      pz      :     0.978165  p :     3.116817
      px      :     1.043176
      py      :     1.095477
      dz2     :     0.006926  d :     0.033283
      dxz     :     0.003938
      dyz     :     0.009975
      dx2y2   :     0.007707
      dxy     :     0.004736

  1 C s       :     3.198808  s :     3.198808
      pz      :     1.003469  p :     2.754684
      px      :     0.697880
      py      :     1.053334
      dz2     :     0.009944  d :     0.063831
      dxz     :     0.013336
      dyz     :     0.011679
      dx2y2   :     0.016692
      dxy     :     0.012181

  2 O s       :     3.855335  s :     3.855335
      pz      :     1.747620  p :     4.607759
      px      :     1.367593
      py      :     1.492545
      dz2     :     0.003378  d :     0.024707
      dxz     :     0.003397
      dyz     :     0.004436
      dx2y2   :     0.008835
      dxy     :     0.004661

  3 C s       :     2.983514  s :     2.983514
      pz      :     0.807105  p :     2.315515
      px      :     0.828558
      py      :     0.679853
      dz2     :     0.008800  d :     0.112457
      dxz     :     0.012488
      dyz     :     0.020028
      dx2y2   :     0.041964
      dxy     :     0.029177

  4 O s       :     3.892975  s :     3.892975
      pz      :     1.425306  p :     4.533066
      px      :     1.615111
      py      :     1.492649
      dz2     :     0.003187  d :     0.026090
      dxz     :     0.003667
      dyz     :     0.005684
      dx2y2   :     0.006187
      dxy     :     0.007365

  5 C s       :     3.228219  s :     3.228219
      pz      :     1.201910  p :     3.001940
      px      :     0.884634
      py      :     0.915396
      dz2     :     0.004257  d :     0.036812
      dxz     :     0.005687
      dyz     :     0.005337
      dx2y2   :     0.008711
      dxy     :     0.012819

  6 S s       :     5.798618  s :     5.798618
      pz      :     3.577688  p :     9.793883
      px      :     2.927300
      py      :     3.288895
      dz2     :     0.011860  d :     0.105479
      dxz     :     0.023160
      dyz     :     0.010883
      dx2y2   :     0.013895
      dxy     :     0.045680

  7 C s       :     3.181066  s :     3.181066
      pz      :     1.001108  p :     2.775306
      px      :     0.919319
      py      :     0.854879
      dz2     :     0.005484  d :     0.060216
      dxz     :     0.008606
      dyz     :     0.009913
      dx2y2   :     0.015752
      dxy     :     0.020461

  8 C s       :     3.128343  s :     3.128343
      pz      :     0.985968  p :     2.697098
      px      :     0.845635
      py      :     0.865496
      dz2     :     0.003927  d :     0.039678
      dxz     :     0.005883
      dyz     :     0.005940
      dx2y2   :     0.012863
      dxy     :     0.011065

  9 C s       :     3.204632  s :     3.204632
      pz      :     0.965133  p :     2.900658
      px      :     0.933906
      py      :     1.001619
      dz2     :     0.003126  d :     0.035734
      dxz     :     0.006443
      dyz     :     0.003545
      dx2y2   :     0.011923
      dxy     :     0.010698

 10 C s       :     3.197733  s :     3.197733
      pz      :     0.987094  p :     2.899795
      px      :     0.973114
      py      :     0.939587
      dz2     :     0.003772  d :     0.035359
      dxz     :     0.004678
      dyz     :     0.004541
      dx2y2   :     0.009637
      dxy     :     0.012731

 11 C s       :     3.177547  s :     3.177547
      pz      :     1.028232  p :     2.831538
      px      :     0.810580
      py      :     0.992725
      dz2     :     0.004468  d :     0.048878
      dxz     :     0.007834
      dyz     :     0.006401
      dx2y2   :     0.015495
      dxy     :     0.014679

 12 Cls       :     5.925808  s :     5.925808
      pz      :     3.922273  p :    11.050426
      px      :     3.230871
      py      :     3.897282
      dz2     :     0.004502  d :     0.029452
      dxz     :     0.006353
      dyz     :     0.000522
      dx2y2   :     0.011318
      dxy     :     0.006758

 13 C s       :     3.196798  s :     3.196798
      pz      :     0.993515  p :     2.905980
      px      :     0.917121
      py      :     0.995344
      dz2     :     0.003216  d :     0.035334
      dxz     :     0.006374
      dyz     :     0.003585
      dx2y2   :     0.011140
      dxy     :     0.011018

 14 C s       :     3.197198  s :     3.197198
      pz      :     0.988487  p :     2.943362
      px      :     0.978733
      py      :     0.976143
      dz2     :     0.003740  d :     0.035886
      dxz     :     0.004956
      dyz     :     0.004457
      dx2y2   :     0.009336
      dxy     :     0.013397

 15 N s       :     3.704299  s :     3.704299
      pz      :     1.222523  p :     3.685518
      px      :     1.190859
      py      :     1.272136
      dz2     :     0.004903  d :     0.037855
      dxz     :     0.006178
      dyz     :     0.006745
      dx2y2   :     0.014060
      dxy     :     0.005969

 16 C s       :     2.983358  s :     2.983358
      pz      :     0.906655  p :     2.415355
      px      :     0.788443
      py      :     0.720258
      dz2     :     0.007706  d :     0.087667
      dxz     :     0.013396
      dyz     :     0.014070
      dx2y2   :     0.024795
      dxy     :     0.027700

 17 O s       :     3.897005  s :     3.897005
      pz      :     1.787476  p :     4.694996
      px      :     1.645837
      py      :     1.261682
      dz2     :     0.003878  d :     0.023728
      dxz     :     0.003502
      dyz     :     0.002692
      dx2y2   :     0.002004
      dxy     :     0.011653

 18 H s       :     0.850020  s :     0.850020

 19 H s       :     0.819215  s :     0.819215

 20 H s       :     0.857829  s :     0.857829

 21 H s       :     0.841947  s :     0.841947

 22 H s       :     0.849548  s :     0.849548

 23 H s       :     0.830332  s :     0.830332

 24 H s       :     0.839878  s :     0.839878

 25 H s       :     0.839926  s :     0.839926

 26 H s       :     0.839631  s :     0.839631

 27 H s       :     0.574415  s :     0.574415



                     *******************************
                     * LOEWDIN POPULATION ANALYSIS *
                     *******************************

----------------------
LOEWDIN ATOMIC CHARGES
----------------------
   0 C :   -0.375095
   1 C :   -0.090359
   2 O :   -0.182116
   3 C :    0.180106
   4 O :   -0.258464
   5 C :   -0.272146
   6 S :    0.424223
   7 C :   -0.107621
   8 C :   -0.030989
   9 C :   -0.096780
  10 C :   -0.128893
  11 C :   -0.079775
  12 Cl:    0.045985
  13 C :   -0.129359
  14 C :   -0.113576
  15 N :   -0.185794
  16 C :    0.116419
  17 O :   -0.310141
  18 H :    0.127089
  19 H :    0.141390
  20 H :    0.129020
  21 H :    0.126330
  22 H :    0.127073
  23 H :    0.154476
  24 H :    0.148645
  25 H :    0.148559
  26 H :    0.146634
  27 H :    0.345157

-------------------------------
LOEWDIN REDUCED ORBITAL CHARGES
-------------------------------
  0 C s       :     2.989846  s :     2.989846
      pz      :     1.073511  p :     3.319766
      px      :     1.108912
      py      :     1.137344
      dz2     :     0.015494  d :     0.065482
      dxz     :     0.008798
      dyz     :     0.019097
      dx2y2   :     0.013821
      dxy     :     0.008271

  1 C s       :     2.934846  s :     2.934846
      pz      :     1.091581  p :     3.019875
      px      :     0.821681
      py      :     1.106613
      dz2     :     0.022518  d :     0.135638
      dxz     :     0.029959
      dyz     :     0.021913
      dx2y2   :     0.035962
      dxy     :     0.025286

  2 O s       :     3.472438  s :     3.472438
      pz      :     1.724758  p :     4.650376
      px      :     1.409159
      py      :     1.516460
      dz2     :     0.006949  d :     0.059301
      dxz     :     0.008480
      dyz     :     0.008124
      dx2y2   :     0.021152
      dxy     :     0.014596

  3 C s       :     2.852232  s :     2.852232
      pz      :     0.833099  p :     2.708727
      px      :     0.981227
      py      :     0.894401
      dz2     :     0.019417  d :     0.258936
      dxz     :     0.026275
      dyz     :     0.043232
      dx2y2   :     0.100285
      dxy     :     0.069726

  4 O s       :     3.594483  s :     3.594483
      pz      :     1.424237  p :     4.613591
      px      :     1.644784
      py      :     1.544569
      dz2     :     0.006601  d :     0.050390
      dxz     :     0.005883
      dyz     :     0.009219
      dx2y2   :     0.010509
      dxy     :     0.018178

  5 C s       :     2.923863  s :     2.923863
      pz      :     1.177119  p :     3.251907
      px      :     1.026817
      py      :     1.047971
      dz2     :     0.009651  d :     0.096376
      dxz     :     0.011911
      dyz     :     0.012028
      dx2y2   :     0.025179
      dxy     :     0.037607

  6 S s       :     5.519886  s :     5.519886
      pz      :     3.562560  p :     9.931050
      px      :     2.977733
      py      :     3.390757
      dz2     :     0.014212  d :     0.124841
      dxz     :     0.027518
      dyz     :     0.011209
      dx2y2   :     0.016448
      dxy     :     0.055454

  7 C s       :     2.919984  s :     2.919984
      pz      :     0.998023  p :     3.047833
      px      :     1.037119
      py      :     1.012690
      dz2     :     0.011132  d :     0.139805
      dxz     :     0.016897
      dyz     :     0.020901
      dx2y2   :     0.039263
      dxy     :     0.051612

  8 C s       :     2.866523  s :     2.866523
      pz      :     0.994539  p :     3.062573
      px      :     1.010680
      py      :     1.057354
      dz2     :     0.008267  d :     0.101893
      dxz     :     0.012710
      dyz     :     0.013287
      dx2y2   :     0.036190
      dxy     :     0.031438

  9 C s       :     2.917440  s :     2.917440
      pz      :     0.968733  p :     3.096342
      px      :     1.051071
      py      :     1.076537
      dz2     :     0.005903  d :     0.082998
      dxz     :     0.014085
      dyz     :     0.005940
      dx2y2   :     0.029785
      dxy     :     0.027286

 10 C s       :     2.919318  s :     2.919318
      pz      :     0.993911  p :     3.125410
      px      :     1.078313
      py      :     1.053186
      dz2     :     0.007145  d :     0.084165
      dxz     :     0.009878
      dyz     :     0.009830
      dx2y2   :     0.025644
      dxy     :     0.031668

 11 C s       :     2.915889  s :     2.915889
      pz      :     1.020545  p :     3.049834
      px      :     0.938088
      py      :     1.091201
      dz2     :     0.008992  d :     0.114052
      dxz     :     0.015384
      dyz     :     0.013974
      dx2y2   :     0.038671
      dxy     :     0.037031

 12 Cls       :     5.801049  s :     5.801049
      pz      :     3.914873  p :    11.120278
      px      :     3.309543
      py      :     3.895862
      dz2     :     0.005101  d :     0.032687
      dxz     :     0.006718
      dyz     :     0.000534
      dx2y2   :     0.012975
      dxy     :     0.007358

 13 C s       :     2.918520  s :     2.918520
      pz      :     0.997930  p :     3.126755
      px      :     1.058961
      py      :     1.069863
      dz2     :     0.006280  d :     0.084085
      dxz     :     0.014318
      dyz     :     0.006144
      dx2y2   :     0.028525
      dxy     :     0.028818

 14 C s       :     2.915564  s :     2.915564
      pz      :     0.987285  p :     3.114710
      px      :     1.070985
      py      :     1.056440
      dz2     :     0.006891  d :     0.083302
      dxz     :     0.010435
      dyz     :     0.009172
      dx2y2   :     0.024857
      dxy     :     0.031946

 15 N s       :     3.253851  s :     3.253851
      pz      :     1.221901  p :     3.849427
      px      :     1.271760
      py      :     1.355766
      dz2     :     0.009450  d :     0.082516
      dxz     :     0.011573
      dyz     :     0.012305
      dx2y2   :     0.034928
      dxy     :     0.014260

 16 C s       :     2.844317  s :     2.844317
      pz      :     0.932328  p :     2.836675
      px      :     0.984609
      py      :     0.919738
      dz2     :     0.016792  d :     0.202588
      dxz     :     0.027468
      dyz     :     0.030037
      dx2y2   :     0.061569
      dxy     :     0.066723

 17 O s       :     3.537878  s :     3.537878
      pz      :     1.778512  p :     4.727738
      px      :     1.657179
      py      :     1.292047
      dz2     :     0.005980  d :     0.044525
      dxz     :     0.004669
      dyz     :     0.006476
      dx2y2   :     0.005896
      dxy     :     0.021504

 18 H s       :     0.872911  s :     0.872911

 19 H s       :     0.858610  s :     0.858610

 20 H s       :     0.870980  s :     0.870980

 21 H s       :     0.873670  s :     0.873670

 22 H s       :     0.872927  s :     0.872927

 23 H s       :     0.845524  s :     0.845524

 24 H s       :     0.851355  s :     0.851355

 25 H s       :     0.851441  s :     0.851441

 26 H s       :     0.853366  s :     0.853366

 27 H s       :     0.654843  s :     0.654843



                      *****************************
                      * MAYER POPULATION ANALYSIS *
                      *****************************

  NA   - Mulliken gross atomic population
  ZA   - Total nuclear charge
  QA   - Mulliken gross atomic charge
  VA   - Mayer's total valence
  BVA  - Mayer's bonded valence
  FA   - Mayer's free valence

  ATOM       NA         ZA         QA         VA         BVA        FA
  0 C      6.4600     6.0000    -0.4600     3.8290     3.8290     0.0000
  1 C      6.0173     6.0000    -0.0173     3.7904     3.7904     0.0000
  2 O      8.4878     8.0000    -0.4878     1.9882     1.9882     0.0000
  3 C      5.4115     6.0000     0.5885     3.9364     3.9364     0.0000
  4 O      8.4521     8.0000    -0.4521     2.0612     2.0612    -0.0000
  5 C      6.2670     6.0000    -0.2670     3.7300     3.7300     0.0000
  6 S     15.6980    16.0000     0.3020     2.4825     2.4825    -0.0000
  7 C      6.0166     6.0000    -0.0166     3.8506     3.8506    -0.0000
  8 C      5.8651     6.0000     0.1349     3.9595     3.9595    -0.0000
  9 C      6.1410     6.0000    -0.1410     3.8999     3.8999    -0.0000
 10 C      6.1329     6.0000    -0.1329     3.9026     3.9026     0.0000
 11 C      6.0580     6.0000    -0.0580     3.9593     3.9593    -0.0000
 12 Cl    17.0057    17.0000    -0.0057     1.1070     1.1070     0.0000
 13 C      6.1381     6.0000    -0.1381     3.9268     3.9268     0.0000
 14 C      6.1764     6.0000    -0.1764     3.9169     3.9169     0.0000
 15 N      7.4277     7.0000    -0.4277     2.9438     2.9438    -0.0000
 16 C      5.4864     6.0000     0.5136     3.8853     3.8853    -0.0000
 17 O      8.6157     8.0000    -0.6157     1.8864     1.8864    -0.0000
 18 H      0.8500     1.0000     0.1500     0.9368     0.9368     0.0000
 19 H      0.8192     1.0000     0.1808     0.9392     0.9392    -0.0000
 20 H      0.8578     1.0000     0.1422     0.9379     0.9379     0.0000
 21 H      0.8419     1.0000     0.1581     0.9348     0.9348     0.0000
 22 H      0.8495     1.0000     0.1505     0.9307     0.9307     0.0000
 23 H      0.8303     1.0000     0.1697     0.9403     0.9403    -0.0000
 24 H      0.8399     1.0000     0.1601     0.9358     0.9358    -0.0000
 25 H      0.8399     1.0000     0.1601     0.9360     0.9360     0.0000
 26 H      0.8396     1.0000     0.1604     0.9327     0.9327     0.0000
 27 H      0.5744     1.0000     0.4256     0.7965     0.7965    -0.0000

  Mayer bond orders larger than 0.100000
B(  0-C ,  1-C ) :   1.0119 B(  0-C , 18-H ) :   0.9484 B(  0-C , 19-H ) :   0.9393 
B(  0-C , 20-H ) :   0.9425 B(  1-C ,  2-O ) :   0.8653 B(  1-C , 21-H ) :   0.9248 
B(  1-C , 22-H ) :   0.9402 B(  2-O ,  3-C ) :   0.9895 B(  3-C ,  4-O ) :   1.8162 
B(  3-C ,  5-C ) :   1.0303 B(  5-C ,  6-S ) :   1.0679 B(  5-C ,  7-C ) :   0.1150 
B(  5-C , 16-C ) :   1.4055 B(  6-S ,  7-C ) :   1.1730 B(  7-C ,  8-C ) :   1.0239 
B(  7-C , 15-N ) :   1.4285 B(  8-C ,  9-C ) :   1.4012 B(  8-C , 14-C ) :   1.3868 
B(  9-C , 10-C ) :   1.4366 B(  9-C , 23-H ) :   0.9097 B( 10-C , 11-C ) :   1.4042 
B( 10-C , 24-H ) :   0.9223 B( 11-C , 12-Cl) :   1.0241 B( 11-C , 13-C ) :   1.4070 
B( 13-C , 14-C ) :   1.4499 B( 13-C , 25-H ) :   0.9217 B( 14-C , 26-H ) :   0.9140 
B( 15-N , 16-C ) :   1.2969 B( 16-C , 17-O ) :   1.0249 B( 17-O , 27-H ) :   0.7538 


-------
TIMINGS
-------

Total SCF time: 0 days 0 hours 1 min 55 sec 

Total time                  ....     115.099 sec
Sum of individual times     ....     114.664 sec  ( 99.6%)

SCF preparation             ....       0.197 sec  (  0.2%)
Fock matrix formation       ....     113.442 sec  ( 98.6%)
  Startup                   ....       0.072 sec  (  0.1% of F)
  Split-RI-J                ....      12.298 sec  ( 10.8% of F)
  Chain of spheres X        ....      87.598 sec  ( 77.2% of F)
  XC integration            ....      12.825 sec  ( 11.3% of F)
    XC Preparation          ....       0.000 sec  (  0.0% of XC)
    Basis function eval.    ....       4.905 sec  ( 38.2% of XC)
    Density eval.           ....       2.493 sec  ( 19.4% of XC)
    XC-Functional eval.     ....       0.729 sec  (  5.7% of XC)
    XC-Potential eval.      ....       3.399 sec  ( 26.5% of XC)
Diagonalization             ....       0.000 sec  (  0.0%)
Density matrix formation    ....       0.215 sec  (  0.2%)
Total Energy calculation    ....       0.056 sec  (  0.0%)
Population analysis         ....       0.038 sec  (  0.0%)
Orbital Transformation      ....       0.081 sec  (  0.1%)
Orbital Orthonormalization  ....       0.000 sec  (  0.0%)
DIIS solution               ....       0.368 sec  (  0.3%)
SOSCF solution              ....       0.268 sec  (  0.2%)
Finished LeanSCF after 115.2 sec

Maximum memory used throughout the entire LEANSCF-calculation: 38.3 MB

-------------------------   --------------------
FINAL SINGLE POINT ENERGY     -1601.527847146774
-------------------------   --------------------


------------------------------------------------------------------------------
                              ORCA PROPERTY CALCULATIONS
------------------------------------------------------------------------------

GBWName                                 ... /home/nmrbox/aojoawo/Documents/ERDOS/inputs/CHEMBL1377190.gbw
Number of atoms                         ...     28
Number of basis functions               ...    280
Max core memory                         ...   1024 MB

Electric properties:
Dipole moment                           ... YES
Quadrupole moment                       ...  NO
Static polarizability (Dipole/Dipole)   ...  NO
Static polarizability (Dipole/Quad.)    ...  NO
Static polarizability (Quad./Quad.)     ...  NO
Static polarizability (Velocity)        ...  NO

Atomic electric properties:
Dipole moment                           ...  NO
Quadrupole moment                       ...  NO
Static polarizability                   ...  NO

Choice of electric origin               ... Center of mass
Position of electric origin             ...    -1.651775     0.116857     0.030352

General magnetic properties:
Magnetizability                         ...  NO

EPR properties:
g-Tensor (aka g-matrix)                 ...  NO
Zero-Field splitting spin-orbit         ...  NO
Zero-field splitting spin-spin          ...  NO
Hyperfine couplings                     ...  NO (   0 nuclei)
Quadrupole couplings                    ...  NO (   0 nuclei)
Contact density                         ...  NO (   0 nuclei)

NMR properties:
Chemical shifts                         ...  NO (   0 nuclei)
Spin-rotation constants                 ...  NO (   0 nuclei)
Spin-spin couplings                     ...  NO (   0 nuclei,    0 pairs)

Choice of magnetic origin               ... GIAO
Position of magnetic origin             ...     0.000000     0.000000     0.000000

Properties with geometric perturbations:
SCF Hessian                             ...  NO
IR spectrum                             ...  NO
VCD spectrum                            ...  NO
X-ray spectroscopy properties:
SCF XES/XAS/RIXS spectra                ...  NO


-------------
DIPOLE MOMENT
-------------

Method             : SCF
Type of density    : Electron Density
Multiplicity       :   1
Irrep              :   0
Energy             : -1601.5278471467736381 Eh
Relativity type    : 
Basis              : AO
                                X                 Y                 Z
Electronic contribution:    -26.879976858       1.557242320       3.665624179
Nuclear contribution   :     26.467754702      -1.980944424      -3.605346311
                        -----------------------------------------
Total Dipole Moment    :     -0.412222156      -0.423702104       0.060277867
                        -----------------------------------------
Magnitude (a.u.)       :      0.594208718
Magnitude (Debye)      :      1.510358530



--------------------
Rotational spectrum 
--------------------
 
Rotational constants in cm-1:             0.034266             0.004084             0.003692 
Rotational constants in MHz :          1027.254326           122.421651           110.690047 

Dipole components along the rotational axes: 
x,y,z [a.u.] :     0.453711     0.380093     0.052532 
x,y,z [Debye]:     1.153242     0.966119     0.133526 

 

Dipole moment calculation done in   0.0 sec 

Maximum memory used throughout the entire PROP-calculation: 18.2 MB

--------------------------------
SUGGESTED CITATIONS FOR THIS RUN
--------------------------------

Below you find a list of papers that are relevant to this ORCA run
We neither can nor want to force you to cite these papers, but we appreciate if you do
You receive ORCA, which is the product of decades of hard work by many enthusiastic individuals, for free
The only thing we kindly ask in return is that you cite our papers,
We deeply appreciate it, if you show your appreciation for ORCA by not just citing the generic ORCA reference.

Please note that relegating all ORCA citations to the supporting information does *not* help us.
SI sections are not indexed - citations you put there will not count into any citation statistics
But we need these citations in order to attract the funding resources that allow us to do what we are doing

Therefore, if you are a happy ORCA user, please consider citing a few of the papers listed below in the main body of your paper

In addition to the list printed below, the program has created the file /home/nmrbox/aojoawo/Documents/ERDOS/inputs/CHEMBL1377190.bibtex that contains the list in bibtex format
You can import this file easily into all common literature databanks and citation aid programs


List of essential papers. We consider these as the minimum necessary citations

  1. Neese,F.
     Software update: the ORCA program system, version 5.0
     WIRES Comput. Molec. Sci., 2022 12(1)e1606
     doi.org/10.1002/wcms.1606

List of papers to cite with high priority. The work reported in these papers was absolutely
necessary for this run to complete.
Our perspective: the developers of density functionals and basis sets usually get cited in chemistry papers
Good! But without the algorithms to do something with them, the functionals or basis sets would not do anything.
Hence, in our opinion, the algorithm design and method developments papers are equally worthy of getting cited

  1. Neese,F.
     An improvement of the resolution of the identity approximation for the formation of the Coulomb matrix
     J. Comp. Chem., 2003 24(14)1740-1747
     doi.org/10.1002/jcc.10318
  2. Neese,F.; Wennmohs,F.; Hansen,A.; Becker,U.
     Efficient, approximate and parallel Hartree-Fock and hybrid DFT calculations. A 'chain-of-spheres' algorithm for the Hartree-Fock exchange
     Chem. Phys., 2009 356(1-3)98-109
     doi.org/10.1016/j.chemphys.2008.10.036
  3. Helmich-Paris,B.; de Souza,B.; Neese,F.; Izsák,R.
     An improved chain of spheres for exchange algorithm
     J. Chem. Phys., 2021 155 104109
     doi.org/doi: 10.1063/5.0058766.
  4. Neese,F.
     The SHARK Integral Generation and Digestion System
     J. Comp. Chem., 2022  1-16
     doi.org/10.1002/jcc.26942

List of suggested additional citations. These are papers that are important in the 'surrounding' of 
of this run, or papers that preceded the highly important papers. If you like your results we are grateful for a citation.

  1. Izsak,R.; Neese,F.
     An overlap fitted chain of spheres exchange method
     J. Chem. Phys., 2011 135 144105
     doi.org/10.1063/1.3646921
  2. Izsak,R.; Hansen,A.; Neese,F.
     The resolution of identity and chain of spheres approximations for the LPNO-CCSD singles Fock term
     Molec. Phys., 2012 110 2413-2417
     doi.org/10.1080/00268976.2012.687466
  3. Neese,F.
     The ORCA program system
     WIRES Comput. Molec. Sci., 2012 2(1)73-78
     doi.org/10.1002/wcms.81
  4. Izsak,R.; Neese,F.; Klopper,W.
     Robust fitting techniques in the chain of spheres approximation to the Fock exchange: The role of the complementary space
     J. Chem. Phys., 2013 139 
     doi.org/10.1063/1.4819264
  5. Neese,F.
     Software update: the ORCA program system, version 4.0
     WIRES Comput. Molec. Sci., 2018 8(1)1-6
     doi.org/10.1002/wcms.1327
  6. Neese,F.; Wennmohs,F.; Becker,U.; Riplinger,C.
     The ORCA quantum chemistry program package
     J. Chem. Phys., 2020 152 Art. No. L224108
     doi.org/10.1063/5.0004608

List of optional additional citations

  1. Neese,F.
     Approximate second-order SCF convergence for spin unrestricted wavefunctions
     Chem. Phys. Lett., 2000 325(1-3)93-98
     doi.org/10.1016/s0009-2614(00)00662-x

Timings for individual modules:

Sum of individual times          ...      121.285 sec (=   2.021 min)
Startup calculation              ...        4.325 sec (=   0.072 min)   3.6 %
SCF iterations                   ...      116.838 sec (=   1.947 min)  96.3 %
Property calculations            ...        0.122 sec (=   0.002 min)   0.1 %
                             ****ORCA TERMINATED NORMALLY****
TOTAL RUN TIME: 0 days 0 hours 2 minutes 1 seconds 992 msec
