
                                 *****************
                                 * O   R   C   A *
                                 *****************

                                            #,                                       
                                            ###                                      
                                            ####                                     
                                            #####                                    
                                            ######                                   
                                           ########,                                 
                                     ,,################,,,,,                         
                               ,,#################################,,                 
                          ,,##########################################,,             
                       ,#########################################, ''#####,          
                    ,#############################################,,   '####,        
                  ,##################################################,,,,####,       
                ,###########''''           ''''###############################       
              ,#####''   ,,,,##########,,,,          '''####'''          '####       
            ,##' ,,,,###########################,,,                        '##       
           ' ,,###''''                  '''############,,,                           
         ,,##''                                '''############,,,,        ,,,,,,###''
      ,#''                                            '''#######################'''  
     '                                                          ''''####''''         
             ,#######,   #######,   ,#######,      ##                                
            ,#'     '#,  ##    ##  ,#'     '#,    #''#        ,####,   ,####,        
            ##       ##  ##   ,#'  ##            #'  '#       #'       #'  '#        
            ##       ##  #######   ##           ,######,      #####,   #    #        
            '#,     ,#'  ##    ##  '#,     ,#' ,#      #,     #,   #   #,  ,#        
             '#######'   ##     ##  '#######'  #'      '#     '####' # '####'        



                #########################################################
                #                        -***-                          #
                #          Department of theory and spectroscopy        #
                #                                                       #
                #                      Frank Neese                      #
                #                                                       #
                #     Directorship, Architecture, Infrastructure        #
                #                    SHARK, DRIVERS                     #
                #        Core code/Algorithms in most modules           #
                #                                                       #
                #        Max Planck Institute fuer Kohlenforschung      #
                #                Kaiser Wilhelm Platz 1                 #
                #                 D-45470 Muelheim/Ruhr                 #
                #                      Germany                          #
                #                                                       #
                #                  All rights reserved                  #
                #                        -***-                          #
                #########################################################


                         Program Version 6.0.0  -   RELEASE  -


 With contributions from (in alphabetic order):
   Daniel Aravena         : Magnetic Suceptibility
   Michael Atanasov       : Ab Initio Ligand Field Theory (pilot matlab implementation)
   Alexander A. Auer      : GIAO ZORA, VPT2 properties, NMR spectrum
   Ute Becker             : All parallelization in ORCA, NUMFREQ, NUMCALC
   Giovanni Bistoni       : ED, misc. LED, open-shell LED, HFLD
   Martin Brehm           : Molecular dynamics
   Dmytro Bykov           : pre 5.0 version of the SCF Hessian
   Marcos Casanova-Páez   : Triplet and SCS-CIS(D). UHF-(DLPNO)-IP/EA/STEOM-CCSD. UHF-CVS-IP/STEOM-CCSD
   Vijay G. Chilkuri      : MRCI spin determinant printing, contributions to CSF-ICE
   Pauline Colinet        : FMM embedding
   Dipayan Datta          : RHF DLPNO-CCSD density
   Achintya Kumar Dutta   : EOM-CC, STEOM-CC
   Nicolas Foglia         : Exact transition moments, OPA infrastructure, MCD improvements
   Dmitry Ganyushin       : Spin-Orbit,Spin-Spin,Magnetic field MRCI
   Miquel Garcia          : C-PCM and meta-GGA Hessian, CCSD/C-PCM, Gaussian charge scheme
   Tiago L. C. Gouveia    : GS-ROHF, GS-ROCIS
   Yang Guo               : DLPNO-NEVPT2, F12-NEVPT2, CIM, IAO-localization
   Andreas Hansen         : Spin unrestricted coupled pair/coupled cluster methods
   Ingolf Harden          : AUTO-CI MPn and infrastructure 
   Benjamin Helmich-Paris : MC-RPA, TRAH-(SCF,CASSCF), AVAS, COSX integrals, SCF dyn. polar.
   Lee Huntington         : MR-EOM, pCC
   Robert Izsak           : Overlap fitted RIJCOSX, COSX-SCS-MP3, EOM
   Riya Kayal             : Wick's Theorem for AUTO-CI, AUTO-CI UHF-CCSDT
   Emily Kempfer          : AUTO-CI, RHF CISDT and CCSDT
   Christian Kollmar      : KDIIS, OOCD, Brueckner-CCSD(T), CCSD density, CASPT2, CASPT2-K, improved NEVPT2
   Axel Koslowski         : Symmetry handling
   Simone Kossmann        : Meta GGA functionals, TD-DFT gradient, OOMP2, (MP2 Hessian; deprecated post 5.0)
   Lucas Lang             : DCDCAS
   Marvin Lechner         : AUTO-CI (C++ implementation), FIC-MRCC
   Spencer Leger          : CASSCF response
   Dagmar Lenk            : GEPOL surface, SMD, ORCA-2-JSON
   Dimitrios Liakos       : Extrapolation schemes; Compound Job, initial MDCI parallelization
   Dimitrios Manganas     : Further ROCIS development; embedding schemes. LFT, Crystal Embedding
   Dimitrios Pantazis     : SARC Basis sets
   Anastasios Papadopoulos: AUTO-CI, single reference methods and gradients
   Taras Petrenko         : pre 6.0 DFT Hessian and TD-DFT gradient, (ASA, deprecated), ECA, 1-Electron XAS/XES, NRVS
   Peter Pinski           : DLPNO-MP2, DLPNO-MP2 Gradient
   Christoph Reimann      : Effective Core Potentials
   Marius Retegan         : Local ZFS, SOC
   Christoph Riplinger    : Optimizer, TS searches, QM/MM, DLPNO-CCSD(T), (RO)-DLPNO pert. Triples
   Michael Roemelt        : Original ROCIS implementation
   Masaaki Saitow         : Open-shell DLPNO-CCSD energy and density
   Barbara Sandhoefer     : DKH picture change effects
   Kantharuban Sivalingam : CASSCF convergence/infrastructure, NEVPT2 and variants, FIC-MRCI
   Bernardo de Souza      : ESD, SOC TD-DFT
   Georgi Stoychev        : AutoAux, RI-MP2 NMR, DLPNO-MP2 response, X2C
   Van Anh Tran           : RI-MP2 g-tensors
   Willem Van den Heuvel  : Paramagnetic NMR
   Zikuan Wang            : NOTCH, Electric field optimization 
   Frank Wennmohs         : Technical directorship and infrastructure
   Hang Xu                : AUTO-CI-Response properties 


 We gratefully acknowledge several colleagues who have allowed us to
 interface, adapt or use parts of their codes:
   Stefan Grimme, W. Hujo, H. Kruse, P. Pracht,  : VdW corrections, initial TS optimization,
                  C. Bannwarth, S. Ehlert,         DFT functionals, gCP, sTDA/sTD-DF
                  L. Wittmann, M. Mueller
   Ed Valeev, F. Pavosevic, A. Kumar             : LibInt (2-el integral package), F12 methods
   Garnet Chan, S. Sharma, J. Yang, R. Olivares  : DMRG
   Ulf Ekstrom                                   : XCFun DFT Library
   Mihaly Kallay                                 : mrcc  (arbitrary order and MRCC methods)
   Frank Weinhold                                : gennbo (NPA and NBO analysis)
   Simon Mueller                                 : openCOSMO-RS
   Christopher J. Cramer and Donald G. Truhlar   : smd solvation model
   Lars Goerigk                                  : TD-DFT with DH, B97 family of functionals
   V. Asgeirsson, H. Jonsson                     : NEB implementation
   FAccTs GmbH                                   : IRC, NEB, NEB-TS, DLPNO-Multilevel, CI-OPT
                                                   MM, QMMM, 2- and 3-layer-ONIOM, Crystal-QMMM,
                                                   LR-CPCM, SF, NACMEs, symmetry and pop. for TD-DFT,
                                                   nearIR, NL-DFT gradient (VV10), updates on ESD,
                                                   ML-optimized integration grids, MBIS, APM,
                                                   GOAT, DOCKER, SOLVATOR, interface openCOSMO-RS
   S Lehtola, MJT Oliveira, MAL Marques          : LibXC Library
   Liviu Ungur et al                             : ANISO software


 Your calculation uses the libint2 library for the computation of 2-el integrals
 For citations please refer to: http://libint.valeyev.net

 Your ORCA version has been built with support for libXC version: 6.2.2
 For citations please refer to: https://libxc.gitlab.io

 This ORCA versions uses:
   CBLAS   interface :  Fast vector & matrix operations
   LAPACKE interface :  Fast linear algebra routines
   SCALAPACK package :  Parallel linear algebra routines
   Shared memory     :  Shared parallel matrices
   BLAS/LAPACK       :  OpenBLAS 0.3.27  USE64BITINT DYNAMIC_ARCH NO_AFFINITY SkylakeX SINGLE_THREADED
        Core in use  :  SkylakeX
   Copyright (c) 2011-2014, The OpenBLAS Project


Warning: RI is on but no J-basis has been assigned. Assigning Def2/J (nothing to worry about!)
================================================================================

----- Orbital basis set information -----
Your calculation utilizes the basis: 6-31G*
   H-He, Li-Ne : W. J. Hehre, R. Ditchfield and J.A. Pople, J. Chem. Phys. 56, 2257 (1972).
                 Note: He and Ne are unpublished basis sets taken from the Gaussian program.
                 Note: Li and B from J. D. Dill and J. A. Pople, J. Chem. Phys. 62, 2921 (1975).
   Na - Ar     : M. M. Francl, W. J. Pietro, W. J. Hehre, J. S. Binkley, M. S. Gordon, 
                 D. J. DeFrees and J. A. Pople, J. Chem. Phys. 77, 3654 (1982).
   K - Zn      : V. A. Rassolov, J. A. Pople, M. A. Ratner, and T. L. Windus, J. Chem. Phys. 109, 1223 (1998).

----- AuxJ basis set information -----
Your calculation utilizes the auxiliary basis: def2/J
   F. Weigend, Phys. Chem. Chem. Phys. 8, 1057 (2006).

================================================================================
                                        WARNINGS
                       Please study these warnings very carefully!
================================================================================


================================================================================
                                       INPUT FILE
================================================================================
NAME = /home/nmrbox/aojoawo/Documents/ERDOS/inputs/CHEMBL3682614.inp
|  1> ! B3LYP 6-31G* SP
|  2> 
|  3> * xyz 0 1
|  4> C -0.9123 -4.3374 0.8087
|  5> C -1.7830 -3.6041 -0.1836
|  6> C -2.6575 -4.3982 -0.9494
|  7> C -3.3429 -3.8702 -2.0366
|  8> C -3.1521 -2.5455 -2.4018
|  9> C -2.3222 -1.7133 -1.6400
| 10> C -2.1250 -0.3929 -2.0517
| 11> N -1.3309 0.4330 -1.3372
| 12> C -0.7512 0.0511 -0.1738
| 13> N 0.0722 0.9977 0.5187
| 14> C 1.4704 1.1657 0.1161
| 15> C 2.2402 -0.1069 0.3419
| 16> C 2.3658 -1.0498 -0.6892
| 17> C 3.0152 -2.2647 -0.4574
| 18> C 3.5420 -2.5624 0.8049
| 19> O 4.1797 -3.8009 0.9810
| 20> C 4.7326 -4.2759 2.2067
| 21> F 3.7459 -4.3588 3.1747
| 22> F 5.2602 -5.5356 2.0010
| 23> F 5.7429 -3.4332 2.6327
| 24> C 3.4108 -1.6183 1.8417
| 25> C 2.7599 -0.4024 1.6103
| 26> S -0.7051 2.2498 1.4315
| 27> O -2.0262 1.7544 1.9522
| 28> O 0.1515 2.6272 2.6072
| 29> C -0.9617 3.6470 0.3936
| 30> C -2.1305 3.7525 -0.3704
| 31> C -2.3249 4.8518 -1.2130
| 32> C -1.3482 5.8592 -1.3072
| 33> C -1.5462 7.0242 -2.1969
| 34> O -2.5931 7.1267 -2.8915
| 35> O -0.5755 8.0182 -2.2774
| 36> C -0.1732 5.7409 -0.5444
| 37> C 0.0185 4.6412 0.2973
| 38> C -0.9684 -1.2503 0.3423
| 39> C -0.5497 -1.5332 1.7688
| 40> C -1.6778 -2.1993 -0.4649
| 41> H -0.8990 -5.4300 0.6061
| 42> H -1.2930 -4.2113 1.8411
| 43> H 0.1422 -4.0097 0.7126
| 44> H -2.7804 -5.4524 -0.7312
| 45> H -3.9940 -4.5038 -2.6251
| 46> H -3.6597 -2.1679 -3.2815
| 47> H -2.5862 -0.0195 -2.9577
| 48> H 1.9436 1.9906 0.6908
| 49> H 1.5117 1.4574 -0.9554
| 50> H 1.9508 -0.8489 -1.6680
| 51> H 3.1037 -2.9836 -1.2619
| 52> H 3.7982 -1.8141 2.8320
| 53> H 2.6499 0.3039 2.4240
| 54> H -2.8901 2.9829 -0.3181
| 55> H -3.2386 4.9114 -1.7912
| 56> H -0.6974 8.8147 -2.8893
| 57> H 0.6003 6.4961 -0.5992
| 58> H 0.9339 4.5644 0.8701
| 59> H -0.3790 -0.6035 2.3488
| 60> H -1.3627 -2.0561 2.3091
| 61> H 0.3955 -2.1078 1.7988
| 62> *
| 63> 
| 64>                          ****END OF INPUT****
================================================================================

                       ****************************
                       * Single Point Calculation *
                       ****************************

---------------------------------
CARTESIAN COORDINATES (ANGSTROEM)
---------------------------------
  C     -0.912300   -4.337400    0.808700
  C     -1.783000   -3.604100   -0.183600
  C     -2.657500   -4.398200   -0.949400
  C     -3.342900   -3.870200   -2.036600
  C     -3.152100   -2.545500   -2.401800
  C     -2.322200   -1.713300   -1.640000
  C     -2.125000   -0.392900   -2.051700
  N     -1.330900    0.433000   -1.337200
  C     -0.751200    0.051100   -0.173800
  N      0.072200    0.997700    0.518700
  C      1.470400    1.165700    0.116100
  C      2.240200   -0.106900    0.341900
  C      2.365800   -1.049800   -0.689200
  C      3.015200   -2.264700   -0.457400
  C      3.542000   -2.562400    0.804900
  O      4.179700   -3.800900    0.981000
  C      4.732600   -4.275900    2.206700
  F      3.745900   -4.358800    3.174700
  F      5.260200   -5.535600    2.001000
  F      5.742900   -3.433200    2.632700
  C      3.410800   -1.618300    1.841700
  C      2.759900   -0.402400    1.610300
  S     -0.705100    2.249800    1.431500
  O     -2.026200    1.754400    1.952200
  O      0.151500    2.627200    2.607200
  C     -0.961700    3.647000    0.393600
  C     -2.130500    3.752500   -0.370400
  C     -2.324900    4.851800   -1.213000
  C     -1.348200    5.859200   -1.307200
  C     -1.546200    7.024200   -2.196900
  O     -2.593100    7.126700   -2.891500
  O     -0.575500    8.018200   -2.277400
  C     -0.173200    5.740900   -0.544400
  C      0.018500    4.641200    0.297300
  C     -0.968400   -1.250300    0.342300
  C     -0.549700   -1.533200    1.768800
  C     -1.677800   -2.199300   -0.464900
  H     -0.899000   -5.430000    0.606100
  H     -1.293000   -4.211300    1.841100
  H      0.142200   -4.009700    0.712600
  H     -2.780400   -5.452400   -0.731200
  H     -3.994000   -4.503800   -2.625100
  H     -3.659700   -2.167900   -3.281500
  H     -2.586200   -0.019500   -2.957700
  H      1.943600    1.990600    0.690800
  H      1.511700    1.457400   -0.955400
  H      1.950800   -0.848900   -1.668000
  H      3.103700   -2.983600   -1.261900
  H      3.798200   -1.814100    2.832000
  H      2.649900    0.303900    2.424000
  H     -2.890100    2.982900   -0.318100
  H     -3.238600    4.911400   -1.791200
  H     -0.697400    8.814700   -2.889300
  H      0.600300    6.496100   -0.599200
  H      0.933900    4.564400    0.870100
  H     -0.379000   -0.603500    2.348800
  H     -1.362700   -2.056100    2.309100
  H      0.395500   -2.107800    1.798800

----------------------------
CARTESIAN COORDINATES (A.U.)
----------------------------
  NO LB      ZA    FRAG     MASS         X           Y           Z
   0 C     6.0000    0    12.011   -1.723997   -8.196498    1.528222
   1 C     6.0000    0    12.011   -3.369382   -6.810762   -0.346954
   2 C     6.0000    0    12.011   -5.021947   -8.311393   -1.794106
   3 C     6.0000    0    12.011   -6.317165   -7.313618   -3.848616
   4 C     6.0000    0    12.011   -5.956606   -4.810298   -4.538744
   5 C     6.0000    0    12.011   -4.388322   -3.237668   -3.099151
   6 C     6.0000    0    12.011   -4.015668   -0.742473   -3.877151
   7 N     7.0000    0    14.007   -2.515037    0.818251   -2.526942
   8 C     6.0000    0    12.011   -1.419562    0.096565   -0.328434
   9 N     7.0000    0    14.007    0.136438    1.885380    0.980201
  10 C     6.0000    0    12.011    2.778653    2.202854    0.219397
  11 C     6.0000    0    12.011    4.233364   -0.202012    0.646097
  12 C     6.0000    0    12.011    4.470714   -1.983834   -1.302399
  13 C     6.0000    0    12.011    5.697902   -4.279663   -0.864361
  14 C     6.0000    0    12.011    6.693410   -4.842234    1.521041
  15 O     8.0000    0    15.999    7.898488   -7.182660    1.853821
  16 C     6.0000    0    12.011    8.943318   -8.080280    4.170059
  17 F     9.0000    0    18.998    7.078725   -8.236938    5.999314
  18 F     9.0000    0    18.998    9.940337  -10.460768    3.781342
  19 F     9.0000    0    18.998   10.852508   -6.487808    4.975082
  20 C     6.0000    0    12.011    6.445478   -3.058144    3.480309
  21 C     6.0000    0    12.011    5.215455   -0.760426    3.043026
  22 S    16.0000    0    32.060   -1.332446    4.251506    2.705143
  23 O     8.0000    0    15.999   -3.828963    3.315336    3.689123
  24 O     8.0000    0    15.999    0.286294    4.964688    4.926894
  25 C     6.0000    0    12.011   -1.817350    6.891831    0.743796
  26 C     6.0000    0    12.011   -4.026062    7.091197   -0.699955
  27 C     6.0000    0    12.011   -4.393424    9.168573   -2.292238
  28 C     6.0000    0    12.011   -2.547729   11.072283   -2.470250
  29 C     6.0000    0    12.011   -2.921895   13.273814   -4.151539
  30 O     8.0000    0    15.999   -4.900249   13.467511   -5.464143
  31 O     8.0000    0    15.999   -1.087537   15.152202   -4.303662
  32 C     6.0000    0    12.011   -0.327301   10.848729   -1.028767
  33 C     6.0000    0    12.011    0.034960    8.770597    0.561816
  34 C     6.0000    0    12.011   -1.830011   -2.362725    0.646853
  35 C     6.0000    0    12.011   -1.038782   -2.897328    3.342548
  36 C     6.0000    0    12.011   -3.170583   -4.156075   -0.878534
  37 H     1.0000    0     1.008   -1.698864  -10.261213    1.145363
  38 H     1.0000    0     1.008   -2.443416   -7.958204    3.479175
  39 H     1.0000    0     1.008    0.268719   -7.577235    1.346619
  40 H     1.0000    0     1.008   -5.254195  -10.303543   -1.381768
  41 H     1.0000    0     1.008   -7.547566   -8.510949   -4.960720
  42 H     1.0000    0     1.008   -6.915831   -4.096737   -6.201136
  43 H     1.0000    0     1.008   -4.887210   -0.036850   -5.589243
  44 H     1.0000    0     1.008    3.672872    3.761689    1.305423
  45 H     1.0000    0     1.008    2.856699    2.754087   -1.805444
  46 H     1.0000    0     1.008    3.686478   -1.604189   -3.152063
  47 H     1.0000    0     1.008    5.865143   -5.638187   -2.384645
  48 H     1.0000    0     1.008    7.177558   -3.428152    5.351704
  49 H     1.0000    0     1.008    5.007585    0.574288    4.580696
  50 H     1.0000    0     1.008   -5.461497    5.636864   -0.601122
  51 H     1.0000    0     1.008   -6.120067    9.281201   -3.384877
  52 H     1.0000    0     1.008   -1.317895   16.657369   -5.459986
  53 H     1.0000    0     1.008    1.134403   12.275850   -1.132324
  54 H     1.0000    0     1.008    1.764815    8.625466    1.644251
  55 H     1.0000    0     1.008   -0.716206   -1.140450    4.438589
  56 H     1.0000    0     1.008   -2.575130   -3.885466    4.363567
  57 H     1.0000    0     1.008    0.747387   -3.983165    3.399239

--------------------------------
INTERNAL COORDINATES (ANGSTROEM)
--------------------------------
 C      0   0   0     0.000000000000     0.00000000     0.00000000
 C      1   0   0     1.510134652937     0.00000000     0.00000000
 C      2   1   0     1.407762302379   116.21246528     0.00000000
 C      3   2   1     1.389446292593   121.17976977   190.61902001
 C      4   3   2     1.387301614646   120.06599596     1.28651660
 C      5   4   3     1.400582054005   120.37648965   356.75363196
 C      6   5   4     1.397082993240   119.00732808   178.48726845
 N      7   6   5     1.350265111006   120.34215102   179.96815617
 C      8   7   6     1.354769079954   122.25141479   356.69002131
 N      9   8   7     1.433037113965   118.33559551   180.23968515
 C     10   9   8     1.464675390658   119.43545940   276.98039701
 C     11  10   9     1.504356487007   110.49960200   296.52749842
 C     12  11  10     1.402855295460   120.27002935    92.40016923
 C     13  12  11     1.396937224789   120.27838742   183.63959043
 C     14  13  12     1.399837426275   120.63261393     0.37291338
 O     15  14  13     1.404120632282   118.13767358   179.76021011
 C     16  15  14     1.426065882069   125.28715772   181.98561239
 F     17  16  15     1.384728601568   110.15188339    60.08586069
 F     17  16  15     1.381129371203   108.89874867   179.28535324
 F     17  16  15     1.382868533159   110.18486974   298.57031371
 C     15  14  13     1.408365183466   119.09256047   359.90712022
 C     21  15  14     1.398438264637   120.29126216     0.13988731
 S     10   9   8     1.733537868061   118.28904289    77.46362618
 O     23  10   9     1.503946428567   109.77093988    30.32023662
 O     23  10   9     1.502818954499   109.73943499   149.12672220
 C     23  10   9     1.759331637299   109.17005035   269.99437302
 C     26  23  10     1.400328422192   120.22726674    88.32018381
 C     27  26  23     1.398651711471   120.25879831   181.08996928
 C     28  27  26     1.406297013436   120.45437175     0.28153809
 C     29  28  27     1.479187307274   120.76487795   179.95109403
 O     30  29  28     1.260545524763   120.44070823   359.57254932
 O     30  29  28     1.391680545240   120.26241225   179.70275666
 C     29  28  27     1.405874720592   118.93657250     0.18773006
 C     33  29  28     1.398051454704   120.49430381   359.79745796
 C      9   8   7     1.416748746250   120.40899383   359.74831847
 C     35   9   8     1.513355328401   118.20822718   192.74384476
 C      6   5   4     1.425590183047   120.90549490   358.84871140
 H      1   2   3     1.111304823170   111.37801574    14.90103846
 H      1   2   3     1.107557429662   111.04087099   256.23880855
 H      1   2   3     1.108419031775   110.36455064   131.45974765
 H      3   2   1     1.083537396678   120.64564501     7.91304765
 H      4   3   2     1.082456659640   119.97944380   178.66771426
 H      5   4   3     1.083564308198   118.81897678   177.05650734
 H      7   6   5     1.083036933812   120.81413937   358.61367011
 H     11  10   9     1.111151807810   110.45801764   175.30884367
 H     11  10   9     1.111263618589   109.30665993    58.15382265
 H     13  12  11     1.081958987208   120.38310282     2.90631636
 H     14  13  12     1.082529311381   119.48802719   179.91928736
 H     21  15  14     1.081254128316   121.29724038   179.56923694
 H     22  21  15     1.083082351440   119.33768830   178.75689625
 H     27  26  23     1.082594850348   120.37937204     0.83393199
 H     28  27  26     1.082919706165   118.82830111   180.17697645
 H     32  30  29     1.011777381641   120.87857382   179.42642665
 H     33  29  28     1.082419664456   120.73521343   179.61784673
 H     34  33  29     1.082568815365   119.36040019   179.48698107
 H     36  35   9     1.108999810640   112.26253816    16.43556630
 H     36  35   9     1.107392206944   110.18490596   132.70199952
 H     36  35   9     1.106556912228   111.03579766   256.91265797

---------------------------
INTERNAL COORDINATES (A.U.)
---------------------------
 C      0   0   0     0.000000000000     0.00000000     0.00000000
 C      1   0   0     2.853740919394     0.00000000     0.00000000
 C      2   1   0     2.660285213155   116.21246528     0.00000000
 C      3   2   1     2.625672970793   121.17976977   190.61902001
 C      4   3   2     2.621620116828   120.06599596     1.28651660
 C      5   4   3     2.646716510154   120.37648965   356.75363196
 C      6   5   4     2.640104243582   119.00732808   178.48726845
 N      7   6   5     2.551631267990   120.34215102   179.96815617
 C      8   7   6     2.560142535818   122.25141479   356.69002131
 N      9   8   7     2.708047685138   118.33559551   180.23968515
 C     10   9   8     2.767835363438   119.43545940   276.98039701
 C     11  10   9     2.842821768231   110.49960200   296.52749842
 C     12  11  10     2.651012313940   120.27002935    92.40016923
 C     13  12  11     2.639828781130   120.27838742   183.63959043
 C     14  13  12     2.645309367673   120.63261393     0.37291338
 O     15  14  13     2.653403454001   118.13767358   179.76021011
 C     16  15  14     2.694873966038   125.28715772   181.98561239
 F     17  16  15     2.616757826771   110.15188339    60.08586069
 F     17  16  15     2.609956267089   108.89874867   179.28535324
 F     17  16  15     2.613242806887   110.18486974   298.57031371
 C     15  14  13     2.661424493301   119.09256047   359.90712022
 C     21  15  14     2.642665335359   120.29126216     0.13988731
 S     10   9   8     3.275911813416   118.28904289    77.46362618
 O     23  10   9     2.842046870081   109.77093988    30.32023662
 O     23  10   9     2.839916252868   109.73943499   149.12672220
 C     23  10   9     3.324654973238   109.17005035   269.99437302
 C     26  23  10     2.646237215490   120.22726674    88.32018381
 C     27  26  23     2.643068691420   120.25879831   181.08996928
 C     28  27  26     2.657516218346   120.45437175     0.28153809
 C     29  28  27     2.795258911520   120.76487795   179.95109403
 O     30  29  28     2.382085821142   120.44070823   359.57254932
 O     30  29  28     2.629895096410   120.26241225   179.70275666
 C     29  28  27     2.656718200522   118.93657250     0.18773006
 C     33  29  28     2.641934370521   120.49430381   359.79745796
 C      9   8   7     2.677267130988   120.40899383   359.74831847
 C     35   9   8     2.859827113989   118.20822718   192.74384476
 C      6   5   4     2.693975025166   120.90549490   358.84871140
 H      1   2   3     2.100061767096   111.37801574    14.90103846
 H      1   2   3     2.092980219651   111.04087099   256.23880855
 H      1   2   3     2.094608411680   110.36455064   131.45974765
 H      3   2   1     2.047588935584   120.64564501     7.91304765
 H      4   3   2     2.045546638560   119.97944380   178.66771426
 H      5   4   3     2.047639790986   118.81897678   177.05650734
 H      7   6   5     2.046643197826   120.81413937   358.61367011
 H     11  10   9     2.099772609973   110.45801764   175.30884367
 H     11  10   9     2.099983901724   109.30665993    58.15382265
 H     13  12  11     2.044606173958   120.38310282     2.90631636
 H     14  13  12     2.045683930453   119.48802719   179.91928736
 H     21  15  14     2.043274183689   121.29724038   179.56923694
 H     22  21  15     2.046729024704   119.33768830   178.75689625
 H     27  26  23     2.045807781151   120.37937204     0.83393199
 H     28  27  26     2.046421669678   118.82830111   180.17697645
 H     32  30  29     1.911982159797   120.87857382   179.42642665
 H     33  29  28     2.045476727792   120.73521343   179.61784673
 H     34  33  29     2.045758582163   119.36040019   179.48698107
 H     36  35   9     2.095705924681   112.26253816    16.43556630
 H     36  35   9     2.092667993963   110.18490596   132.70199952
 H     36  35   9     2.091089515709   111.03579766   256.91265797

---------------------
BASIS SET INFORMATION
---------------------
There are 6 groups of distinct atoms

 Group   1 Type C   : 10s4p1d contracted to 3s2p1d pattern {631/31/1}
 Group   2 Type N   : 10s4p1d contracted to 3s2p1d pattern {631/31/1}
 Group   3 Type O   : 10s4p1d contracted to 3s2p1d pattern {631/31/1}
 Group   4 Type F   : 10s4p1d contracted to 3s2p1d pattern {631/31/1}
 Group   5 Type S   : 16s10p1d contracted to 4s3p1d pattern {6631/631/1}
 Group   6 Type H   : 4s contracted to 2s pattern {31}

Atom   0C    basis set group =>   1
Atom   1C    basis set group =>   1
Atom   2C    basis set group =>   1
Atom   3C    basis set group =>   1
Atom   4C    basis set group =>   1
Atom   5C    basis set group =>   1
Atom   6C    basis set group =>   1
Atom   7N    basis set group =>   2
Atom   8C    basis set group =>   1
Atom   9N    basis set group =>   2
Atom  10C    basis set group =>   1
Atom  11C    basis set group =>   1
Atom  12C    basis set group =>   1
Atom  13C    basis set group =>   1
Atom  14C    basis set group =>   1
Atom  15O    basis set group =>   3
Atom  16C    basis set group =>   1
Atom  17F    basis set group =>   4
Atom  18F    basis set group =>   4
Atom  19F    basis set group =>   4
Atom  20C    basis set group =>   1
Atom  21C    basis set group =>   1
Atom  22S    basis set group =>   5
Atom  23O    basis set group =>   3
Atom  24O    basis set group =>   3
Atom  25C    basis set group =>   1
Atom  26C    basis set group =>   1
Atom  27C    basis set group =>   1
Atom  28C    basis set group =>   1
Atom  29C    basis set group =>   1
Atom  30O    basis set group =>   3
Atom  31O    basis set group =>   3
Atom  32C    basis set group =>   1
Atom  33C    basis set group =>   1
Atom  34C    basis set group =>   1
Atom  35C    basis set group =>   1
Atom  36C    basis set group =>   1
Atom  37H    basis set group =>   6
Atom  38H    basis set group =>   6
Atom  39H    basis set group =>   6
Atom  40H    basis set group =>   6
Atom  41H    basis set group =>   6
Atom  42H    basis set group =>   6
Atom  43H    basis set group =>   6
Atom  44H    basis set group =>   6
Atom  45H    basis set group =>   6
Atom  46H    basis set group =>   6
Atom  47H    basis set group =>   6
Atom  48H    basis set group =>   6
Atom  49H    basis set group =>   6
Atom  50H    basis set group =>   6
Atom  51H    basis set group =>   6
Atom  52H    basis set group =>   6
Atom  53H    basis set group =>   6
Atom  54H    basis set group =>   6
Atom  55H    basis set group =>   6
Atom  56H    basis set group =>   6
Atom  57H    basis set group =>   6
---------------------------------
AUXILIARY/J BASIS SET INFORMATION
---------------------------------
There are 6 groups of distinct atoms

 Group   1 Type C   : 12s5p4d2f1g contracted to 6s4p3d1f1g pattern {711111/2111/211/2/1}
 Group   2 Type N   : 12s5p4d2f1g contracted to 6s4p3d1f1g pattern {711111/2111/211/2/1}
 Group   3 Type O   : 12s5p4d2f1g contracted to 6s4p3d1f1g pattern {711111/2111/211/2/1}
 Group   4 Type F   : 12s5p4d2f1g contracted to 6s4p3d1f1g pattern {711111/2111/211/2/1}
 Group   5 Type S   : 14s5p5d2f1g contracted to 8s4p3d1f1g pattern {71111111/2111/311/2/1}
 Group   6 Type H   : 5s2p1d contracted to 3s1p1d pattern {311/2/1}

Atom   0C    basis set group =>   1
Atom   1C    basis set group =>   1
Atom   2C    basis set group =>   1
Atom   3C    basis set group =>   1
Atom   4C    basis set group =>   1
Atom   5C    basis set group =>   1
Atom   6C    basis set group =>   1
Atom   7N    basis set group =>   2
Atom   8C    basis set group =>   1
Atom   9N    basis set group =>   2
Atom  10C    basis set group =>   1
Atom  11C    basis set group =>   1
Atom  12C    basis set group =>   1
Atom  13C    basis set group =>   1
Atom  14C    basis set group =>   1
Atom  15O    basis set group =>   3
Atom  16C    basis set group =>   1
Atom  17F    basis set group =>   4
Atom  18F    basis set group =>   4
Atom  19F    basis set group =>   4
Atom  20C    basis set group =>   1
Atom  21C    basis set group =>   1
Atom  22S    basis set group =>   5
Atom  23O    basis set group =>   3
Atom  24O    basis set group =>   3
Atom  25C    basis set group =>   1
Atom  26C    basis set group =>   1
Atom  27C    basis set group =>   1
Atom  28C    basis set group =>   1
Atom  29C    basis set group =>   1
Atom  30O    basis set group =>   3
Atom  31O    basis set group =>   3
Atom  32C    basis set group =>   1
Atom  33C    basis set group =>   1
Atom  34C    basis set group =>   1
Atom  35C    basis set group =>   1
Atom  36C    basis set group =>   1
Atom  37H    basis set group =>   6
Atom  38H    basis set group =>   6
Atom  39H    basis set group =>   6
Atom  40H    basis set group =>   6
Atom  41H    basis set group =>   6
Atom  42H    basis set group =>   6
Atom  43H    basis set group =>   6
Atom  44H    basis set group =>   6
Atom  45H    basis set group =>   6
Atom  46H    basis set group =>   6
Atom  47H    basis set group =>   6
Atom  48H    basis set group =>   6
Atom  49H    basis set group =>   6
Atom  50H    basis set group =>   6
Atom  51H    basis set group =>   6
Atom  52H    basis set group =>   6
Atom  53H    basis set group =>   6
Atom  54H    basis set group =>   6
Atom  55H    basis set group =>   6
Atom  56H    basis set group =>   6
Atom  57H    basis set group =>   6
------------------------------------------------------------------------------
                             ORCA STARTUP CALCULATIONS
                           -- RI-GTO INTEGRALS CHOSEN --
------------------------------------------------------------------------------
------------------------------------------------------------------------------
                   ___                                                        
                  /   \      - P O W E R E D   B Y -                         
                 /     \                                                     
                 |  |  |   _    _      __       _____    __    __             
                 |  |  |  | |  | |    /  \     |  _  \  |  |  /  |          
                  \  \/   | |  | |   /    \    | | | |  |  | /  /          
                 / \  \   | |__| |  /  /\  \   | |_| |  |  |/  /          
                |  |  |   |  __  | /  /__\  \  |    /   |      \           
                |  |  |   | |  | | |   __   |  |    \   |  |\   \          
                \     /   | |  | | |  |  |  |  | |\  \  |  | \   \       
                 \___/    |_|  |_| |__|  |__|  |_| \__\ |__|  \__/        
                                                                              
                      - O R C A' S   B I G   F R I E N D -                    
                                      &                                       
                       - I N T E G R A L  F E E D E R -                       
                                                                              
 v1 FN, 2020, v2 2021, v3 2022-2024                                           
------------------------------------------------------------------------------


----------------------
SHARK INTEGRAL PACKAGE
----------------------

Number of atoms                             ...     58
Number of basis functions                   ...    564
Number of shells                            ...    266
Maximum angular momentum                    ...      2
Integral batch strategy                     ... SHARK/LIBINT Hybrid
RI-J (if used) integral strategy            ... SPLIT-RIJ (Revised 2003 algorithm where possible)
Printlevel                                  ...      1
Contraction scheme used                     ... SEGMENTED contraction
Prescreening option                         ... SCHWARTZ
   Thresh                                   ... 1.000e-10
   Tcut                                     ... 1.000e-11
   Tpresel                                  ... 1.000e-11 
Coulomb Range Separation                    ... NOT USED
Exchange Range Separation                   ... NOT USED
Multipole approximations                    ... NOT USED
Finite Nucleus Model                        ... NOT USED
CABS basis                                  ... NOT available
Auxiliary Coulomb fitting basis             ... AVAILABLE
   # of basis functions in Aux-J            ...   2046
   # of shells in Aux-J                     ...    662
   Maximum angular momentum in Aux-J        ...      4
Auxiliary J/K fitting basis                 ... NOT available
Auxiliary Correlation fitting basis         ... NOT available
Auxiliary 'external' fitting basis          ... NOT available

Checking pre-screening integrals            ... done (  0.0 sec) Dimension = 266
Check shell pair data                       ... done (  0.0 sec)
Shell pair information
Shell pair cut-off parameter TPreSel        ...   1.0e-11
Total number of shell pairs                 ...     35511
Shell pairs after pre-screening             ...     19026
Total number of primitive shell pairs       ...    213096
Primitive shell pairs kept                  ...     57719
          la=0 lb=0:   6078 shell pairs
          la=1 lb=0:   6749 shell pairs
          la=1 lb=1:   1874 shell pairs
          la=2 lb=0:   2554 shell pairs
          la=2 lb=1:   1497 shell pairs
          la=2 lb=2:    274 shell pairs

Calculating one electron integrals          ... done (  0.2 sec)
Calculating RI/J V-Matrix + Cholesky decomp.... done (  0.4 sec)
Calculating Nuclear repulsion               ... done (  0.0 sec) ENN=   4227.350989426815 Eh

Diagonalization of the overlap matrix:
Smallest eigenvalue                        ... 3.287e-04
Time for diagonalization                   ...    0.039 sec
Threshold for overlap eigenvalues          ... 1.000e-07
Number of eigenvalues below threshold      ... 0
Time for construction of square roots      ...    0.041 sec
Total time needed                          ...    0.096 sec

-------------------
DFT GRID GENERATION
-------------------

General Integration Accuracy     IntAcc      ... 4.388
Radial Grid Type                 RadialGrid  ... OptM3 with GC (2021)
Angular Grid (max. ang.)         AngularGrid ... 4 (Lebedev-302)
Angular grid pruning method      GridPruning ... 4 (adaptive)
Weight generation scheme         WeightScheme... mBecke (2022)
Basis function cutoff            BFCut       ... 1.0000e-10
Integration weight cutoff        WCut        ... 1.0000e-14
Partially contracted basis set               ... off
Rotationally invariant grid construction     ... off
Angular grids for H and He will be reduced by one unit

Total number of grid points                  ...   288733
Total number of batches                      ...     4542
Average number of points per batch           ...       63
Average number of grid points per atom       ...     4978

--------------------
COSX GRID GENERATION
--------------------

GRIDX 1
-------
General Integration Accuracy     IntAcc      ... 3.816
Radial Grid Type                 RadialGrid  ... OptM3 with GC (2021)
Angular Grid (max. ang.)         AngularGrid ... 1 (Lebedev-50)
Angular grid pruning method      GridPruning ... 4 (adaptive)
Weight generation scheme         WeightScheme... mBecke (2022)
Basis function cutoff            BFCut       ... 1.0000e-10
Integration weight cutoff        WCut        ... 1.0000e-14
Partially contracted basis set               ... on
Rotationally invariant grid construction     ... off
Angular grids for H and He will be reduced by one unit

Total number of grid points                  ...    37467
Total number of batches                      ...      325
Average number of points per batch           ...      115
Average number of grid points per atom       ...      646
UseSFitting                                  ... on

GRIDX 2
-------
General Integration Accuracy     IntAcc      ... 4.020
Radial Grid Type                 RadialGrid  ... OptM3 with GC (2021)
Angular Grid (max. ang.)         AngularGrid ... 2 (Lebedev-110)
Angular grid pruning method      GridPruning ... 4 (adaptive)
Weight generation scheme         WeightScheme... mBecke (2022)
Basis function cutoff            BFCut       ... 1.0000e-10
Integration weight cutoff        WCut        ... 1.0000e-14
Partially contracted basis set               ... on
Rotationally invariant grid construction     ... off
Angular grids for H and He will be reduced by one unit

Total number of grid points                  ...    80103
Total number of batches                      ...      656
Average number of points per batch           ...      122
Average number of grid points per atom       ...     1381
UseSFitting                                  ... on

GRIDX 3
-------
General Integration Accuracy     IntAcc      ... 4.338
Radial Grid Type                 RadialGrid  ... OptM3 with GC (2021)
Angular Grid (max. ang.)         AngularGrid ... 3 (Lebedev-194)
Angular grid pruning method      GridPruning ... 4 (adaptive)
Weight generation scheme         WeightScheme... mBecke (2022)
Basis function cutoff            BFCut       ... 1.0000e-10
Integration weight cutoff        WCut        ... 1.0000e-14
Partially contracted basis set               ... on
Rotationally invariant grid construction     ... off
Angular grids for H and He will be reduced by one unit

Total number of grid points                  ...   175729
Total number of batches                      ...     1403
Average number of points per batch           ...      125
Average number of grid points per atom       ...     3030
UseSFitting                                  ... on
Initializing property integral containers    ... done (  0.0 sec)

SHARK setup successfully completed in  11.3 seconds

Maximum memory used throughout the entire STARTUP-calculation: 126.4 MB
-------------------------------------------------------------------------------
                                 ORCA GUESS
                   Start orbitals & Density for SCF / CASSCF
-------------------------------------------------------------------------------

------------
SCF SETTINGS
------------
Hamiltonian:
 Density Functional     Method          .... DFT(GTOs)
 Exchange Functional    Exchange        .... B88
   X-Alpha parameter    XAlpha          ....  0.666667
   Becke's b parameter  XBeta           ....  0.004200
 Correlation Functional Correlation     .... LYP
 LDA part of GGA corr.  LDAOpt          .... VWN-5
 Gradients option       PostSCFGGA      .... off
 Hybrid DFT is turned on
   Fraction HF Exchange ScalHFX         ....  0.200000
   Scaling of DF-GGA-X  ScalDFX         ....  0.720000
   Scaling of DF-GGA-C  ScalDFC         ....  0.810000
   Scaling of DF-LDA-C  ScalLDAC        ....  1.000000
   Perturbative correction              ....  0.000000
   NL short-range parameter             ....  4.800000
 RI-approximation to the Coulomb term is turned on
   Number of AuxJ basis functions       .... 2046
   RIJ-COSX (HFX calculated with COS-X)).... on


General Settings:
 Integral files         IntName         .... /home/nmrbox/aojoawo/Documents/ERDOS/inputs/CHEMBL3682614
 Hartree-Fock type      HFTyp           .... RHF
 Total Charge           Charge          ....    0
 Multiplicity           Mult            ....    1
 Number of Electrons    NEL             ....  274
 Basis Dimension        Dim             ....  564
 Nuclear Repulsion      ENuc            ....   4227.3509894268 Eh

Convergence Acceleration:
 AO-DIIS                CNVDIIS         .... on
   Start iteration      DIISMaxIt       ....    12
   Startup error        DIISStart       ....  0.200000
   # of expansion vecs  DIISMaxEq       ....     5
   Bias factor          DIISBfac        ....   1.050
   Max. coefficient     DIISMaxC        ....  10.000
 MO-DIIS                CNVKDIIS        .... off
 Trust-Rad. Augm. Hess. CNVTRAH         .... auto
   Auto Start mean grad. ratio tolernc. ....  1.125000
   Auto Start start iteration           ....    50
   Auto Start num. interpolation iter.  ....    10
   Max. Number of Micro iterations      ....    24
   Max. Number of Macro iterations      .... Maxiter - #DIIS iter
   Number of Davidson start vectors     ....     2
   Converg. threshold    (grad. norm)   ....   5.000e-05
   Grad. Scal. Fac. for Micro threshold ....   0.100
   Minimum threshold for Micro iter.    ....   1.000e-02
   NR start threshold (gradient norm)   ....   1.000e-04
   Initial trust radius                 ....   0.400
   Minimum AH scaling param. (alpha)    ....   1.000
   Maximum AH scaling param. (alpha)    .... 1000.000
   Quad. conv. algorithm                .... NR
   White noise on init. David. guess    .... on
   Maximum white noise                  ....   0.010
   Pseudo random numbers                .... off
   Inactive MOs                         .... canonical
   Orbital update algorithm             .... Taylor
   Preconditioner                       .... Diag
   Full preconditioner red. dimension   ....   250
 SOSCF                  CNVSOSCF        .... on
   Start iteration      SOSCFMaxIt      ....   150
   Startup grad/error   SOSCFStart      ....  0.003300
   Hessian update       SOSCFHessUp     .... L-BFGS
 Level Shifting         CNVShift        .... on
   Level shift para.    LevelShift      ....    0.2500
   Turn off err/grad.   ShiftErr        ....    0.0010
 Zerner damping         CNVZerner       .... off
 Static damping         CNVDamp         .... on
   Fraction old density DampFac         ....    0.7000
   Max. Damping (<1)    DampMax         ....    0.9800
   Min. Damping (>=0)   DampMin         ....    0.0000
   Turn off err/grad.   DampErr         ....    0.1000

SCF Procedure:
 Maximum # iterations   MaxIter         ....   125
 SCF integral mode      SCFMode         .... Direct
   Integral package                     .... SHARK and LIBINT hybrid scheme
 Reset frequency        DirectResetFreq ....    20
 Integral Threshold     Thresh          ....  1.000e-10 Eh
 Primitive CutOff       TCut            ....  1.000e-11 Eh

Convergence Tolerance:
 Convergence Check Mode ConvCheckMode   .... Total+1el-Energy
 Convergence forced     ConvForced      .... 0
 Energy Change          TolE            ....  1.000e-06 Eh
 1-El. energy change                    ....  1.000e-03 Eh
 Orbital Gradient       TolG            ....  5.000e-05
 Orbital Rotation angle TolX            ....  5.000e-05
 DIIS Error             TolErr          ....  1.000e-06

------------------------------
INITIAL GUESS: MODEL POTENTIAL
------------------------------
Loading Hartree-Fock densities                     ... done
Calculating cut-offs                               ... done
Initializing the effective Hamiltonian             ... done
Setting up the integral package (SHARK)            ... done
Starting the Coulomb interaction                   ... done (   2.7 sec)
Making the grid                                    ... done (   1.4 sec)
Mapping shells                                     ... done
Starting the XC term evaluation                    ... done (   1.0 sec)
  promolecular density results
     # of electrons  =    273.979686835
     EX              =   -249.225265418
     EC              =     -9.653555008
     EX+EC           =   -258.878820426
Transforming the Hamiltonian                       ... done (   0.0 sec)
Diagonalizing the Hamiltonian                      ... done (   0.0 sec)
Back transforming the eigenvectors                 ... done (   0.0 sec)
Now organizing SCF variables                       ... done
                      ------------------
                      INITIAL GUESS DONE (   5.3 sec)
                      ------------------
             **** ENERGY FILE WAS UPDATED (/home/nmrbox/aojoawo/Documents/ERDOS/inputs/CHEMBL3682614.en.tmp) ****
Finished Guess after   5.6 sec
Maximum memory used throughout the entire GUESS-calculation: 70.1 MB

-------------------------------------------------------------------------------------------
                                      ORCA LEAN-SCF
                              memory conserving SCF solver
-------------------------------------------------------------------------------------------

----------------------------------------D-I-I-S--------------------------------------------
Iteration    Energy (Eh)           Delta-E    RMSDP     MaxDP     DIISErr   Damp  Time(sec)
-------------------------------------------------------------------------------------------
               ***  Starting incremental Fock matrix formation  ***
    1    -2184.5397217869040105     0.00e+00  2.34e-03  1.87e-01  2.96e-01  0.700  53.4
    2    -2185.0495946460951018    -5.10e-01  1.41e-03  7.73e-02  9.94e-02  0.700  23.6
                               ***Turning on AO-DIIS***
    3    -2185.2239423395385529    -1.74e-01  5.57e-04  1.64e-02  3.46e-02  0.700  22.8
    4    -2185.3389013908163179    -1.15e-01  9.51e-04  3.32e-02  1.52e-02  0.000  20.9
    5    -2185.5977281213381502    -2.59e-01  2.17e-04  8.31e-03  6.77e-03  0.000  22.0
                              *** Initializing SOSCF ***
---------------------------------------S-O-S-C-F--------------------------------------
Iteration    Energy (Eh)           Delta-E    RMSDP     MaxDP     MaxGrad    Time(sec)
--------------------------------------------------------------------------------------
    6    -2185.5994265415565678    -1.70e-03  7.12e-05  3.04e-03  2.59e-03    18.8
               *** Restarting incremental Fock matrix formation ***
    7    -2185.5995846516834717    -1.58e-04  6.81e-05  3.83e-03  4.04e-04    53.3
    8    -2185.5995033515519026     8.13e-05  4.49e-05  2.59e-03  1.33e-03    30.9
    9    -2185.5996145367889767    -1.11e-04  1.28e-05  7.74e-04  1.45e-04    27.9
   10    -2185.5996117853183023     2.75e-06  8.11e-06  5.24e-04  2.62e-04    22.0
   11    -2185.5996158249690779    -4.04e-06  2.33e-06  8.85e-05  3.45e-05    20.1
   12    -2185.5996158365287556    -1.16e-08  1.47e-06  6.02e-05  5.63e-05    15.8
                 **** Energy Check signals convergence ****

               *****************************************************
               *                     SUCCESS                       *
               *           SCF CONVERGED AFTER  12 CYCLES          *
               *****************************************************

Recomputing exchange energy using gridx3       ... done (   92.221 sec)
Old exchange energy                            :    -50.350989349 Eh
New exchange energy                            :    -50.351010341 Eh
Exchange energy change after final integration :     -0.000020991 Eh
Total energy after final integration           :  -2185.599636828 Eh
             **** ENERGY FILE WAS UPDATED (/home/nmrbox/aojoawo/Documents/ERDOS/inputs/CHEMBL3682614.en.tmp) ****

----------------
TOTAL SCF ENERGY
----------------

Total Energy       :      -2185.59963682793887 Eh          -59473.18968 eV

Components:
Nuclear Repulsion  :       4227.35098942681452 Eh          115032.06854 eV
Electronic Energy  :      -6412.95060526334328 Eh         -174505.25765 eV
One Electron Energy:     -11408.41067270945314 Eh         -310438.63680 eV
Two Electron Energy:       4995.46006744610986 Eh          135933.37915 eV

Virial components:
Potential Energy   :      -4358.73403387145117 Eh         -118607.18293 eV
Kinetic Energy     :       2173.13439704351185 Eh           59133.99326 eV
Virial Ratio       :          2.00573606482939

DFT components:
N(Alpha)           :      136.999753143616 electrons
N(Beta)            :      136.999753143616 electrons
N(Total)           :      273.999506287232 electrons
E(X)               :     -200.179476105281 Eh       
E(C)               :      -11.335586091894 Eh       
E(XC)              :     -211.515062197176 Eh       

---------------
SCF CONVERGENCE
---------------

  Last Energy change         ...    1.1560e-08  Tolerance :   1.0000e-06
  Last MAX-Density change    ...    6.0185e-05  Tolerance :   1.0000e-05
  Last RMS-Density change    ...    1.4672e-06  Tolerance :   1.0000e-06
  Last DIIS Error            ...    2.5932e-03  Tolerance :   1.0000e-06
  Last Orbital Gradient      ...    5.6296e-05  Tolerance :   5.0000e-05
  Last Orbital Rotation      ...    7.2608e-05  Tolerance :   5.0000e-05


----------------
ORBITAL ENERGIES
----------------

  NO   OCC          E(Eh)            E(eV) 
   0   2.0000     -89.094365     -2424.3809 
   1   2.0000     -24.744600      -673.3348 
   2   2.0000     -24.742404      -673.2750 
   3   2.0000     -24.742009      -673.2643 
   4   2.0000     -19.217457      -522.9336 
   5   2.0000     -19.193390      -522.2787 
   6   2.0000     -19.134361      -520.6724 
   7   2.0000     -19.126569      -520.4604 
   8   2.0000     -19.124368      -520.4005 
   9   2.0000     -14.370800      -391.0493 
  10   2.0000     -14.331986      -389.9932 
  11   2.0000     -10.507576      -285.9257 
  12   2.0000     -10.331798      -281.1425 
  13   2.0000     -10.274531      -279.5842 
  14   2.0000     -10.255761      -279.0735 
  15   2.0000     -10.236132      -278.5393 
  16   2.0000     -10.235025      -278.5092 
  17   2.0000     -10.226754      -278.2841 
  18   2.0000     -10.223776      -278.2031 
  19   2.0000     -10.215845      -277.9873 
  20   2.0000     -10.213512      -277.9238 
  21   2.0000     -10.212708      -277.9019 
  22   2.0000     -10.212057      -277.8842 
  23   2.0000     -10.211539      -277.8701 
  24   2.0000     -10.210291      -277.8361 
  25   2.0000     -10.208641      -277.7912 
  26   2.0000     -10.202504      -277.6243 
  27   2.0000     -10.202189      -277.6157 
  28   2.0000     -10.201651      -277.6010 
  29   2.0000     -10.200748      -277.5765 
  30   2.0000     -10.200293      -277.5641 
  31   2.0000     -10.199201      -277.5344 
  32   2.0000     -10.192786      -277.3598 
  33   2.0000     -10.192464      -277.3510 
  34   2.0000     -10.192087      -277.3408 
  35   2.0000     -10.183448      -277.1057 
  36   2.0000     -10.171504      -276.7807 
  37   2.0000      -8.130384      -221.2390 
  38   2.0000      -6.095308      -165.8618 
  39   2.0000      -6.093506      -165.8127 
  40   2.0000      -6.092979      -165.7984 
  41   2.0000      -1.307345       -35.5747 
  42   2.0000      -1.228080       -33.4178 
  43   2.0000      -1.227558       -33.4036 
  44   2.0000      -1.087351       -29.5883 
  45   2.0000      -1.082727       -29.4625 
  46   2.0000      -1.078306       -29.3422 
  47   2.0000      -0.992016       -26.9941 
  48   2.0000      -0.965087       -26.2614 
  49   2.0000      -0.960863       -26.1464 
  50   2.0000      -0.915216       -24.9043 
  51   2.0000      -0.884980       -24.0815 
  52   2.0000      -0.870259       -23.6810 
  53   2.0000      -0.864296       -23.5187 
  54   2.0000      -0.807703       -21.9787 
  55   2.0000      -0.802675       -21.8419 
  56   2.0000      -0.788864       -21.4661 
  57   2.0000      -0.781819       -21.2744 
  58   2.0000      -0.770979       -20.9794 
  59   2.0000      -0.763532       -20.7768 
  60   2.0000      -0.756261       -20.5789 
  61   2.0000      -0.730503       -19.8780 
  62   2.0000      -0.707346       -19.2479 
  63   2.0000      -0.703277       -19.1371 
  64   2.0000      -0.688838       -18.7442 
  65   2.0000      -0.674888       -18.3646 
  66   2.0000      -0.650236       -17.6938 
  67   2.0000      -0.637656       -17.3515 
  68   2.0000      -0.635284       -17.2870 
  69   2.0000      -0.629623       -17.1329 
  70   2.0000      -0.627012       -17.0619 
  71   2.0000      -0.612461       -16.6659 
  72   2.0000      -0.599445       -16.3117 
  73   2.0000      -0.595328       -16.1997 
  74   2.0000      -0.592994       -16.1362 
  75   2.0000      -0.580333       -15.7917 
  76   2.0000      -0.577211       -15.7067 
  77   2.0000      -0.558373       -15.1941 
  78   2.0000      -0.538390       -14.6503 
  79   2.0000      -0.527563       -14.3557 
  80   2.0000      -0.520389       -14.1605 
  81   2.0000      -0.502097       -13.6627 
  82   2.0000      -0.493841       -13.4381 
  83   2.0000      -0.493393       -13.4259 
  84   2.0000      -0.484769       -13.1912 
  85   2.0000      -0.480208       -13.0671 
  86   2.0000      -0.475720       -12.9450 
  87   2.0000      -0.473314       -12.8795 
  88   2.0000      -0.470879       -12.8133 
  89   2.0000      -0.467641       -12.7251 
  90   2.0000      -0.462757       -12.5923 
  91   2.0000      -0.457503       -12.4493 
  92   2.0000      -0.453356       -12.3364 
  93   2.0000      -0.449690       -12.2367 
  94   2.0000      -0.449034       -12.2188 
  95   2.0000      -0.443194       -12.0599 
  96   2.0000      -0.441159       -12.0045 
  97   2.0000      -0.440799       -11.9948 
  98   2.0000      -0.438866       -11.9421 
  99   2.0000      -0.438553       -11.9336 
 100   2.0000      -0.432733       -11.7753 
 101   2.0000      -0.424998       -11.5648 
 102   2.0000      -0.419968       -11.4279 
 103   2.0000      -0.419536       -11.4162 
 104   2.0000      -0.416908       -11.3446 
 105   2.0000      -0.413494       -11.2517 
 106   2.0000      -0.411150       -11.1880 
 107   2.0000      -0.410309       -11.1651 
 108   2.0000      -0.404255       -11.0003 
 109   2.0000      -0.395757       -10.7691 
 110   2.0000      -0.389439       -10.5972 
 111   2.0000      -0.384375       -10.4594 
 112   2.0000      -0.381932       -10.3929 
 113   2.0000      -0.379840       -10.3360 
 114   2.0000      -0.378007       -10.2861 
 115   2.0000      -0.372069       -10.1245 
 116   2.0000      -0.364240        -9.9115 
 117   2.0000      -0.359909        -9.7936 
 118   2.0000      -0.352885        -9.6025 
 119   2.0000      -0.350021        -9.5246 
 120   2.0000      -0.348782        -9.4909 
 121   2.0000      -0.338972        -9.2239 
 122   2.0000      -0.324475        -8.8294 
 123   2.0000      -0.318017        -8.6537 
 124   2.0000      -0.305328        -8.3084 
 125   2.0000      -0.293652        -7.9907 
 126   2.0000      -0.285272        -7.7627 
 127   2.0000      -0.282554        -7.6887 
 128   2.0000      -0.274156        -7.4602 
 129   2.0000      -0.272600        -7.4178 
 130   2.0000      -0.270903        -7.3717 
 131   2.0000      -0.266805        -7.2601 
 132   2.0000      -0.264013        -7.1842 
 133   2.0000      -0.258084        -7.0228 
 134   2.0000      -0.252494        -6.8707 
 135   2.0000      -0.244290        -6.6475 
 136   2.0000      -0.216761        -5.8984 
 137   0.0000      -0.077417        -2.1066 
 138   0.0000      -0.059977        -1.6321 
 139   0.0000      -0.033891        -0.9222 
 140   0.0000      -0.025186        -0.6854 
 141   0.0000      -0.018486        -0.5030 
 142   0.0000      -0.017768        -0.4835 
 143   0.0000       0.014555         0.3961 
 144   0.0000       0.021434         0.5833 
 145   0.0000       0.042054         1.1443 
 146   0.0000       0.047598         1.2952 
 147   0.0000       0.054340         1.4787 
*Only the first 10 virtual orbitals were printed.

                    ********************************
                    * MULLIKEN POPULATION ANALYSIS *
                    ********************************

-----------------------
MULLIKEN ATOMIC CHARGES
-----------------------
   0 C :   -0.525962
   1 C :    0.102959
   2 C :   -0.175817
   3 C :   -0.118133
   4 C :   -0.205830
   5 C :    0.140376
   6 C :   -0.061095
   7 N :   -0.393193
   8 C :    0.304868
   9 N :   -0.599515
  10 C :   -0.234393
  11 C :    0.149950
  12 C :   -0.162273
  13 C :   -0.176821
  14 C :    0.351890
  15 O :   -0.545619
  16 C :    1.086541
  17 F :   -0.291693
  18 F :   -0.278344
  19 F :   -0.289702
  20 C :   -0.194017
  21 C :   -0.165646
  22 S :    1.228376
  23 O :   -0.554807
  24 O :   -0.554613
  25 C :   -0.118973
  26 C :   -0.126641
  27 C :   -0.143292
  28 C :    0.083629
  29 C :    0.526622
  30 O :   -0.445845
  31 O :   -0.623855
  32 C :   -0.147627
  33 C :   -0.152772
  34 C :    0.102598
  35 C :   -0.539116
  36 C :    0.066618
  37 H :    0.155291
  38 H :    0.168502
  39 H :    0.168295
  40 H :    0.133792
  41 H :    0.134175
  42 H :    0.135144
  43 H :    0.150534
  44 H :    0.180533
  45 H :    0.163148
  46 H :    0.148082
  47 H :    0.150526
  48 H :    0.157772
  49 H :    0.164403
  50 H :    0.186509
  51 H :    0.178214
  52 H :    0.433039
  53 H :    0.169529
  54 H :    0.173464
  55 H :    0.201578
  56 H :    0.160889
  57 H :    0.167749
Sum of atomic charges:   -0.0000000

--------------------------------
MULLIKEN REDUCED ORBITAL CHARGES
--------------------------------
  0 C s       :     3.319122  s :     3.319122
      pz      :     1.054536  p :     3.172101
      px      :     1.056350
      py      :     1.061215
      dz2     :     0.010622  d :     0.034739
      dxz     :     0.005768
      dyz     :     0.003704
      dx2y2   :     0.010522
      dxy     :     0.004122

  1 C s       :     3.159844  s :     3.159844
      pz      :     0.917496  p :     2.697302
      px      :     0.893647
      py      :     0.886159
      dz2     :     0.006857  d :     0.039896
      dxz     :     0.005393
      dyz     :     0.009168
      dx2y2   :     0.009650
      dxy     :     0.008828

  2 C s       :     3.204389  s :     3.204389
      pz      :     0.973871  p :     2.934965
      px      :     0.972995
      py      :     0.988099
      dz2     :     0.008284  d :     0.036463
      dxz     :     0.005919
      dyz     :     0.007299
      dx2y2   :     0.009533
      dxy     :     0.005428

  3 C s       :     3.188642  s :     3.188642
      pz      :     0.954762  p :     2.892413
      px      :     0.976802
      py      :     0.960849
      dz2     :     0.006346  d :     0.037077
      dxz     :     0.006146
      dyz     :     0.010051
      dx2y2   :     0.005846
      dxy     :     0.008688

  4 C s       :     3.204786  s :     3.204786
      pz      :     0.995721  p :     2.964538
      px      :     0.989324
      py      :     0.979493
      dz2     :     0.006090  d :     0.036506
      dxz     :     0.005975
      dyz     :     0.009738
      dx2y2   :     0.006829
      dxy     :     0.007873

  5 C s       :     3.142812  s :     3.142812
      pz      :     0.882051  p :     2.674892
      px      :     0.914309
      py      :     0.878531
      dz2     :     0.008947  d :     0.041921
      dxz     :     0.006341
      dyz     :     0.010280
      dx2y2   :     0.008414
      dxy     :     0.007939

  6 C s       :     3.161854  s :     3.161854
      pz      :     0.939187  p :     2.845242
      px      :     0.942246
      py      :     0.963809
      dz2     :     0.010977  d :     0.053999
      dxz     :     0.008788
      dyz     :     0.012421
      dx2y2   :     0.010886
      dxy     :     0.010926

  7 N s       :     3.674414  s :     3.674414
      pz      :     1.069333  p :     3.683331
      px      :     1.089692
      py      :     1.524307
      dz2     :     0.008221  d :     0.035449
      dxz     :     0.005354
      dyz     :     0.008860
      dx2y2   :     0.005454
      dxy     :     0.007559

  8 C s       :     3.039553  s :     3.039553
      pz      :     0.798647  p :     2.582307
      px      :     0.914067
      py      :     0.869593
      dz2     :     0.016897  d :     0.073271
      dxz     :     0.013365
      dyz     :     0.019307
      dx2y2   :     0.010701
      dxy     :     0.013001

  9 N s       :     3.611063  s :     3.611063
      pz      :     1.545374  p :     3.954058
      px      :     1.129652
      py      :     1.279032
      dz2     :     0.004178  d :     0.034394
      dxz     :     0.007352
      dyz     :     0.005755
      dx2y2   :     0.007607
      dxy     :     0.009503

 10 C s       :     3.244289  s :     3.244289
      pz      :     1.079883  p :     2.934643
      px      :     0.804606
      py      :     1.050155
      dz2     :     0.012896  d :     0.055461
      dxz     :     0.009258
      dyz     :     0.008155
      dx2y2   :     0.013535
      dxy     :     0.011616

 11 C s       :     3.117119  s :     3.117119
      pz      :     0.866947  p :     2.693100
      px      :     0.954969
      py      :     0.871184
      dz2     :     0.010125  d :     0.039831
      dxz     :     0.007071
      dyz     :     0.011252
      dx2y2   :     0.005353
      dxy     :     0.006029

 12 C s       :     3.200792  s :     3.200792
      pz      :     0.990760  p :     2.924921
      px      :     0.980468
      py      :     0.953694
      dz2     :     0.009662  d :     0.036560
      dxz     :     0.005857
      dyz     :     0.008912
      dx2y2   :     0.006028
      dxy     :     0.006101

 13 C s       :     3.195870  s :     3.195870
      pz      :     0.948213  p :     2.946422
      px      :     1.010651
      py      :     0.987558
      dz2     :     0.007289  d :     0.034529
      dxz     :     0.005393
      dyz     :     0.011899
      dx2y2   :     0.005750
      dxy     :     0.004198

 14 C s       :     3.074601  s :     3.074601
      pz      :     0.901414  p :     2.508039
      px      :     0.910207
      py      :     0.696419
      dz2     :     0.014408  d :     0.065470
      dxz     :     0.008527
      dyz     :     0.015357
      dx2y2   :     0.013416
      dxy     :     0.013762

 15 O s       :     3.884781  s :     3.884781
      pz      :     1.477057  p :     4.634896
      px      :     1.673206
      py      :     1.484633
      dz2     :     0.007420  d :     0.025942
      dxz     :     0.004622
      dyz     :     0.004414
      dx2y2   :     0.004957
      dxy     :     0.004528

 16 C s       :     2.715996  s :     2.715996
      pz      :     0.713265  p :     2.032754
      px      :     0.672041
      py      :     0.647448
      dz2     :     0.031218  d :     0.164710
      dxz     :     0.039613
      dyz     :     0.028178
      dx2y2   :     0.030198
      dxy     :     0.035503

 17 F s       :     3.982279  s :     3.982279
      pz      :     1.701805  p :     5.293172
      px      :     1.683214
      py      :     1.908153
      dz2     :     0.003081  d :     0.016242
      dxz     :     0.006495
      dyz     :     0.001895
      dx2y2   :     0.002705
      dxy     :     0.002065

 18 F s       :     3.979099  s :     3.979099
      pz      :     1.899719  p :     5.283029
      px      :     1.844822
      py      :     1.538488
      dz2     :     0.002317  d :     0.016216
      dxz     :     0.000830
      dyz     :     0.003120
      dx2y2   :     0.004966
      dxy     :     0.004982

 19 F s       :     3.982256  s :     3.982256
      pz      :     1.871383  p :     5.291142
      px      :     1.675540
      py      :     1.744219
      dz2     :     0.002193  d :     0.016304
      dxz     :     0.002903
      dyz     :     0.002062
      dx2y2   :     0.003455
      dxy     :     0.005691

 20 C s       :     3.184145  s :     3.184145
      pz      :     0.972337  p :     2.975367
      px      :     1.028734
      py      :     0.974296
      dz2     :     0.008404  d :     0.034506
      dxz     :     0.005671
      dyz     :     0.009526
      dx2y2   :     0.005484
      dxy     :     0.005421

 21 C s       :     3.208075  s :     3.208075
      pz      :     0.982072  p :     2.921159
      px      :     0.967220
      py      :     0.971868
      dz2     :     0.008129  d :     0.036413
      dxz     :     0.005145
      dyz     :     0.012555
      dx2y2   :     0.005859
      dxy     :     0.004724

 22 S s       :     5.216765  s :     5.216765
      pz      :     3.024076  p :     9.018257
      px      :     2.957128
      py      :     3.037053
      dz2     :     0.087203  d :     0.536603
      dxz     :     0.118694
      dyz     :     0.126628
      dx2y2   :     0.101583
      dxy     :     0.102495

 23 O s       :     3.929528  s :     3.929528
      pz      :     1.599953  p :     4.598288
      px      :     1.341544
      py      :     1.656791
      dz2     :     0.004090  d :     0.026990
      dxz     :     0.007283
      dyz     :     0.002085
      dx2y2   :     0.006851
      dxy     :     0.006681

 24 O s       :     3.926982  s :     3.926982
      pz      :     1.331204  p :     4.600921
      px      :     1.583900
      py      :     1.685817
      dz2     :     0.008130  d :     0.026709
      dxz     :     0.007524
      dyz     :     0.005685
      dx2y2   :     0.002668
      dxy     :     0.002704

 25 C s       :     3.220939  s :     3.220939
      pz      :     0.979335  p :     2.859451
      px      :     0.989546
      py      :     0.890570
      dz2     :     0.004570  d :     0.038583
      dxz     :     0.006984
      dyz     :     0.008236
      dx2y2   :     0.010224
      dxy     :     0.008569

 26 C s       :     3.204399  s :     3.204399
      pz      :     0.927584  p :     2.886351
      px      :     0.967021
      py      :     0.991746
      dz2     :     0.006979  d :     0.035890
      dxz     :     0.006225
      dyz     :     0.005156
      dx2y2   :     0.006791
      dxy     :     0.010740

 27 C s       :     3.215204  s :     3.215204
      pz      :     0.951834  p :     2.892460
      px      :     0.996580
      py      :     0.944045
      dz2     :     0.004514  d :     0.035628
      dxz     :     0.007796
      dyz     :     0.005916
      dx2y2   :     0.009350
      dxy     :     0.008052

 28 C s       :     3.164628  s :     3.164628
      pz      :     0.932987  p :     2.713336
      px      :     0.879900
      py      :     0.900449
      dz2     :     0.005046  d :     0.038406
      dxz     :     0.006993
      dyz     :     0.007773
      dx2y2   :     0.010194
      dxy     :     0.008401

 29 C s       :     2.997192  s :     2.997192
      pz      :     0.841092  p :     2.365793
      px      :     0.719835
      py      :     0.804866
      dz2     :     0.017359  d :     0.110393
      dxz     :     0.020243
      dyz     :     0.015139
      dx2y2   :     0.024124
      dxy     :     0.033528

 30 O s       :     3.877493  s :     3.877493
      pz      :     1.441454  p :     4.542752
      px      :     1.403239
      py      :     1.698059
      dz2     :     0.005569  d :     0.025601
      dxz     :     0.007692
      dyz     :     0.002106
      dx2y2   :     0.005375
      dxy     :     0.004858

 31 O s       :     3.871741  s :     3.871741
      pz      :     1.686629  p :     4.731169
      px      :     1.667466
      py      :     1.377074
      dz2     :     0.002021  d :     0.020945
      dxz     :     0.002755
      dyz     :     0.006688
      dx2y2   :     0.004353
      dxy     :     0.005128

 32 C s       :     3.209596  s :     3.209596
      pz      :     0.951776  p :     2.902329
      px      :     0.987706
      py      :     0.962847
      dz2     :     0.007005  d :     0.035702
      dxz     :     0.005869
      dyz     :     0.005204
      dx2y2   :     0.006686
      dxy     :     0.010939

 33 C s       :     3.203570  s :     3.203570
      pz      :     0.979224  p :     2.913197
      px      :     0.996061
      py      :     0.937912
      dz2     :     0.004531  d :     0.036005
      dxz     :     0.007978
      dyz     :     0.005981
      dx2y2   :     0.009528
      dxy     :     0.007988

 34 C s       :     3.189687  s :     3.189687
      pz      :     0.856906  p :     2.668212
      px      :     0.921921
      py      :     0.889385
      dz2     :     0.009290  d :     0.039503
      dxz     :     0.006520
      dyz     :     0.011374
      dx2y2   :     0.006088
      dxy     :     0.006231

 35 C s       :     3.320413  s :     3.320413
      pz      :     1.000484  p :     3.184554
      px      :     1.064047
      py      :     1.120023
      dz2     :     0.008044  d :     0.034149
      dxz     :     0.006123
      dyz     :     0.007687
      dx2y2   :     0.004406
      dxy     :     0.007888

 36 C s       :     3.154949  s :     3.154949
      pz      :     0.906762  p :     2.738284
      px      :     0.970603
      py      :     0.860920
      dz2     :     0.008140  d :     0.040149
      dxz     :     0.005478
      dyz     :     0.010789
      dx2y2   :     0.007796
      dxy     :     0.007946

 37 H s       :     0.844709  s :     0.844709

 38 H s       :     0.831498  s :     0.831498

 39 H s       :     0.831705  s :     0.831705

 40 H s       :     0.866208  s :     0.866208

 41 H s       :     0.865825  s :     0.865825

 42 H s       :     0.864856  s :     0.864856

 43 H s       :     0.849466  s :     0.849466

 44 H s       :     0.819467  s :     0.819467

 45 H s       :     0.836852  s :     0.836852

 46 H s       :     0.851918  s :     0.851918

 47 H s       :     0.849474  s :     0.849474

 48 H s       :     0.842228  s :     0.842228

 49 H s       :     0.835597  s :     0.835597

 50 H s       :     0.813491  s :     0.813491

 51 H s       :     0.821786  s :     0.821786

 52 H s       :     0.566961  s :     0.566961

 53 H s       :     0.830471  s :     0.830471

 54 H s       :     0.826536  s :     0.826536

 55 H s       :     0.798422  s :     0.798422

 56 H s       :     0.839111  s :     0.839111

 57 H s       :     0.832251  s :     0.832251



                     *******************************
                     * LOEWDIN POPULATION ANALYSIS *
                     *******************************

----------------------
LOEWDIN ATOMIC CHARGES
----------------------
   0 C :   -0.352872
   1 C :   -0.004895
   2 C :   -0.126432
   3 C :   -0.124382
   4 C :   -0.122242
   5 C :   -0.025035
   6 C :   -0.066858
   7 N :   -0.138298
   8 C :    0.019628
   9 N :   -0.278285
  10 C :   -0.146965
  11 C :   -0.037421
  12 C :   -0.118703
  13 C :   -0.145611
  14 C :    0.085633
  15 O :   -0.160009
  16 C :    0.359919
  17 F :   -0.105716
  18 F :   -0.086779
  19 F :   -0.103278
  20 C :   -0.160914
  21 C :   -0.109404
  22 S :    1.264582
  23 O :   -0.570884
  24 O :   -0.576475
  25 C :   -0.172647
  26 C :   -0.091930
  27 C :   -0.086024
  28 C :   -0.040722
  29 C :    0.179314
  30 O :   -0.261992
  31 O :   -0.334867
  32 C :   -0.101156
  33 C :   -0.110920
  34 C :    0.007318
  35 C :   -0.359199
  36 C :   -0.008161
  37 H :    0.130909
  38 H :    0.139571
  39 H :    0.139331
  40 H :    0.135022
  41 H :    0.134808
  42 H :    0.135589
  43 H :    0.136163
  44 H :    0.146669
  45 H :    0.126629
  46 H :    0.141886
  47 H :    0.145917
  48 H :    0.144267
  49 H :    0.148697
  50 H :    0.162481
  51 H :    0.159443
  52 H :    0.348866
  53 H :    0.153110
  54 H :    0.153568
  55 H :    0.151523
  56 H :    0.137264
  57 H :    0.140970

-------------------------------
LOEWDIN REDUCED ORBITAL CHARGES
-------------------------------
  0 C s       :     2.974265  s :     2.974265
      pz      :     1.101958  p :     3.311197
      px      :     1.102527
      py      :     1.106712
      dz2     :     0.020670  d :     0.067410
      dxz     :     0.011190
      dyz     :     0.007323
      dx2y2   :     0.020221
      dxy     :     0.008005

  1 C s       :     2.882393  s :     2.882393
      pz      :     0.996586  p :     3.026155
      px      :     0.992293
      py      :     1.037277
      dz2     :     0.014639  d :     0.096347
      dxz     :     0.012511
      dyz     :     0.023270
      dx2y2   :     0.022794
      dxy     :     0.023134

  2 C s       :     2.918984  s :     2.918984
      pz      :     1.037822  p :     3.121988
      px      :     1.016135
      py      :     1.068031
      dz2     :     0.019102  d :     0.085460
      dxz     :     0.015746
      dyz     :     0.018028
      dx2y2   :     0.019591
      dxy     :     0.012992

  3 C s       :     2.914556  s :     2.914556
      pz      :     1.039652  p :     3.121795
      px      :     1.012065
      py      :     1.070078
      dz2     :     0.015201  d :     0.088032
      dxz     :     0.013110
      dyz     :     0.025325
      dx2y2   :     0.015058
      dxy     :     0.019338

  4 C s       :     2.912245  s :     2.912245
      pz      :     1.045421  p :     3.124235
      px      :     1.015921
      py      :     1.062892
      dz2     :     0.014069  d :     0.085763
      dxz     :     0.011350
      dyz     :     0.023150
      dx2y2   :     0.018024
      dxy     :     0.019170

  5 C s       :     2.860166  s :     2.860166
      pz      :     1.018453  p :     3.056151
      px      :     0.990338
      py      :     1.047360
      dz2     :     0.022182  d :     0.108719
      dxz     :     0.016233
      dyz     :     0.028295
      dx2y2   :     0.021713
      dxy     :     0.020296

  6 C s       :     2.911415  s :     2.911415
      pz      :     1.026336  p :     3.030957
      px      :     0.974458
      py      :     1.030163
      dz2     :     0.024467  d :     0.124485
      dxz     :     0.018728
      dyz     :     0.028296
      dx2y2   :     0.026308
      dxy     :     0.026687

  7 N s       :     3.233210  s :     3.233210
      pz      :     1.166093  p :     3.824036
      px      :     1.129226
      py      :     1.528717
      dz2     :     0.021088  d :     0.081052
      dxz     :     0.015807
      dyz     :     0.019234
      dx2y2   :     0.010300
      dxy     :     0.014624

  8 C s       :     2.845960  s :     2.845960
      pz      :     0.978063  p :     2.957293
      px      :     0.983524
      py      :     0.995706
      dz2     :     0.038991  d :     0.177119
      dxz     :     0.032082
      dyz     :     0.049726
      dx2y2   :     0.025695
      dxy     :     0.030625

  9 N s       :     3.184720  s :     3.184720
      pz      :     1.530365  p :     4.006543
      px      :     1.170530
      py      :     1.305648
      dz2     :     0.009679  d :     0.087022
      dxz     :     0.017617
      dyz     :     0.014812
      dx2y2   :     0.020467
      dxy     :     0.024447

 10 C s       :     2.921302  s :     2.921302
      pz      :     1.107607  p :     3.107527
      px      :     0.915609
      py      :     1.084311
      dz2     :     0.026408  d :     0.118136
      dxz     :     0.020242
      dyz     :     0.015072
      dx2y2   :     0.030363
      dxy     :     0.026051

 11 C s       :     2.876114  s :     2.876114
      pz      :     1.060344  p :     3.060952
      px      :     0.983867
      py      :     1.016741
      dz2     :     0.027940  d :     0.100355
      dxz     :     0.016710
      dyz     :     0.029863
      dx2y2   :     0.011768
      dxy     :     0.014074

 12 C s       :     2.917684  s :     2.917684
      pz      :     1.069476  p :     3.115674
      px      :     1.001908
      py      :     1.044290
      dz2     :     0.021306  d :     0.085345
      dxz     :     0.011463
      dyz     :     0.023149
      dx2y2   :     0.014581
      dxy     :     0.014846

 13 C s       :     2.916252  s :     2.916252
      pz      :     1.051848  p :     3.147859
      px      :     1.028156
      py      :     1.067855
      dz2     :     0.018899  d :     0.081500
      dxz     :     0.012806
      dyz     :     0.027261
      dx2y2   :     0.012289
      dxy     :     0.010244

 14 C s       :     2.859084  s :     2.859084
      pz      :     1.077945  p :     2.899973
      px      :     0.952582
      py      :     0.869446
      dz2     :     0.035072  d :     0.155310
      dxz     :     0.019830
      dyz     :     0.039681
      dx2y2   :     0.029833
      dxy     :     0.030894

 15 O s       :     3.470909  s :     3.470909
      pz      :     1.492235  p :     4.631850
      px      :     1.656916
      py      :     1.482699
      dz2     :     0.015732  d :     0.057249
      dxz     :     0.009954
      dyz     :     0.011163
      dx2y2   :     0.010330
      dxy     :     0.010070

 16 C s       :     2.819437  s :     2.819437
      pz      :     0.832882  p :     2.442252
[...]
      px      :     1.053007
      py      :     1.011396
      dz2     :     0.011661  d :     0.099611
      dxz     :     0.018424
      dyz     :     0.019441
      dx2y2   :     0.026912
      dxy     :     0.023172

 29 C s       :     2.863245  s :     2.863245
      pz      :     0.898778  p :     2.704514
      px      :     0.906106
      py      :     0.899630
      dz2     :     0.037696  d :     0.252927
      dxz     :     0.047295
      dyz     :     0.033416
      dx2y2   :     0.055844
      dxy     :     0.078677

 30 O s       :     3.592629  s :     3.592629
      pz      :     1.463004  p :     4.619463
      px      :     1.466241
      py      :     1.690218
      dz2     :     0.007905  d :     0.049900
      dxz     :     0.018474
      dyz     :     0.003386
      dx2y2   :     0.011946
      dxy     :     0.008188

 31 O s       :     3.539569  s :     3.539569
      pz      :     1.681090  p :     4.753382
      px      :     1.675359
      py      :     1.396934
      dz2     :     0.004571  d :     0.041916
      dxz     :     0.004172
      dyz     :     0.011350
      dx2y2   :     0.008857
      dxy     :     0.012968

 32 C s       :     2.919568  s :     2.919568
      pz      :     0.997379  p :     3.098027
      px      :     1.052839
      py      :     1.047809
      dz2     :     0.014507  d :     0.083561
      dxz     :     0.014983
      dyz     :     0.013796
      dx2y2   :     0.016678
      dxy     :     0.023598

 33 C s       :     2.917166  s :     2.917166
      pz      :     1.012714  p :     3.108227
      px      :     1.059765
      py      :     1.035747
      dz2     :     0.010048  d :     0.085528
      dxz     :     0.015842
      dyz     :     0.015628
      dx2y2   :     0.022893
      dxy     :     0.021117

 34 C s       :     2.893323  s :     2.893323
      pz      :     1.022941  p :     3.003303
      px      :     0.946234
      py      :     1.034128
      dz2     :     0.023632  d :     0.096056
      dxz     :     0.013776
      dyz     :     0.028875
      dx2y2   :     0.015297
      dxy     :     0.014476

 35 C s       :     2.972966  s :     2.972966
      pz      :     1.053110  p :     3.319736
      px      :     1.119866
      py      :     1.146760
      dz2     :     0.016756  d :     0.066497
      dxz     :     0.012686
      dyz     :     0.015405
      dx2y2   :     0.007355
      dxy     :     0.014295

 36 C s       :     2.864820  s :     2.864820
      pz      :     1.018732  p :     3.042533
      px      :     0.990762
      py      :     1.033038
      dz2     :     0.020204  d :     0.100808
      dxz     :     0.013425
      dyz     :     0.028886
      dx2y2   :     0.019558
      dxy     :     0.018735

 37 H s       :     0.869091  s :     0.869091

 38 H s       :     0.860429  s :     0.860429

 39 H s       :     0.860669  s :     0.860669

 40 H s       :     0.864978  s :     0.864978

 41 H s       :     0.865192  s :     0.865192

 42 H s       :     0.864411  s :     0.864411

 43 H s       :     0.863837  s :     0.863837

 44 H s       :     0.853331  s :     0.853331

 45 H s       :     0.873371  s :     0.873371

 46 H s       :     0.858114  s :     0.858114

 47 H s       :     0.854083  s :     0.854083

 48 H s       :     0.855733  s :     0.855733

 49 H s       :     0.851303  s :     0.851303

 50 H s       :     0.837519  s :     0.837519

 51 H s       :     0.840557  s :     0.840557

 52 H s       :     0.651134  s :     0.651134

 53 H s       :     0.846890  s :     0.846890

 54 H s       :     0.846432  s :     0.846432

 55 H s       :     0.848477  s :     0.848477

 56 H s       :     0.862736  s :     0.862736

 57 H s       :     0.859030  s :     0.859030



                      *****************************
                      * MAYER POPULATION ANALYSIS *
                      *****************************

  NA   - Mulliken gross atomic population
  ZA   - Total nuclear charge
  QA   - Mulliken gross atomic charge
  VA   - Mayer's total valence
  BVA  - Mayer's bonded valence
  FA   - Mayer's free valence

  ATOM       NA         ZA         QA         VA         BVA        FA
  0 C      6.5260     6.0000    -0.5260     3.8329     3.8329     0.0000
  1 C      5.8970     6.0000     0.1030     3.8791     3.8791    -0.0000
  2 C      6.1758     6.0000    -0.1758     3.9366     3.9366    -0.0000
  3 C      6.1181     6.0000    -0.1181     3.9262     3.9262    -0.0000
  4 C      6.2058     6.0000    -0.2058     3.9060     3.9060     0.0000
  5 C      5.8596     6.0000     0.1404     3.9569     3.9569     0.0000
  6 C      6.0611     6.0000    -0.0611     3.8745     3.8745    -0.0000
  7 N      7.3932     7.0000    -0.3932     2.9645     2.9645    -0.0000
  8 C      5.6951     6.0000     0.3049     3.8748     3.8748     0.0000
  9 N      7.5995     7.0000    -0.5995     2.7915     2.7915    -0.0000
 10 C      6.2344     6.0000    -0.2344     3.8245     3.8245    -0.0000
 11 C      5.8500     6.0000     0.1500     3.9357     3.9357    -0.0000
 12 C      6.1623     6.0000    -0.1623     3.9450     3.9450    -0.0000
 13 C      6.1768     6.0000    -0.1768     3.9115     3.9115    -0.0000
 14 C      5.6481     6.0000     0.3519     3.8084     3.8084    -0.0000
 15 O      8.5456     8.0000    -0.5456     1.9606     1.9606     0.0000
 16 C      4.9135     6.0000     1.0865     3.9945     3.9945    -0.0000
 17 F      9.2917     9.0000    -0.2917     1.0647     1.0647     0.0000
 18 F      9.2783     9.0000    -0.2783     1.0887     1.0887    -0.0000
 19 F      9.2897     9.0000    -0.2897     1.0672     1.0672    -0.0000
 20 C      6.1940     6.0000    -0.1940     3.8966     3.8966     0.0000
 21 C      6.1656     6.0000    -0.1656     3.9289     3.9289    -0.0000
 22 S     14.7716    16.0000     1.2284     5.0570     5.0570     0.0000
 23 O      8.5548     8.0000    -0.5548     1.8758     1.8758    -0.0000
 24 O      8.5546     8.0000    -0.5546     1.8821     1.8821     0.0000
 25 C      6.1190     6.0000    -0.1190     3.8350     3.8350    -0.0000
 26 C      6.1266     6.0000    -0.1266     3.9178     3.9178    -0.0000
 27 C      6.1433     6.0000    -0.1433     3.8966     3.8966    -0.0000
 28 C      5.9164     6.0000     0.0836     3.9272     3.9272    -0.0000
 29 C      5.4734     6.0000     0.5266     3.9539     3.9539     0.0000
 30 O      8.4458     8.0000    -0.4458     2.0664     2.0664    -0.0000
 31 O      8.6239     8.0000    -0.6239     1.8679     1.8679    -0.0000
 32 C      6.1476     6.0000    -0.1476     3.8717     3.8717    -0.0000
 33 C      6.1528     6.0000    -0.1528     3.9267     3.9267    -0.0000
 34 C      5.8974     6.0000     0.1026     3.8629     3.8629    -0.0000
 35 C      6.5391     6.0000    -0.5391     3.8218     3.8218    -0.0000
 36 C      5.9334     6.0000     0.0666     3.9599     3.9599    -0.0000
 37 H      0.8447     1.0000     0.1553     0.9343     0.9343     0.0000
 38 H      0.8315     1.0000     0.1685     0.9304     0.9304     0.0000
 39 H      0.8317     1.0000     0.1683     0.9357     0.9357     0.0000
 40 H      0.8662     1.0000     0.1338     0.9402     0.9402     0.0000
 41 H      0.8658     1.0000     0.1342     0.9367     0.9367    -0.0000
 42 H      0.8649     1.0000     0.1351     0.9378     0.9378    -0.0000
 43 H      0.8495     1.0000     0.1505     0.9351     0.9351     0.0000
 44 H      0.8195     1.0000     0.1805     0.9377     0.9377     0.0000
 45 H      0.8369     1.0000     0.1631     0.9263     0.9263     0.0000
 46 H      0.8519     1.0000     0.1481     0.9379     0.9379    -0.0000
 47 H      0.8495     1.0000     0.1505     0.9359     0.9359     0.0000
 48 H      0.8422     1.0000     0.1578     0.9477     0.9477    -0.0000
 49 H      0.8356     1.0000     0.1644     0.9360     0.9360     0.0000
 50 H      0.8135     1.0000     0.1865     0.9390     0.9390     0.0000
 51 H      0.8218     1.0000     0.1782     0.9392     0.9392    -0.0000
 52 H      0.5670     1.0000     0.4330     0.7964     0.7964     0.0000
 53 H      0.8305     1.0000     0.1695     0.9370     0.9370     0.0000
 54 H      0.8265     1.0000     0.1735     0.9388     0.9388     0.0000
 55 H      0.7984     1.0000     0.2016     0.9297     0.9297     0.0000
 56 H      0.8391     1.0000     0.1609     0.9330     0.9330    -0.0000
 57 H      0.8323     1.0000     0.1677     0.9352     0.9352    -0.0000

  Mayer bond orders larger than 0.100000
B(  0-C ,  1-C ) :   0.9921 B(  0-C , 37-H ) :   0.9429 B(  0-C , 38-H ) :   0.9262 
B(  0-C , 39-H ) :   0.9314 B(  1-C ,  2-C ) :   1.4982 B(  1-C ,  4-C ) :   0.1018 
B(  1-C , 36-C ) :   1.2664 B(  2-C ,  3-C ) :   1.3475 B(  2-C , 40-H ) :   0.9234 
B(  3-C ,  4-C ) :   1.5137 B(  3-C , 41-H ) :   0.9280 B(  4-C ,  5-C ) :   1.2828 
B(  4-C , 42-H ) :   0.9239 B(  5-C ,  6-C ) :   1.2412 B(  5-C , 36-C ) :   1.2780 
B(  6-C ,  7-N ) :   1.4943 B(  6-C , 34-C ) :   0.1016 B(  6-C , 43-H ) :   0.9264 
B(  7-N ,  8-C ) :   1.2882 B(  8-C ,  9-N ) :   0.8950 B(  8-C , 34-C ) :   1.4367 
B(  9-N , 10-C ) :   0.9201 B(  9-N , 22-S ) :   0.8063 B( 10-C , 11-C ) :   0.9698 
B( 10-C , 44-H ) :   0.9132 B( 10-C , 45-H ) :   0.9200 B( 11-C , 12-C ) :   1.4343 
B( 11-C , 21-C ) :   1.4285 B( 12-C , 13-C ) :   1.4305 B( 12-C , 46-H ) :   0.9198 
B( 13-C , 14-C ) :   1.4170 B( 13-C , 47-H ) :   0.9179 B( 14-C , 15-O ) :   0.8264 
B( 14-C , 20-C ) :   1.3850 B( 15-O , 16-C ) :   0.9881 B( 16-C , 17-F ) :   0.9689 
B( 16-C , 18-F ) :   1.0087 B( 16-C , 19-F ) :   0.9698 B( 20-C , 21-C ) :   1.4294 
B( 20-C , 48-H ) :   0.9090 B( 21-C , 49-H ) :   0.9163 B( 22-S , 23-O ) :   1.6205 
B( 22-S , 24-O ) :   1.6280 B( 22-S , 25-C ) :   0.8098 B( 25-C , 26-C ) :   1.3881 
B( 25-C , 33-C ) :   1.3948 B( 26-C , 27-C ) :   1.4219 B( 26-C , 50-H ) :   0.9077 
B( 27-C , 28-C ) :   1.3990 B( 27-C , 51-H ) :   0.9103 B( 28-C , 29-C ) :   1.0088 
B( 28-C , 32-C ) :   1.3868 B( 29-C , 30-O ) :   1.8627 B( 29-C , 31-O ) :   1.0242 
B( 31-O , 52-H ) :   0.7425 B( 32-C , 33-C ) :   1.4168 B( 32-C , 53-H ) :   0.9154 
B( 33-C , 54-H ) :   0.9124 B( 34-C , 35-C ) :   1.0032 B( 34-C , 36-C ) :   1.2508 
B( 35-C , 55-H ) :   0.9186 B( 35-C , 56-H ) :   0.9318 B( 35-C , 57-H ) :   0.9154 


-------
TIMINGS
-------

Total SCF time: 0 days 0 hours 7 min 4 sec 

Total time                  ....     424.453 sec
Sum of individual times     ....     423.995 sec  ( 99.9%)

SCF preparation             ....       0.541 sec  (  0.1%)
Fock matrix formation       ....     420.858 sec  ( 99.2%)
  Startup                   ....       0.121 sec  (  0.0% of F)
  Split-RI-J                ....      59.410 sec  ( 14.1% of F)
  Chain of spheres X        ....     326.210 sec  ( 77.5% of F)
  XC integration            ....      33.729 sec  (  8.0% of F)
    XC Preparation          ....       0.000 sec  (  0.0% of XC)
    Basis function eval.    ....      13.300 sec  ( 39.4% of XC)
    Density eval.           ....       8.148 sec  ( 24.2% of XC)
    XC-Functional eval.     ....       1.350 sec  (  4.0% of XC)
    XC-Potential eval.      ....       9.058 sec  ( 26.9% of XC)
Diagonalization             ....       0.000 sec  (  0.0%)
Density matrix formation    ....       0.520 sec  (  0.1%)
Total Energy calculation    ....       0.093 sec  (  0.0%)
Population analysis         ....       0.075 sec  (  0.0%)
Orbital Transformation      ....       0.190 sec  (  0.0%)
Orbital Orthonormalization  ....       0.000 sec  (  0.0%)
DIIS solution               ....       0.914 sec  (  0.2%)
SOSCF solution              ....       0.805 sec  (  0.2%)
Finished LeanSCF after 424.5 sec

Maximum memory used throughout the entire LEANSCF-calculation: 100.7 MB

-------------------------   --------------------
FINAL SINGLE POINT ENERGY     -2185.599636827939
-------------------------   --------------------


------------------------------------------------------------------------------
                              ORCA PROPERTY CALCULATIONS
------------------------------------------------------------------------------

GBWName                                 ... /home/nmrbox/aojoawo/Documents/ERDOS/inputs/CHEMBL3682614.gbw
Number of atoms                         ...     58
Number of basis functions               ...    564
Max core memory                         ...   1024 MB

Electric properties:
Dipole moment                           ... YES
Quadrupole moment                       ...  NO
Static polarizability (Dipole/Dipole)   ...  NO
Static polarizability (Dipole/Quad.)    ...  NO
Static polarizability (Quad./Quad.)     ...  NO
Static polarizability (Velocity)        ...  NO

Atomic electric properties:
Dipole moment                           ...  NO
Quadrupole moment                       ...  NO
Static polarizability                   ...  NO

Choice of electric origin               ... Center of mass
Position of electric origin             ...     0.560063     0.246245     0.399686

General magnetic properties:
Magnetizability                         ...  NO

EPR properties:
g-Tensor (aka g-matrix)                 ...  NO
Zero-Field splitting spin-orbit         ...  NO
Zero-field splitting spin-spin          ...  NO
Hyperfine couplings                     ...  NO (   0 nuclei)
Quadrupole couplings                    ...  NO (   0 nuclei)
Contact density                         ...  NO (   0 nuclei)

NMR properties:
Chemical shifts                         ...  NO (   0 nuclei)
Spin-rotation constants                 ...  NO (   0 nuclei)
Spin-spin couplings                     ...  NO (   0 nuclei,    0 pairs)

Choice of magnetic origin               ... GIAO
Position of magnetic origin             ...     0.000000     0.000000     0.000000

Properties with geometric perturbations:
SCF Hessian                             ...  NO
IR spectrum                             ...  NO
VCD spectrum                            ...  NO
X-ray spectroscopy properties:
SCF XES/XAS/RIXS spectra                ...  NO


-------------
DIPOLE MOMENT
-------------

Method             : SCF
Type of density    : Electron Density
Multiplicity       :   1
Irrep              :   0
Energy             : -2185.5996368279388662 Eh
Relativity type    : 
Basis              : AO
                                X                 Y                 Z
Electronic contribution:     25.670144097      -6.511879996      11.730734065
Nuclear contribution   :    -25.029556522       5.914001184     -13.347813542
                        -----------------------------------------
Total Dipole Moment    :      0.640587575      -0.597878812      -1.617079477
                        -----------------------------------------
Magnitude (a.u.)       :      1.839227433
Magnitude (Debye)      :      4.674944610



--------------------
Rotational spectrum 
--------------------
 
Rotational constants in cm-1:             0.004809             0.001708             0.001401 
Rotational constants in MHz :           144.165128            51.203616            42.002996 

Dipole components along the rotational axes: 
x,y,z [a.u.] :     0.397777    -0.369124     1.757350 
x,y,z [Debye]:     1.011068    -0.938238     4.466829 

 

Dipole moment calculation done in   0.0 sec 

Maximum memory used throughout the entire PROP-calculation: 49.6 MB

--------------------------------
SUGGESTED CITATIONS FOR THIS RUN
--------------------------------

Below you find a list of papers that are relevant to this ORCA run
We neither can nor want to force you to cite these papers, but we appreciate if you do
You receive ORCA, which is the product of decades of hard work by many enthusiastic individuals, for free
The only thing we kindly ask in return is that you cite our papers,
We deeply appreciate it, if you show your appreciation for ORCA by not just citing the generic ORCA reference.

Please note that relegating all ORCA citations to the supporting information does *not* help us.
SI sections are not indexed - citations you put there will not count into any citation statistics
But we need these citations in order to attract the funding resources that allow us to do what we are doing

Therefore, if you are a happy ORCA user, please consider citing a few of the papers listed below in the main body of your paper

In addition to the list printed below, the program has created the file /home/nmrbox/aojoawo/Documents/ERDOS/inputs/CHEMBL3682614.bibtex that contains the list in bibtex format
You can import this file easily into all common literature databanks and citation aid programs


List of essential papers. We consider these as the minimum necessary citations

  1. Neese,F.
     Software update: the ORCA program system, version 5.0
     WIRES Comput. Molec. Sci., 2022 12(1)e1606
     doi.org/10.1002/wcms.1606

List of papers to cite with high priority. The work reported in these papers was absolutely
necessary for this run to complete.
Our perspective: the developers of density functionals and basis sets usually get cited in chemistry papers
Good! But without the algorithms to do something with them, the functionals or basis sets would not do anything.
Hence, in our opinion, the algorithm design and method developments papers are equally worthy of getting cited

  1. Neese,F.
     An improvement of the resolution of the identity approximation for the formation of the Coulomb matrix
     J. Comp. Chem., 2003 24(14)1740-1747
     doi.org/10.1002/jcc.10318
  2. Neese,F.; Wennmohs,F.; Hansen,A.; Becker,U.
     Efficient, approximate and parallel Hartree-Fock and hybrid DFT calculations. A 'chain-of-spheres' algorithm for the Hartree-Fock exchange
     Chem. Phys., 2009 356(1-3)98-109
     doi.org/10.1016/j.chemphys.2008.10.036
  3. Helmich-Paris,B.; de Souza,B.; Neese,F.; Izsák,R.
     An improved chain of spheres for exchange algorithm
     J. Chem. Phys., 2021 155 104109
     doi.org/doi: 10.1063/5.0058766.
  4. Neese,F.
     The SHARK Integral Generation and Digestion System
     J. Comp. Chem., 2022  1-16
     doi.org/10.1002/jcc.26942

List of suggested additional citations. These are papers that are important in the 'surrounding' of 
of this run, or papers that preceded the highly important papers. If you like your results we are grateful for a citation.

  1. Izsak,R.; Neese,F.
     An overlap fitted chain of spheres exchange method
     J. Chem. Phys., 2011 135 144105
     doi.org/10.1063/1.3646921
  2. Izsak,R.; Hansen,A.; Neese,F.
     The resolution of identity and chain of spheres approximations for the LPNO-CCSD singles Fock term
     Molec. Phys., 2012 110 2413-2417
     doi.org/10.1080/00268976.2012.687466
  3. Neese,F.
     The ORCA program system
     WIRES Comput. Molec. Sci., 2012 2(1)73-78
     doi.org/10.1002/wcms.81
  4. Izsak,R.; Neese,F.; Klopper,W.
     Robust fitting techniques in the chain of spheres approximation to the Fock exchange: The role of the complementary space
     J. Chem. Phys., 2013 139 
     doi.org/10.1063/1.4819264
  5. Neese,F.
     Software update: the ORCA program system, version 4.0
     WIRES Comput. Molec. Sci., 2018 8(1)1-6
     doi.org/10.1002/wcms.1327
  6. Neese,F.; Wennmohs,F.; Becker,U.; Riplinger,C.
     The ORCA quantum chemistry program package
     J. Chem. Phys., 2020 152 Art. No. L224108
     doi.org/10.1063/5.0004608

List of optional additional citations

  1. Neese,F.
     Approximate second-order SCF convergence for spin unrestricted wavefunctions
     Chem. Phys. Lett., 2000 325(1-3)93-98
     doi.org/10.1016/s0009-2614(00)00662-x

Timings for individual modules:

Sum of individual times          ...      441.766 sec (=   7.363 min)
Startup calculation              ...       11.375 sec (=   0.190 min)   2.6 %
SCF iterations                   ...      430.197 sec (=   7.170 min)  97.4 %
Property calculations            ...        0.194 sec (=   0.003 min)   0.0 %
                             ****ORCA TERMINATED NORMALLY****
TOTAL RUN TIME: 0 days 0 hours 7 minutes 22 seconds 627 msec
