
                                 *****************
                                 * O   R   C   A *
                                 *****************

                                            #,                                       
                                            ###                                      
                                            ####                                     
                                            #####                                    
                                            ######                                   
                                           ########,                                 
                                     ,,################,,,,,                         
                               ,,#################################,,                 
                          ,,##########################################,,             
                       ,#########################################, ''#####,          
                    ,#############################################,,   '####,        
                  ,##################################################,,,,####,       
                ,###########''''           ''''###############################       
              ,#####''   ,,,,##########,,,,          '''####'''          '####       
            ,##' ,,,,###########################,,,                        '##       
           ' ,,###''''                  '''############,,,                           
         ,,##''                                '''############,,,,        ,,,,,,###''
      ,#''                                            '''#######################'''  
     '                                                          ''''####''''         
             ,#######,   #######,   ,#######,      ##                                
            ,#'     '#,  ##    ##  ,#'     '#,    #''#        ,####,   ,####,        
            ##       ##  ##   ,#'  ##            #'  '#       #'       #'  '#        
            ##       ##  #######   ##           ,######,      #####,   #    #        
            '#,     ,#'  ##    ##  '#,     ,#' ,#      #,     #,   #   #,  ,#        
             '#######'   ##     ##  '#######'  #'      '#     '####' # '####'        



                #########################################################
                #                        -***-                          #
                #          Department of theory and spectroscopy        #
                #                                                       #
                #                      Frank Neese                      #
                #                                                       #
                #     Directorship, Architecture, Infrastructure        #
                #                    SHARK, DRIVERS                     #
                #        Core code/Algorithms in most modules           #
                #                                                       #
                #        Max Planck Institute fuer Kohlenforschung      #
                #                Kaiser Wilhelm Platz 1                 #
                #                 D-45470 Muelheim/Ruhr                 #
                #                      Germany                          #
                #                                                       #
                #                  All rights reserved                  #
                #                        -***-                          #
                #########################################################


                         Program Version 6.0.0  -   RELEASE  -


 With contributions from (in alphabetic order):
   Daniel Aravena         : Magnetic Suceptibility
   Michael Atanasov       : Ab Initio Ligand Field Theory (pilot matlab implementation)
   Alexander A. Auer      : GIAO ZORA, VPT2 properties, NMR spectrum
   Ute Becker             : All parallelization in ORCA, NUMFREQ, NUMCALC
   Giovanni Bistoni       : ED, misc. LED, open-shell LED, HFLD
   Martin Brehm           : Molecular dynamics
   Dmytro Bykov           : pre 5.0 version of the SCF Hessian
   Marcos Casanova-Páez   : Triplet and SCS-CIS(D). UHF-(DLPNO)-IP/EA/STEOM-CCSD. UHF-CVS-IP/STEOM-CCSD
   Vijay G. Chilkuri      : MRCI spin determinant printing, contributions to CSF-ICE
   Pauline Colinet        : FMM embedding
   Dipayan Datta          : RHF DLPNO-CCSD density
   Achintya Kumar Dutta   : EOM-CC, STEOM-CC
   Nicolas Foglia         : Exact transition moments, OPA infrastructure, MCD improvements
   Dmitry Ganyushin       : Spin-Orbit,Spin-Spin,Magnetic field MRCI
   Miquel Garcia          : C-PCM and meta-GGA Hessian, CCSD/C-PCM, Gaussian charge scheme
   Tiago L. C. Gouveia    : GS-ROHF, GS-ROCIS
   Yang Guo               : DLPNO-NEVPT2, F12-NEVPT2, CIM, IAO-localization
   Andreas Hansen         : Spin unrestricted coupled pair/coupled cluster methods
   Ingolf Harden          : AUTO-CI MPn and infrastructure 
   Benjamin Helmich-Paris : MC-RPA, TRAH-(SCF,CASSCF), AVAS, COSX integrals, SCF dyn. polar.
   Lee Huntington         : MR-EOM, pCC
   Robert Izsak           : Overlap fitted RIJCOSX, COSX-SCS-MP3, EOM
   Riya Kayal             : Wick's Theorem for AUTO-CI, AUTO-CI UHF-CCSDT
   Emily Kempfer          : AUTO-CI, RHF CISDT and CCSDT
   Christian Kollmar      : KDIIS, OOCD, Brueckner-CCSD(T), CCSD density, CASPT2, CASPT2-K, improved NEVPT2
   Axel Koslowski         : Symmetry handling
   Simone Kossmann        : Meta GGA functionals, TD-DFT gradient, OOMP2, (MP2 Hessian; deprecated post 5.0)
   Lucas Lang             : DCDCAS
   Marvin Lechner         : AUTO-CI (C++ implementation), FIC-MRCC
   Spencer Leger          : CASSCF response
   Dagmar Lenk            : GEPOL surface, SMD, ORCA-2-JSON
   Dimitrios Liakos       : Extrapolation schemes; Compound Job, initial MDCI parallelization
   Dimitrios Manganas     : Further ROCIS development; embedding schemes. LFT, Crystal Embedding
   Dimitrios Pantazis     : SARC Basis sets
   Anastasios Papadopoulos: AUTO-CI, single reference methods and gradients
   Taras Petrenko         : pre 6.0 DFT Hessian and TD-DFT gradient, (ASA, deprecated), ECA, 1-Electron XAS/XES, NRVS
   Peter Pinski           : DLPNO-MP2, DLPNO-MP2 Gradient
   Christoph Reimann      : Effective Core Potentials
   Marius Retegan         : Local ZFS, SOC
   Christoph Riplinger    : Optimizer, TS searches, QM/MM, DLPNO-CCSD(T), (RO)-DLPNO pert. Triples
   Michael Roemelt        : Original ROCIS implementation
   Masaaki Saitow         : Open-shell DLPNO-CCSD energy and density
   Barbara Sandhoefer     : DKH picture change effects
   Kantharuban Sivalingam : CASSCF convergence/infrastructure, NEVPT2 and variants, FIC-MRCI
   Bernardo de Souza      : ESD, SOC TD-DFT
   Georgi Stoychev        : AutoAux, RI-MP2 NMR, DLPNO-MP2 response, X2C
   Van Anh Tran           : RI-MP2 g-tensors
   Willem Van den Heuvel  : Paramagnetic NMR
   Zikuan Wang            : NOTCH, Electric field optimization 
   Frank Wennmohs         : Technical directorship and infrastructure
   Hang Xu                : AUTO-CI-Response properties 


 We gratefully acknowledge several colleagues who have allowed us to
 interface, adapt or use parts of their codes:
   Stefan Grimme, W. Hujo, H. Kruse, P. Pracht,  : VdW corrections, initial TS optimization,
                  C. Bannwarth, S. Ehlert,         DFT functionals, gCP, sTDA/sTD-DF
                  L. Wittmann, M. Mueller
   Ed Valeev, F. Pavosevic, A. Kumar             : LibInt (2-el integral package), F12 methods
   Garnet Chan, S. Sharma, J. Yang, R. Olivares  : DMRG
   Ulf Ekstrom                                   : XCFun DFT Library
   Mihaly Kallay                                 : mrcc  (arbitrary order and MRCC methods)
   Frank Weinhold                                : gennbo (NPA and NBO analysis)
   Simon Mueller                                 : openCOSMO-RS
   Christopher J. Cramer and Donald G. Truhlar   : smd solvation model
   Lars Goerigk                                  : TD-DFT with DH, B97 family of functionals
   V. Asgeirsson, H. Jonsson                     : NEB implementation
   FAccTs GmbH                                   : IRC, NEB, NEB-TS, DLPNO-Multilevel, CI-OPT
                                                   MM, QMMM, 2- and 3-layer-ONIOM, Crystal-QMMM,
                                                   LR-CPCM, SF, NACMEs, symmetry and pop. for TD-DFT,
                                                   nearIR, NL-DFT gradient (VV10), updates on ESD,
                                                   ML-optimized integration grids, MBIS, APM,
                                                   GOAT, DOCKER, SOLVATOR, interface openCOSMO-RS
   S Lehtola, MJT Oliveira, MAL Marques          : LibXC Library
   Liviu Ungur et al                             : ANISO software


 Your calculation uses the libint2 library for the computation of 2-el integrals
 For citations please refer to: http://libint.valeyev.net

 Your ORCA version has been built with support for libXC version: 6.2.2
 For citations please refer to: https://libxc.gitlab.io

 This ORCA versions uses:
   CBLAS   interface :  Fast vector & matrix operations
   LAPACKE interface :  Fast linear algebra routines
   SCALAPACK package :  Parallel linear algebra routines
   Shared memory     :  Shared parallel matrices
   BLAS/LAPACK       :  OpenBLAS 0.3.27  USE64BITINT DYNAMIC_ARCH NO_AFFINITY SkylakeX SINGLE_THREADED
        Core in use  :  SkylakeX
   Copyright (c) 2011-2014, The OpenBLAS Project


Warning: RI is on but no J-basis has been assigned. Assigning Def2/J (nothing to worry about!)
================================================================================

----- Orbital basis set information -----
Your calculation utilizes the basis: 6-31G*
   H-He, Li-Ne : W. J. Hehre, R. Ditchfield and J.A. Pople, J. Chem. Phys. 56, 2257 (1972).
                 Note: He and Ne are unpublished basis sets taken from the Gaussian program.
                 Note: Li and B from J. D. Dill and J. A. Pople, J. Chem. Phys. 62, 2921 (1975).
   Na - Ar     : M. M. Francl, W. J. Pietro, W. J. Hehre, J. S. Binkley, M. S. Gordon, 
                 D. J. DeFrees and J. A. Pople, J. Chem. Phys. 77, 3654 (1982).
   K - Zn      : V. A. Rassolov, J. A. Pople, M. A. Ratner, and T. L. Windus, J. Chem. Phys. 109, 1223 (1998).

----- AuxJ basis set information -----
Your calculation utilizes the auxiliary basis: def2/J
   F. Weigend, Phys. Chem. Chem. Phys. 8, 1057 (2006).

================================================================================
                                        WARNINGS
                       Please study these warnings very carefully!
================================================================================


================================================================================
                                       INPUT FILE
================================================================================
NAME = /home/nmrbox/aojoawo/Documents/ERDOS/inputs/CHEMBL3687402.inp
|  1> ! B3LYP 6-31G* SP
|  2> 
|  3> * xyz 0 1
|  4> C -2.1552 2.0881 1.9952
|  5> C -3.2338 1.2001 1.3566
|  6> C -3.4916 -0.0257 2.2409
|  7> C -2.8516 0.7570 -0.0495
|  8> N -1.5309 0.6243 -0.3360
|  9> C -1.0598 0.1922 -1.5299
| 10> N 0.3527 -0.0027 -1.6797
| 11> C 1.2526 1.1520 -1.7704
| 12> C 2.0532 1.3164 -0.5066
| 13> C 3.3666 0.8281 -0.4290
| 14> C 4.0823 0.9117 0.7680
| 15> C 3.4953 1.4975 1.9068
| 16> O 4.1637 1.5970 3.1371
| 17> C 5.4997 1.1626 3.3843
| 18> F 5.8251 1.4381 4.6984
| 19> F 6.3792 1.8359 2.5547
| 20> F 5.6055 -0.2007 3.1766
| 21> C 2.1925 2.0022 1.8188
| 22> C 1.4768 1.9158 0.6220
| 23> S 0.9966 -1.6128 -1.5318
| 24> O -0.0740 -2.6272 -1.8233
| 25> O 2.1067 -1.7873 -2.5304
| 26> C 1.5896 -1.8679 0.1085
| 27> C 2.8889 -2.3393 0.3360
| 28> C 3.3746 -2.4648 1.6412
| 29> C 2.5650 -2.1245 2.7381
| 30> C 3.0873 -2.2356 4.1172
| 31> O 2.3914 -1.8492 5.0949
| 32> O 4.3548 -2.7643 4.3498
| 33> C 1.2540 -1.6752 2.5033
| 34> C 0.7703 -1.5556 1.1991
| 35> C -1.9557 -0.1241 -2.5704
| 36> C -1.4164 -0.5612 -3.9222
| 37> C -1.8704 0.2702 -5.1201
| 38> C -0.4612 0.4210 -4.5962
| 39> C -3.3467 -0.1042 -2.2902
| 40> C -4.2944 -0.5633 -3.2334
| 41> C -5.6599 -0.5158 -2.9570
| 42> C -6.1087 -0.0352 -1.7325
| 43> C -5.1966 0.3875 -0.7672
| 44> C -3.8059 0.3600 -1.0227
| 45> H -2.5125 2.4769 2.9734
| 46> H -1.2197 1.5140 2.1690
| 47> H -1.9333 2.9556 1.3366
| 48> H -4.1488 1.8256 1.3227
| 49> H -4.2893 -0.6612 1.8039
| 50> H -2.5687 -0.6356 2.3406
| 51> H -3.8209 0.2945 3.2534
| 52> H 1.9280 1.0207 -2.6427
| 53> H 0.6694 2.0802 -1.9575
| 54> H 3.8266 0.3539 -1.2873
| 55> H 5.0836 0.5094 0.7978
| 56> H 1.7321 2.4636 2.6835
| 57> H 0.4729 2.3151 0.5736
| 58> H 3.5374 -2.5884 -0.4939
| 59> H 4.3889 -2.8112 1.7900
| 60> H 4.7209 -2.8434 5.2920
| 61> H 0.6019 -1.4125 3.3259
| 62> H -0.2393 -1.2097 1.0417
| 63> H -1.2289 -1.6359 -4.1273
| 64> H -1.9397 -0.2945 -6.0725
| 65> H -2.5280 1.1356 -4.8929
| 66> H 0.3063 -0.0443 -5.2493
| 67> H -0.3060 1.4041 -4.1072
| 68> H -3.9958 -0.9789 -4.1850
| 69> H -6.3730 -0.8654 -3.6932
| 70> H -7.1712 -0.0051 -1.5214
| 71> H -5.6044 0.7160 0.1771
| 72> *
| 73> 
| 74>                          ****END OF INPUT****
================================================================================

                       ****************************
                       * Single Point Calculation *
                       ****************************

---------------------------------
CARTESIAN COORDINATES (ANGSTROEM)
---------------------------------
  C     -2.155200    2.088100    1.995200
  C     -3.233800    1.200100    1.356600
  C     -3.491600   -0.025700    2.240900
  C     -2.851600    0.757000   -0.049500
  N     -1.530900    0.624300   -0.336000
  C     -1.059800    0.192200   -1.529900
  N      0.352700   -0.002700   -1.679700
  C      1.252600    1.152000   -1.770400
  C      2.053200    1.316400   -0.506600
  C      3.366600    0.828100   -0.429000
  C      4.082300    0.911700    0.768000
  C      3.495300    1.497500    1.906800
  O      4.163700    1.597000    3.137100
  C      5.499700    1.162600    3.384300
  F      5.825100    1.438100    4.698400
  F      6.379200    1.835900    2.554700
  F      5.605500   -0.200700    3.176600
  C      2.192500    2.002200    1.818800
  C      1.476800    1.915800    0.622000
  S      0.996600   -1.612800   -1.531800
  O     -0.074000   -2.627200   -1.823300
  O      2.106700   -1.787300   -2.530400
  C      1.589600   -1.867900    0.108500
  C      2.888900   -2.339300    0.336000
  C      3.374600   -2.464800    1.641200
  C      2.565000   -2.124500    2.738100
  C      3.087300   -2.235600    4.117200
  O      2.391400   -1.849200    5.094900
  O      4.354800   -2.764300    4.349800
  C      1.254000   -1.675200    2.503300
  C      0.770300   -1.555600    1.199100
  C     -1.955700   -0.124100   -2.570400
  C     -1.416400   -0.561200   -3.922200
  C     -1.870400    0.270200   -5.120100
  C     -0.461200    0.421000   -4.596200
  C     -3.346700   -0.104200   -2.290200
  C     -4.294400   -0.563300   -3.233400
  C     -5.659900   -0.515800   -2.957000
  C     -6.108700   -0.035200   -1.732500
  C     -5.196600    0.387500   -0.767200
  C     -3.805900    0.360000   -1.022700
  H     -2.512500    2.476900    2.973400
  H     -1.219700    1.514000    2.169000
  H     -1.933300    2.955600    1.336600
  H     -4.148800    1.825600    1.322700
  H     -4.289300   -0.661200    1.803900
  H     -2.568700   -0.635600    2.340600
  H     -3.820900    0.294500    3.253400
  H      1.928000    1.020700   -2.642700
  H      0.669400    2.080200   -1.957500
  H      3.826600    0.353900   -1.287300
  H      5.083600    0.509400    0.797800
  H      1.732100    2.463600    2.683500
  H      0.472900    2.315100    0.573600
  H      3.537400   -2.588400   -0.493900
  H      4.388900   -2.811200    1.790000
  H      4.720900   -2.843400    5.292000
  H      0.601900   -1.412500    3.325900
  H     -0.239300   -1.209700    1.041700
  H     -1.228900   -1.635900   -4.127300
  H     -1.939700   -0.294500   -6.072500
  H     -2.528000    1.135600   -4.892900
  H      0.306300   -0.044300   -5.249300
  H     -0.306000    1.404100   -4.107200
  H     -3.995800   -0.978900   -4.185000
  H     -6.373000   -0.865400   -3.693200
  H     -7.171200   -0.005100   -1.521400
  H     -5.604400    0.716000    0.177100

----------------------------
CARTESIAN COORDINATES (A.U.)
----------------------------
  NO LB      ZA    FRAG     MASS         X           Y           Z
   0 C     6.0000    0    12.011   -4.072738    3.945937    3.770382
   1 C     6.0000    0    12.011   -6.110996    2.267860    2.563602
   2 C     6.0000    0    12.011   -6.598168   -0.048566    4.234687
   3 C     6.0000    0    12.011   -5.388743    1.430523   -0.093541
   4 N     7.0000    0    14.007   -2.892982    1.179756   -0.634948
   5 C     6.0000    0    12.011   -2.002732    0.363205   -2.891092
   6 N     7.0000    0    14.007    0.666506   -0.005102   -3.174173
   7 C     6.0000    0    12.011    2.367071    2.176965   -3.345571
   8 C     6.0000    0    12.011    3.879986    2.487635   -0.957335
   9 C     6.0000    0    12.011    6.361952    1.564882   -0.810693
  10 C     6.0000    0    12.011    7.714429    1.722863    1.451310
  11 C     6.0000    0    12.011    6.605160    2.829865    3.603330
  12 O     8.0000    0    15.999    7.868253    3.017893    5.928260
  13 C     6.0000    0    12.011   10.392927    2.196996    6.395400
  14 F     9.0000    0    18.998   11.007844    2.717615    8.878689
  15 F     9.0000    0    18.998   12.054941    3.469348    4.827683
  16 F     9.0000    0    18.998   10.592860   -0.379268    6.002904
  17 C     6.0000    0    12.011    4.143225    3.783610    3.437034
  18 C     6.0000    0    12.011    2.790748    3.620337    1.175410
  19 S    16.0000    0    32.060    1.883301   -3.047750   -2.894682
  20 O     8.0000    0    15.999   -0.139840   -4.964688   -3.445538
  21 O     8.0000    0    15.999    3.981086   -3.377508   -4.781763
  22 C     6.0000    0    12.011    3.003909   -3.529819    0.205035
  23 C     6.0000    0    12.011    5.459230   -4.420636    0.634948
  24 C     6.0000    0    12.011    6.377070   -4.657797    3.101419
  25 C     6.0000    0    12.011    4.847148   -4.014723    5.174259
  26 C     6.0000    0    12.011    5.834151   -4.224672    7.780380
  27 O     8.0000    0    15.999    4.519091   -3.494482    9.627966
  28 O     8.0000    0    15.999    8.229379   -5.223770    8.219931
  29 C     6.0000    0    12.011    2.369717   -3.165669    4.730551
  30 C     6.0000    0    12.011    1.455656   -2.939658    2.265971
  31 C     6.0000    0    12.011   -3.695737   -0.234515   -4.857352
  32 C     6.0000    0    12.011   -2.676608   -1.060514   -7.411884
  33 C     6.0000    0    12.011   -3.534544    0.510604   -9.675587
  34 C     6.0000    0    12.011   -0.871542    0.795575   -8.685559
  35 C     6.0000    0    12.011   -6.324346   -0.196909   -4.327851
  36 C     6.0000    0    12.011   -8.115240   -1.064483   -6.110240
  37 C     6.0000    0    12.011  -10.695661   -0.974721   -5.587920
  38 C     6.0000    0    12.011  -11.543770   -0.066518   -3.273951
  39 C     6.0000    0    12.011   -9.820151    0.732269   -1.449798
  40 C     6.0000    0    12.011   -7.192109    0.680301   -1.932623
  41 H     1.0000    0     1.008   -4.747937    4.680663    5.618912
  42 H     1.0000    0     1.008   -2.304899    2.861045    4.098816
  43 H     1.0000    0     1.008   -3.653408    5.585275    2.525808
  44 H     1.0000    0     1.008   -7.840096    3.449884    2.499541
  45 H     1.0000    0     1.008   -8.105602   -1.249487    3.408877
  46 H     1.0000    0     1.008   -4.854140   -1.201110    4.423093
  47 H     1.0000    0     1.008   -7.220455    0.556524    6.148035
  48 H     1.0000    0     1.008    3.643392    1.928843   -4.993979
  49 H     1.0000    0     1.008    1.264983    3.931008   -3.699139
  50 H     1.0000    0     1.008    7.231226    0.668774   -2.432644
  51 H     1.0000    0     1.008    9.606612    0.962626    1.507624
  52 H     1.0000    0     1.008    3.273195    4.655529    5.071080
  53 H     1.0000    0     1.008    0.893651    4.374905    1.083947
  54 H     1.0000    0     1.008    6.684717   -4.891367   -0.933336
  55 H     1.0000    0     1.008    8.293819   -5.312398    3.382610
  56 H     1.0000    0     1.008    8.921208   -5.373247   10.000431
  57 H     1.0000    0     1.008    1.137426   -2.669238    6.285040
  58 H     1.0000    0     1.008   -0.452211   -2.286002    1.968528
  59 H     1.0000    0     1.008   -2.322284   -3.091403   -7.799467
  60 H     1.0000    0     1.008   -3.665502   -0.556524  -11.475362
  61 H     1.0000    0     1.008   -4.777228    2.145973   -9.246241
  62 H     1.0000    0     1.008    0.578823   -0.083715   -9.919739
  63 H     1.0000    0     1.008   -0.578256    2.653364   -7.761483
  64 H     1.0000    0     1.008   -7.550968   -1.849853   -7.908504
  65 H     1.0000    0     1.008  -12.043225   -1.635369   -6.979137
  66 H     1.0000    0     1.008  -13.551604   -0.009638   -2.875029
  67 H     1.0000    0     1.008  -10.590781    1.353044    0.334670

--------------------------------
INTERNAL COORDINATES (ANGSTROEM)
--------------------------------
 C      0   0   0     0.000000000000     0.00000000     0.00000000
 C      1   0   0     1.536141894488     0.00000000     0.00000000
 C      2   1   0     1.533307852325   109.90354038     0.00000000
 C      2   1   3     1.523000873276   112.07287208   237.35825059
 N      4   2   1     1.357917534315   117.85889230    29.32601305
 C      5   4   2     1.354268374437   123.74582550   177.52556968
 N      6   5   4     1.433730204746   118.56762521   184.64620143
 C      7   6   5     1.466757849817   120.25759000   287.19010780
 C      8   7   6     1.505050882861   111.12661851   107.31986468
 C      9   8   7     1.403380992461   120.41504166    98.17477543
 C     10   9   8     1.397148685717   120.39556701   183.70997372
 C     11  10   9     1.408756927223   120.26520035   359.48505275
 O     12  11  10     1.403672647023   122.65568326   179.42595177
 C     13  12  11     1.426431631730   125.19062074     1.65005558
 F     14  13  12     1.381536905045   108.94822561   179.11603180
 F     14  13  12     1.383867515335   110.07131202    59.80206245
 F     14  13  12     1.383083446506   110.23073305   298.36901688
 C     12  11  10     1.399912115099   119.13535055   359.51240480
 C     18  12  11     1.397147697990   120.54897426     0.61043576
 S      7   6   5     1.740374566006   118.77581096    98.87542209
 O     20   7   6     1.503384172459   110.13834733    23.38395364
 O     20   7   6     1.503321063512   108.91352399   142.36477592
 C     20   7   6     1.762756109052   109.72003493   263.63719673
 C     23  20   7     1.400769324336   120.78820985   232.20412033
 C     24  23  20     1.398285299930   120.26470243   176.31638761
 C     25  24  23     1.405149764260   120.45032953     0.21798120
 C     26  25  24     1.478870281668   120.41655712   181.04714565
 O     27  26  25     1.260745438223   120.34511714   175.42373401
 O     27  26  25     1.392904411652   120.37229980   355.62423975
 C     26  25  24     1.405603973387   118.97315413     0.92633731
 C     30  26  25     1.396140211440   120.43528685   359.30773258
 C      6   5   4     1.409014815394   120.09628035     1.28076417
 C     32   6   5     1.519626315908   119.72401777   177.84925611
 C     33  32   6     1.527189041998   115.82766114   236.62323561
 C     34  33  32     1.510978653059    60.33755865   105.53236691
 C     32   6   5     1.419080353609   118.31342788   353.89664032
 C     36  32   6     1.413695278340   121.38688306   187.67047860
 C     37  36  32     1.394002675751   120.88453165   181.20920710
 C     38  37  36     1.389891380648   120.18321396   358.84258126
 C     39  38  37     1.393702188418   120.24832599   359.24196450
 C     40  39  38     1.414242903465   120.83200177     1.21812820
 H      1   2   3     1.111622224499   110.01829370   296.81014660
 H      1   2   3     1.111286416726   110.94430539    56.60357471
 H      1   2   3     1.111552886731   110.18218401   177.57653805
 H      2   1   3     1.108884331209   105.42701515   117.63438795
 H      3   2   1     1.109574035385   110.58593789   178.44733549
 H      3   2   1     1.110703610330   110.55157311   298.70191375
 H      3   2   1     1.111810586386   110.16776335    59.00801630
 H      8   7   6     1.110996012594   109.17726558   229.34693929
 H      8   7   6     1.112062898401   110.22678695   346.09874557
 H     10   9   8     1.083117966798   120.39679715     1.78320018
 H     11  10   9     1.079506841108   118.45690388   178.85535533
 H     18  12  11     1.082850040403   119.94051620   180.57721448
 H     19  18  12     1.081479662315   119.40730060   180.22939899
 H     24  23  20     1.082283266987   120.57795592   357.78010693
 H     25  24  23     1.082099297662   118.86046736   181.29164460
 H     29  27  26     1.013916594203   120.88766216   179.95121382
 H     30  26  25     1.082088933499   120.84283085   179.51674923
 H     31  30  26     1.078755639614   119.21009697   179.94295865
 H     33  32   6     1.110046102646   120.18437760    89.77760205
 H     34  33  32     1.109393681251   114.50947520   210.29121029
 H     34  33  32     1.110393966122   116.09399448     1.74899517
 H     35  34  33     1.109999977477   113.51706996   106.41981026
 H     35  34  33     1.108915528794   111.83321999   249.74989134
 H     37  36  32     1.080475765577   121.82039824     2.28855830
 H     38  37  36     1.082922993569   119.94950764   179.58961461
 H     39  38  37     1.083686056937   119.85537614   180.29482776
 H     40  39  38     1.079775708191   116.79642413   182.20262291

---------------------------
INTERNAL COORDINATES (A.U.)
---------------------------
 C      0   0   0     0.000000000000     0.00000000     0.00000000
 C      1   0   0     2.902887483425     0.00000000     0.00000000
 C      2   1   0     2.897531919884   109.90354038     0.00000000
 C      2   1   3     2.878054552215   112.07287208   237.35825059
 N      4   2   1     2.566092252305   117.85889230    29.32601305
 C      5   4   2     2.559196339516   123.74582550   177.52556968
 N      6   5   4     2.709357436900   118.56762521   184.64620143
 C      7   6   5     2.771770640933   120.25759000   287.19010780
 C      8   7   6     2.844133986223   111.12661851   107.31986468
 C      9   8   7     2.652005737301   120.41504166    98.17477543
 C     10   9   8     2.640228384373   120.39556701   183.70997372
 C     11  10   9     2.662164781717   120.26520035   359.48505275
 O     12  11  10     2.652556884549   122.65568326   179.42595177
 C     13  12  11     2.695565132732   125.19062074     1.65005558
 F     14  13  12     2.610726394439   108.94822561   179.11603180
 F     14  13  12     2.615130609614   110.07131202    59.80206245
 F     14  13  12     2.613648934257   110.23073305   298.36901688
 C     12  11  10     2.645450509095   119.13535055   359.51240480
 C     18  12  11     2.640226517840   120.54897426     0.61043576
 S      7   6   5     3.288831300193   118.77581096    98.87542209
 O     20   7   6     2.840984360019   110.13834733    23.38395364
 O     20   7   6     2.840865101394   108.91352399   142.36477592
 C     20   7   6     3.331126287005   109.72003493   263.63719673
 C     23  20   7     2.647070399792   120.78820985   232.20412033
 C     24  23  20     2.642376273955   120.26470243   176.31638761
 C     25  24  23     2.655348231595   120.45032953     0.21798120
 C     26  25  24     2.794659819947   120.41655712   181.04714565
 O     27  26  25     2.382463602832   120.34511714   175.42373401
 O     27  26  25     2.632207868753   120.37229980   355.62423975
 C     26  25  24     2.656206562452   118.97315413     0.92633731
 C     30  26  25     2.638322644177   120.43528685   359.30773258
 C      6   5   4     2.662652119732   120.09628035     1.28076417
 C     32   6   5     2.871677562966   119.72401777   177.84925611
 C     33  32   6     2.885969044103   115.82766114   236.62323561
 C     34  33  32     2.855335848483    60.33755865   105.53236691
 C     32   6   5     2.681673230350   118.31342788   353.89664032
 C     36  32   6     2.671496912880   121.38688306   187.67047860
 C     37  36  32     2.634283287122   120.88453165   181.20920710
 C     38  37  36     2.626514065323   120.18321396   358.84258126
 C     39  38  37     2.633715448356   120.24832599   359.24196450
 C     40  39  38     2.672531774390   120.83200177     1.21812820
 H      1   2   3     2.100661568683   110.01829370   296.81014660
 H      1   2   3     2.100026983959   110.94430539    56.60357471
 H      1   2   3     2.100530539291   110.18218401   177.57653805
 H      2   1   3     2.095487700181   105.42701515   117.63438795
 H      3   2   1     2.096791052187   110.58593789   178.44733549
 H      3   2   1     2.098925639481   110.55157311   298.70191375
 H      3   2   1     2.101017521064   110.16776335    59.00801630
 H      8   7   6     2.099478199681   109.17726558   229.34693929
 H      8   7   6     2.101494321673   110.22678695   346.09874557
 H     10   9   8     2.046796327977   120.39679715     1.78320018
 H     11  10   9     2.039972289389   118.45690388   178.85535533
 H     18  12  11     2.046290020467   119.94051620   180.57721448
 H     19  18  12     2.043700381180   119.40730060   180.22939899
 H     24  23  20     2.045218973931   120.57795592   357.78010693
 H     25  24  23     2.044871322289   118.86046736   181.29164460
 H     29  27  26     1.916024685682   120.88766216   179.95121382
 H     30  26  25     2.044851736859   120.84283085   179.51674923
 H     31  30  26     2.038552724294   119.21009697   179.94295865
 H     33  32   6     2.097683130028   120.18437760    89.77760205
 H     34  33  32     2.096450232267   114.50947520   210.29121029
 H     34  33  32     2.098340496729   116.09399448     1.74899517
 H     35  34  33     2.097595966091   113.51706996   106.41981026
 H     35  34  33     2.095546655073   111.83321999   249.74989134
 H     37  36  32     2.041803291280   121.82039824     2.28855830
 H     38  37  36     2.046427881971   119.94950764   179.58961461
 H     39  38  37     2.047869862760   119.85537614   180.29482776
 H     40  39  38     2.040480374542   116.79642413   182.20262291

---------------------
BASIS SET INFORMATION
---------------------
There are 6 groups of distinct atoms

 Group   1 Type C   : 10s4p1d contracted to 3s2p1d pattern {631/31/1}
 Group   2 Type N   : 10s4p1d contracted to 3s2p1d pattern {631/31/1}
 Group   3 Type O   : 10s4p1d contracted to 3s2p1d pattern {631/31/1}
 Group   4 Type F   : 10s4p1d contracted to 3s2p1d pattern {631/31/1}
 Group   5 Type S   : 16s10p1d contracted to 4s3p1d pattern {6631/631/1}
 Group   6 Type H   : 4s contracted to 2s pattern {31}

Atom   0C    basis set group =>   1
Atom   1C    basis set group =>   1
Atom   2C    basis set group =>   1
Atom   3C    basis set group =>   1
Atom   4N    basis set group =>   2
Atom   5C    basis set group =>   1
Atom   6N    basis set group =>   2
Atom   7C    basis set group =>   1
Atom   8C    basis set group =>   1
Atom   9C    basis set group =>   1
Atom  10C    basis set group =>   1
Atom  11C    basis set group =>   1
Atom  12O    basis set group =>   3
Atom  13C    basis set group =>   1
Atom  14F    basis set group =>   4
Atom  15F    basis set group =>   4
Atom  16F    basis set group =>   4
Atom  17C    basis set group =>   1
Atom  18C    basis set group =>   1
Atom  19S    basis set group =>   5
Atom  20O    basis set group =>   3
Atom  21O    basis set group =>   3
Atom  22C    basis set group =>   1
Atom  23C    basis set group =>   1
Atom  24C    basis set group =>   1
Atom  25C    basis set group =>   1
Atom  26C    basis set group =>   1
Atom  27O    basis set group =>   3
Atom  28O    basis set group =>   3
Atom  29C    basis set group =>   1
Atom  30C    basis set group =>   1
Atom  31C    basis set group =>   1
Atom  32C    basis set group =>   1
Atom  33C    basis set group =>   1
Atom  34C    basis set group =>   1
Atom  35C    basis set group =>   1
Atom  36C    basis set group =>   1
Atom  37C    basis set group =>   1
Atom  38C    basis set group =>   1
Atom  39C    basis set group =>   1
Atom  40C    basis set group =>   1
Atom  41H    basis set group =>   6
Atom  42H    basis set group =>   6
Atom  43H    basis set group =>   6
Atom  44H    basis set group =>   6
Atom  45H    basis set group =>   6
Atom  46H    basis set group =>   6
Atom  47H    basis set group =>   6
Atom  48H    basis set group =>   6
Atom  49H    basis set group =>   6
Atom  50H    basis set group =>   6
Atom  51H    basis set group =>   6
Atom  52H    basis set group =>   6
Atom  53H    basis set group =>   6
Atom  54H    basis set group =>   6
Atom  55H    basis set group =>   6
Atom  56H    basis set group =>   6
Atom  57H    basis set group =>   6
Atom  58H    basis set group =>   6
Atom  59H    basis set group =>   6
Atom  60H    basis set group =>   6
Atom  61H    basis set group =>   6
Atom  62H    basis set group =>   6
Atom  63H    basis set group =>   6
Atom  64H    basis set group =>   6
Atom  65H    basis set group =>   6
Atom  66H    basis set group =>   6
Atom  67H    basis set group =>   6
---------------------------------
AUXILIARY/J BASIS SET INFORMATION
---------------------------------
There are 6 groups of distinct atoms

 Group   1 Type C   : 12s5p4d2f1g contracted to 6s4p3d1f1g pattern {711111/2111/211/2/1}
 Group   2 Type N   : 12s5p4d2f1g contracted to 6s4p3d1f1g pattern {711111/2111/211/2/1}
 Group   3 Type O   : 12s5p4d2f1g contracted to 6s4p3d1f1g pattern {711111/2111/211/2/1}
 Group   4 Type F   : 12s5p4d2f1g contracted to 6s4p3d1f1g pattern {711111/2111/211/2/1}
 Group   5 Type S   : 14s5p5d2f1g contracted to 8s4p3d1f1g pattern {71111111/2111/311/2/1}
 Group   6 Type H   : 5s2p1d contracted to 3s1p1d pattern {311/2/1}

Atom   0C    basis set group =>   1
Atom   1C    basis set group =>   1
Atom   2C    basis set group =>   1
Atom   3C    basis set group =>   1
Atom   4N    basis set group =>   2
Atom   5C    basis set group =>   1
Atom   6N    basis set group =>   2
Atom   7C    basis set group =>   1
Atom   8C    basis set group =>   1
Atom   9C    basis set group =>   1
Atom  10C    basis set group =>   1
Atom  11C    basis set group =>   1
Atom  12O    basis set group =>   3
Atom  13C    basis set group =>   1
Atom  14F    basis set group =>   4
Atom  15F    basis set group =>   4
Atom  16F    basis set group =>   4
Atom  17C    basis set group =>   1
Atom  18C    basis set group =>   1
Atom  19S    basis set group =>   5
Atom  20O    basis set group =>   3
Atom  21O    basis set group =>   3
Atom  22C    basis set group =>   1
Atom  23C    basis set group =>   1
Atom  24C    basis set group =>   1
Atom  25C    basis set group =>   1
Atom  26C    basis set group =>   1
Atom  27O    basis set group =>   3
Atom  28O    basis set group =>   3
Atom  29C    basis set group =>   1
Atom  30C    basis set group =>   1
Atom  31C    basis set group =>   1
Atom  32C    basis set group =>   1
Atom  33C    basis set group =>   1
Atom  34C    basis set group =>   1
Atom  35C    basis set group =>   1
Atom  36C    basis set group =>   1
Atom  37C    basis set group =>   1
Atom  38C    basis set group =>   1
Atom  39C    basis set group =>   1
Atom  40C    basis set group =>   1
Atom  41H    basis set group =>   6
Atom  42H    basis set group =>   6
Atom  43H    basis set group =>   6
Atom  44H    basis set group =>   6
Atom  45H    basis set group =>   6
Atom  46H    basis set group =>   6
Atom  47H    basis set group =>   6
Atom  48H    basis set group =>   6
Atom  49H    basis set group =>   6
Atom  50H    basis set group =>   6
Atom  51H    basis set group =>   6
Atom  52H    basis set group =>   6
Atom  53H    basis set group =>   6
Atom  54H    basis set group =>   6
Atom  55H    basis set group =>   6
Atom  56H    basis set group =>   6
Atom  57H    basis set group =>   6
Atom  58H    basis set group =>   6
Atom  59H    basis set group =>   6
Atom  60H    basis set group =>   6
Atom  61H    basis set group =>   6
Atom  62H    basis set group =>   6
Atom  63H    basis set group =>   6
Atom  64H    basis set group =>   6
Atom  65H    basis set group =>   6
Atom  66H    basis set group =>   6
Atom  67H    basis set group =>   6
------------------------------------------------------------------------------
                             ORCA STARTUP CALCULATIONS
                           -- RI-GTO INTEGRALS CHOSEN --
------------------------------------------------------------------------------
------------------------------------------------------------------------------
                   ___                                                        
                  /   \      - P O W E R E D   B Y -                         
                 /     \                                                     
                 |  |  |   _    _      __       _____    __    __             
                 |  |  |  | |  | |    /  \     |  _  \  |  |  /  |          
                  \  \/   | |  | |   /    \    | | | |  |  | /  /          
                 / \  \   | |__| |  /  /\  \   | |_| |  |  |/  /          
                |  |  |   |  __  | /  /__\  \  |    /   |      \           
                |  |  |   | |  | | |   __   |  |    \   |  |\   \          
                \     /   | |  | | |  |  |  |  | |\  \  |  | \   \       
                 \___/    |_|  |_| |__|  |__|  |_| \__\ |__|  \__/        
                                                                              
                      - O R C A' S   B I G   F R I E N D -                    
                                      &                                       
                       - I N T E G R A L  F E E D E R -                       
                                                                              
 v1 FN, 2020, v2 2021, v3 2022-2024                                           
------------------------------------------------------------------------------


----------------------
SHARK INTEGRAL PACKAGE
----------------------

Number of atoms                             ...     68
Number of basis functions                   ...    632
Number of shells                            ...    302
Maximum angular momentum                    ...      2
Integral batch strategy                     ... SHARK/LIBINT Hybrid
RI-J (if used) integral strategy            ... SPLIT-RIJ (Revised 2003 algorithm where possible)
Printlevel                                  ...      1
Contraction scheme used                     ... SEGMENTED contraction
Prescreening option                         ... SCHWARTZ
   Thresh                                   ... 1.000e-10
   Tcut                                     ... 1.000e-11
   Tpresel                                  ... 1.000e-11 
Coulomb Range Separation                    ... NOT USED
Exchange Range Separation                   ... NOT USED
Multipole approximations                    ... NOT USED
Finite Nucleus Model                        ... NOT USED
CABS basis                                  ... NOT available
Auxiliary Coulomb fitting basis             ... AVAILABLE
   # of basis functions in Aux-J            ...   2308
   # of shells in Aux-J                     ...    752
   Maximum angular momentum in Aux-J        ...      4
Auxiliary J/K fitting basis                 ... NOT available
Auxiliary Correlation fitting basis         ... NOT available
Auxiliary 'external' fitting basis          ... NOT available

Checking pre-screening integrals            ... done (  0.0 sec) Dimension = 302
Check shell pair data                       ... done (  0.0 sec)
Shell pair information
Shell pair cut-off parameter TPreSel        ...   1.0e-11
Total number of shell pairs                 ...     45753
Shell pairs after pre-screening             ...     25851
Total number of primitive shell pairs       ...    271452
Primitive shell pairs kept                  ...     75408
          la=0 lb=0:   8431 shell pairs
          la=1 lb=0:   9180 shell pairs
          la=1 lb=1:   2469 shell pairs
          la=2 lb=0:   3412 shell pairs
          la=2 lb=1:   1998 shell pairs
          la=2 lb=2:    361 shell pairs

Calculating one electron integrals          ... done (  0.5 sec)
Calculating RI/J V-Matrix + Cholesky decomp.... done (  0.7 sec)
Calculating Nuclear repulsion               ... done (  0.0 sec) ENN=   5293.393547242073 Eh

Diagonalization of the overlap matrix:
Smallest eigenvalue                        ... 3.232e-04
Time for diagonalization                   ...    0.075 sec
Threshold for overlap eigenvalues          ... 1.000e-07
Number of eigenvalues below threshold      ... 0
Time for construction of square roots      ...    0.052 sec
Total time needed                          ...    0.137 sec

-------------------
DFT GRID GENERATION
-------------------

General Integration Accuracy     IntAcc      ... 4.388
Radial Grid Type                 RadialGrid  ... OptM3 with GC (2021)
Angular Grid (max. ang.)         AngularGrid ... 4 (Lebedev-302)
Angular grid pruning method      GridPruning ... 4 (adaptive)
Weight generation scheme         WeightScheme... mBecke (2022)
Basis function cutoff            BFCut       ... 1.0000e-10
Integration weight cutoff        WCut        ... 1.0000e-14
Partially contracted basis set               ... off
Rotationally invariant grid construction     ... off
Angular grids for H and He will be reduced by one unit

Total number of grid points                  ...   330030
Total number of batches                      ...     5191
Average number of points per batch           ...       63
Average number of grid points per atom       ...     4853

--------------------
COSX GRID GENERATION
--------------------

GRIDX 1
-------
General Integration Accuracy     IntAcc      ... 3.816
Radial Grid Type                 RadialGrid  ... OptM3 with GC (2021)
Angular Grid (max. ang.)         AngularGrid ... 1 (Lebedev-50)
Angular grid pruning method      GridPruning ... 4 (adaptive)
Weight generation scheme         WeightScheme... mBecke (2022)
Basis function cutoff            BFCut       ... 1.0000e-10
Integration weight cutoff        WCut        ... 1.0000e-14
Partially contracted basis set               ... on
Rotationally invariant grid construction     ... off
Angular grids for H and He will be reduced by one unit

Total number of grid points                  ...    42738
Total number of batches                      ...      372
Average number of points per batch           ...      114
Average number of grid points per atom       ...      628
UseSFitting                                  ... on

GRIDX 2
-------
General Integration Accuracy     IntAcc      ... 4.020
Radial Grid Type                 RadialGrid  ... OptM3 with GC (2021)
Angular Grid (max. ang.)         AngularGrid ... 2 (Lebedev-110)
Angular grid pruning method      GridPruning ... 4 (adaptive)
Weight generation scheme         WeightScheme... mBecke (2022)
Basis function cutoff            BFCut       ... 1.0000e-10
Integration weight cutoff        WCut        ... 1.0000e-14
Partially contracted basis set               ... on
Rotationally invariant grid construction     ... off
Angular grids for H and He will be reduced by one unit

Total number of grid points                  ...    90447
Total number of batches                      ...      742
Average number of points per batch           ...      121
Average number of grid points per atom       ...     1330
UseSFitting                                  ... on

GRIDX 3
-------
General Integration Accuracy     IntAcc      ... 4.338
Radial Grid Type                 RadialGrid  ... OptM3 with GC (2021)
Angular Grid (max. ang.)         AngularGrid ... 3 (Lebedev-194)
Angular grid pruning method      GridPruning ... 4 (adaptive)
Weight generation scheme         WeightScheme... mBecke (2022)
Basis function cutoff            BFCut       ... 1.0000e-10
Integration weight cutoff        WCut        ... 1.0000e-14
Partially contracted basis set               ... on
Rotationally invariant grid construction     ... off
Angular grids for H and He will be reduced by one unit

Total number of grid points                  ...   197657
Total number of batches                      ...     1579
Average number of points per batch           ...      125
Average number of grid points per atom       ...     2907
UseSFitting                                  ... on
Initializing property integral containers    ... done (  0.0 sec)

SHARK setup successfully completed in  23.2 seconds

Maximum memory used throughout the entire STARTUP-calculation: 151.2 MB
-------------------------------------------------------------------------------
                                 ORCA GUESS
                   Start orbitals & Density for SCF / CASSCF
-------------------------------------------------------------------------------

------------
SCF SETTINGS
------------
Hamiltonian:
 Density Functional     Method          .... DFT(GTOs)
 Exchange Functional    Exchange        .... B88
   X-Alpha parameter    XAlpha          ....  0.666667
   Becke's b parameter  XBeta           ....  0.004200
 Correlation Functional Correlation     .... LYP
 LDA part of GGA corr.  LDAOpt          .... VWN-5
 Gradients option       PostSCFGGA      .... off
 Hybrid DFT is turned on
   Fraction HF Exchange ScalHFX         ....  0.200000
   Scaling of DF-GGA-X  ScalDFX         ....  0.720000
   Scaling of DF-GGA-C  ScalDFC         ....  0.810000
   Scaling of DF-LDA-C  ScalLDAC        ....  1.000000
   Perturbative correction              ....  0.000000
   NL short-range parameter             ....  4.800000
 RI-approximation to the Coulomb term is turned on
   Number of AuxJ basis functions       .... 2308
   RIJ-COSX (HFX calculated with COS-X)).... on


General Settings:
 Integral files         IntName         .... /home/nmrbox/aojoawo/Documents/ERDOS/inputs/CHEMBL3687402
 Hartree-Fock type      HFTyp           .... RHF
 Total Charge           Charge          ....    0
 Multiplicity           Mult            ....    1
 Number of Electrons    NEL             ....  304
 Basis Dimension        Dim             ....  632
 Nuclear Repulsion      ENuc            ....   5293.3935472421 Eh

Convergence Acceleration:
 AO-DIIS                CNVDIIS         .... on
   Start iteration      DIISMaxIt       ....    12
   Startup error        DIISStart       ....  0.200000
   # of expansion vecs  DIISMaxEq       ....     5
   Bias factor          DIISBfac        ....   1.050
   Max. coefficient     DIISMaxC        ....  10.000
 MO-DIIS                CNVKDIIS        .... off
 Trust-Rad. Augm. Hess. CNVTRAH         .... auto
   Auto Start mean grad. ratio tolernc. ....  1.125000
   Auto Start start iteration           ....    50
   Auto Start num. interpolation iter.  ....    10
   Max. Number of Micro iterations      ....    24
   Max. Number of Macro iterations      .... Maxiter - #DIIS iter
   Number of Davidson start vectors     ....     2
   Converg. threshold    (grad. norm)   ....   5.000e-05
   Grad. Scal. Fac. for Micro threshold ....   0.100
   Minimum threshold for Micro iter.    ....   1.000e-02
   NR start threshold (gradient norm)   ....   1.000e-04
   Initial trust radius                 ....   0.400
   Minimum AH scaling param. (alpha)    ....   1.000
   Maximum AH scaling param. (alpha)    .... 1000.000
   Quad. conv. algorithm                .... NR
   White noise on init. David. guess    .... on
   Maximum white noise                  ....   0.010
   Pseudo random numbers                .... off
   Inactive MOs                         .... canonical
   Orbital update algorithm             .... Taylor
   Preconditioner                       .... Diag
   Full preconditioner red. dimension   ....   250
 SOSCF                  CNVSOSCF        .... on
   Start iteration      SOSCFMaxIt      ....   150
   Startup grad/error   SOSCFStart      ....  0.003300
   Hessian update       SOSCFHessUp     .... L-BFGS
 Level Shifting         CNVShift        .... on
   Level shift para.    LevelShift      ....    0.2500
   Turn off err/grad.   ShiftErr        ....    0.0010
 Zerner damping         CNVZerner       .... off
 Static damping         CNVDamp         .... on
   Fraction old density DampFac         ....    0.7000
   Max. Damping (<1)    DampMax         ....    0.9800
   Min. Damping (>=0)   DampMin         ....    0.0000
   Turn off err/grad.   DampErr         ....    0.1000

SCF Procedure:
 Maximum # iterations   MaxIter         ....   125
 SCF integral mode      SCFMode         .... Direct
   Integral package                     .... SHARK and LIBINT hybrid scheme
 Reset frequency        DirectResetFreq ....    20
 Integral Threshold     Thresh          ....  1.000e-10 Eh
 Primitive CutOff       TCut            ....  1.000e-11 Eh

Convergence Tolerance:
 Convergence Check Mode ConvCheckMode   .... Total+1el-Energy
 Convergence forced     ConvForced      .... 0
 Energy Change          TolE            ....  1.000e-06 Eh
 1-El. energy change                    ....  1.000e-03 Eh
 Orbital Gradient       TolG            ....  5.000e-05
 Orbital Rotation angle TolX            ....  5.000e-05
 DIIS Error             TolErr          ....  1.000e-06

------------------------------
INITIAL GUESS: MODEL POTENTIAL
------------------------------
Loading Hartree-Fock densities                     ... done
Calculating cut-offs                               ... done
Initializing the effective Hamiltonian             ... done
Setting up the integral package (SHARK)            ... done
Starting the Coulomb interaction                   ... done (   8.1 sec)
Making the grid                                    ... done (   2.8 sec)
Mapping shells                                     ... done
Starting the XC term evaluation                    ... done (   2.0 sec)
  promolecular density results
     # of electrons  =    303.973523965
     EX              =   -271.568686878
     EC              =    -10.646654875
     EX+EC           =   -282.215341753
Transforming the Hamiltonian                       ... done (   0.0 sec)
Diagonalizing the Hamiltonian                      ... done (   0.1 sec)
Back transforming the eigenvectors                 ... done (   0.0 sec)
Now organizing SCF variables                       ... done
                      ------------------
                      INITIAL GUESS DONE (  13.0 sec)
                      ------------------
             **** ENERGY FILE WAS UPDATED (/home/nmrbox/aojoawo/Documents/ERDOS/inputs/CHEMBL3687402.en.tmp) ****
Finished Guess after  13.4 sec
Maximum memory used throughout the entire GUESS-calculation: 86.0 MB

-------------------------------------------------------------------------------------------
                                      ORCA LEAN-SCF
                              memory conserving SCF solver
-------------------------------------------------------------------------------------------

----------------------------------------D-I-I-S--------------------------------------------
Iteration    Energy (Eh)           Delta-E    RMSDP     MaxDP     DIISErr   Damp  Time(sec)
-------------------------------------------------------------------------------------------
               ***  Starting incremental Fock matrix formation  ***
    1    -2340.3182101071924990     0.00e+00  2.14e-03  1.87e-01  2.95e-01  0.700 126.3
    2    -2340.8800227741803610    -5.62e-01  1.32e-03  7.94e-02  9.86e-02  0.700  55.4
                               ***Turning on AO-DIIS***
    3    -2341.0769788987236097    -1.97e-01  5.34e-04  1.73e-02  4.03e-02  0.700  53.5
    4    -2341.2041988898499767    -1.27e-01  9.00e-04  3.12e-02  1.73e-02  0.000  48.3
    5    -2341.4894797017605015    -2.85e-01  2.05e-04  8.16e-03  7.94e-03  0.000  50.8
                              *** Initializing SOSCF ***
---------------------------------------S-O-S-C-F--------------------------------------
Iteration    Energy (Eh)           Delta-E    RMSDP     MaxDP     MaxGrad    Time(sec)
--------------------------------------------------------------------------------------
    6    -2341.4914520772899778    -1.97e-03  6.51e-05  3.46e-03  2.79e-03    43.4
               *** Restarting incremental Fock matrix formation ***
    7    -2341.4913785512280811     7.35e-05  6.31e-05  3.73e-03  4.25e-04   110.8
    8    -2341.4912916587618383     8.69e-05  4.10e-05  2.60e-03  1.16e-03    60.5
    9    -2341.4914092030148822    -1.18e-04  1.27e-05  9.25e-04  1.68e-04    55.5
   10    -2341.4914060165547198     3.19e-06  8.02e-06  5.66e-04  2.82e-04    44.7
   11    -2341.4914107631984734    -4.75e-06  2.45e-06  1.17e-04  2.37e-05    41.1
   12    -2341.4914108533093895    -9.01e-08  1.54e-06  8.26e-05  4.13e-05    32.6
                 **** Energy Check signals convergence ****

               *****************************************************
               *                     SUCCESS                       *
               *           SCF CONVERGED AFTER  12 CYCLES          *
               *****************************************************

Recomputing exchange energy using gridx3       ... done (  196.073 sec)
Old exchange energy                            :    -54.923679576 Eh
New exchange energy                            :    -54.923763014 Eh
Exchange energy change after final integration :     -0.000083439 Eh
Total energy after final integration           :  -2341.491494292 Eh
             **** ENERGY FILE WAS UPDATED (/home/nmrbox/aojoawo/Documents/ERDOS/inputs/CHEMBL3687402.en.tmp) ****

----------------
TOTAL SCF ENERGY
----------------

Total Energy       :      -2341.49149429212002 Eh          -63715.22278 eV

Components:
Nuclear Repulsion  :       5293.39354724207260 Eh          144040.56130 eV
Electronic Energy  :      -7634.88495809538199 Eh         -207755.78181 eV
One Electron Energy:     -13747.33845164440754 Eh         -374084.09734 eV
Two Electron Energy:       6112.45349354902555 Eh          166328.31553 eV

Virial components:
Potential Energy   :      -4669.41094980127855 Eh         -127061.13161 eV
Kinetic Energy     :       2327.91945550915807 Eh           63345.90883 eV
Virial Ratio       :          2.00583011527776

DFT components:
N(Alpha)           :      151.999775233196 electrons
N(Beta)            :      151.999775233196 electrons
N(Total)           :      303.999550466392 electrons
E(X)               :     -218.291272397761 Eh       
E(C)               :      -12.500885500152 Eh       
E(XC)              :     -230.792157897914 Eh       

---------------
SCF CONVERGENCE
---------------

  Last Energy change         ...    9.0111e-08  Tolerance :   1.0000e-06
  Last MAX-Density change    ...    8.2632e-05  Tolerance :   1.0000e-05
  Last RMS-Density change    ...    1.5442e-06  Tolerance :   1.0000e-06
  Last DIIS Error            ...    2.7906e-03  Tolerance :   1.0000e-06
  Last Orbital Gradient      ...    4.1297e-05  Tolerance :   5.0000e-05
  Last Orbital Rotation      ...    6.5287e-05  Tolerance :   5.0000e-05


----------------
ORBITAL ENERGIES
----------------

  NO   OCC          E(Eh)            E(eV) 
   0   2.0000     -89.095751     -2424.4186 
   1   2.0000     -24.740654      -673.2274 
   2   2.0000     -24.740126      -673.2131 
   3   2.0000     -24.738070      -673.1571 
   4   2.0000     -19.210765      -522.7515 
   5   2.0000     -19.188419      -522.1434 
   6   2.0000     -19.130142      -520.5576 
   7   2.0000     -19.125384      -520.4281 
   8   2.0000     -19.124736      -520.4105 
   9   2.0000     -14.366804      -390.9406 
  10   2.0000     -14.330754      -389.9596 
  11   2.0000     -10.503106      -285.8040 
  12   2.0000     -10.327161      -281.0163 
  13   2.0000     -10.265399      -279.3357 
  14   2.0000     -10.256841      -279.1028 
  15   2.0000     -10.234797      -278.5030 
  16   2.0000     -10.233768      -278.4750 
  17   2.0000     -10.230172      -278.3771 
  18   2.0000     -10.221889      -278.1518 
  19   2.0000     -10.210276      -277.8357 
  20   2.0000     -10.209418      -277.8124 
  21   2.0000     -10.207754      -277.7671 
  22   2.0000     -10.207395      -277.7573 
  23   2.0000     -10.205569      -277.7077 
  24   2.0000     -10.204678      -277.6834 
  25   2.0000     -10.202982      -277.6373 
  26   2.0000     -10.198070      -277.5036 
  27   2.0000     -10.196420      -277.4587 
  28   2.0000     -10.194384      -277.4033 
  29   2.0000     -10.193931      -277.3910 
  30   2.0000     -10.192867      -277.3620 
  31   2.0000     -10.192353      -277.3480 
  32   2.0000     -10.191895      -277.3356 
  33   2.0000     -10.191469      -277.3240 
  34   2.0000     -10.190813      -277.3061 
  35   2.0000     -10.190298      -277.2921 
  36   2.0000     -10.189179      -277.2617 
  37   2.0000     -10.179550      -276.9996 
  38   2.0000     -10.179176      -276.9895 
  39   2.0000     -10.178926      -276.9827 
  40   2.0000     -10.172561      -276.8095 
  41   2.0000      -8.131209      -221.2614 
  42   2.0000      -6.096370      -165.8907 
  43   2.0000      -6.094312      -165.8346 
  44   2.0000      -6.093726      -165.8187 
  45   2.0000      -1.303774       -35.4775 
  46   2.0000      -1.224966       -33.3330 
  47   2.0000      -1.223748       -33.2999 
  48   2.0000      -1.081663       -29.4336 
  49   2.0000      -1.080715       -29.4078 
  50   2.0000      -1.072822       -29.1930 
  51   2.0000      -0.987249       -26.8644 
  52   2.0000      -0.963285       -26.2123 
  53   2.0000      -0.960594       -26.1391 
  54   2.0000      -0.914537       -24.8858 
  55   2.0000      -0.881306       -23.9816 
  56   2.0000      -0.865573       -23.5534 
  57   2.0000      -0.861191       -23.4342 
  58   2.0000      -0.850756       -23.1502 
  59   2.0000      -0.812679       -22.1141 
  60   2.0000      -0.798829       -21.7372 
  61   2.0000      -0.781754       -21.2726 
  62   2.0000      -0.780474       -21.2378 
  63   2.0000      -0.767532       -20.8856 
  64   2.0000      -0.763970       -20.7887 
  65   2.0000      -0.754618       -20.5342 
  66   2.0000      -0.734732       -19.9931 
  67   2.0000      -0.723248       -19.6806 
  68   2.0000      -0.701289       -19.0831 
  69   2.0000      -0.682867       -18.5818 
  70   2.0000      -0.674554       -18.3555 
  71   2.0000      -0.661851       -18.0099 
  72   2.0000      -0.647855       -17.6290 
  73   2.0000      -0.632556       -17.2127 
  74   2.0000      -0.630223       -17.1492 
  75   2.0000      -0.623859       -16.9761 
  76   2.0000      -0.621061       -16.8999 
  77   2.0000      -0.608734       -16.5645 
  78   2.0000      -0.595898       -16.2152 
  79   2.0000      -0.591132       -16.0855 
  80   2.0000      -0.590619       -16.0716 
  81   2.0000      -0.583288       -15.8721 
  82   2.0000      -0.582560       -15.8523 
  83   2.0000      -0.569944       -15.5090 
  84   2.0000      -0.560422       -15.2499 
  85   2.0000      -0.548625       -14.9288 
  86   2.0000      -0.534737       -14.5509 
  87   2.0000      -0.531024       -14.4499 
  88   2.0000      -0.516100       -14.0438 
  89   2.0000      -0.502324       -13.6689 
  90   2.0000      -0.497294       -13.5321 
  91   2.0000      -0.489037       -13.3074 
  92   2.0000      -0.483056       -13.1446 
  93   2.0000      -0.479162       -13.0387 
  94   2.0000      -0.475679       -12.9439 
  95   2.0000      -0.471858       -12.8399 
  96   2.0000      -0.469653       -12.7799 
  97   2.0000      -0.467945       -12.7334 
  98   2.0000      -0.463810       -12.6209 
  99   2.0000      -0.459220       -12.4960 
 100   2.0000      -0.456962       -12.4346 
 101   2.0000      -0.453802       -12.3486 
 102   2.0000      -0.452085       -12.3019 
 103   2.0000      -0.447542       -12.1782 
 104   2.0000      -0.444252       -12.0887 
 105   2.0000      -0.442422       -12.0389 
 106   2.0000      -0.439031       -11.9466 
 107   2.0000      -0.433397       -11.7933 
 108   2.0000      -0.432167       -11.7599 
 109   2.0000      -0.431564       -11.7434 
 110   2.0000      -0.430892       -11.7252 
 111   2.0000      -0.426230       -11.5983 
 112   2.0000      -0.422621       -11.5001 
 113   2.0000      -0.416786       -11.3413 
 114   2.0000      -0.416255       -11.3269 
 115   2.0000      -0.409861       -11.1529 
 116   2.0000      -0.406890       -11.0720 
 117   2.0000      -0.404593       -11.0095 
 118   2.0000      -0.395421       -10.7599 
 119   2.0000      -0.388318       -10.5667 
 120   2.0000      -0.383961       -10.4481 
 121   2.0000      -0.382788       -10.4162 
 122   2.0000      -0.380763       -10.3611 
 123   2.0000      -0.377782       -10.2800 
 124   2.0000      -0.373908       -10.1746 
 125   2.0000      -0.371157       -10.0997 
 126   2.0000      -0.363910        -9.9025 
 127   2.0000      -0.362058        -9.8521 
 128   2.0000      -0.359946        -9.7946 
 129   2.0000      -0.352550        -9.5934 
 130   2.0000      -0.345530        -9.4024 
 131   2.0000      -0.343871        -9.3572 
 132   2.0000      -0.342167        -9.3108 
 133   2.0000      -0.339326        -9.2335 
 134   2.0000      -0.333635        -9.0787 
 135   2.0000      -0.323226        -8.7954 
 136   2.0000      -0.313077        -8.5193 
 137   2.0000      -0.304477        -8.2852 
 138   2.0000      -0.302983        -8.2446 
 139   2.0000      -0.295314        -8.0359 
 140   2.0000      -0.286698        -7.8014 
 141   2.0000      -0.278731        -7.5847 
 142   2.0000      -0.278247        -7.5715 
 143   2.0000      -0.272619        -7.4183 
 144   2.0000      -0.271064        -7.3760 
 145   2.0000      -0.266980        -7.2649 
 146   2.0000      -0.263276        -7.1641 
 147   2.0000      -0.253414        -6.8957 
 148   2.0000      -0.250735        -6.8228 
 149   2.0000      -0.248595        -6.7646 
 150   2.0000      -0.232793        -6.3346 
 151   2.0000      -0.220189        -5.9916 
 152   0.0000      -0.075618        -2.0577 
 153   0.0000      -0.061269        -1.6672 
 154   0.0000      -0.032556        -0.8859 
 155   0.0000      -0.027201        -0.7402 
 156   0.0000      -0.010234        -0.2785 
 157   0.0000      -0.001864        -0.0507 
 158   0.0000       0.015369         0.4182 
 159   0.0000       0.022359         0.6084 
 160   0.0000       0.032932         0.8961 
 161   0.0000       0.048635         1.3234 
 162   0.0000       0.058491         1.5916 
*Only the first 10 virtual orbitals were printed.

                    ********************************
                    * MULLIKEN POPULATION ANALYSIS *
                    ********************************

-----------------------
MULLIKEN ATOMIC CHARGES
-----------------------
   0 C :   -0.434973
   1 C :   -0.130276
   2 C :   -0.440091
   3 C :    0.188331
   4 N :   -0.440161
   5 C :    0.288428
   6 N :   -0.599293
   7 C :   -0.232675
   8 C :    0.128274
   9 C :   -0.179374
  10 C :   -0.186335
  11 C :    0.353417
  12 O :   -0.544887
  13 C :    1.086600
  14 F :   -0.279458
  15 F :   -0.291555
  16 F :   -0.290201
  17 C :   -0.180010
  18 C :   -0.147288
  19 S :    1.220637
  20 O :   -0.544130
  21 O :   -0.552544
  22 C :   -0.113375
  23 C :   -0.145820
  24 C :   -0.144688
  25 C :    0.084590
  26 C :    0.527185
  27 O :   -0.448548
  28 O :   -0.624559
  29 C :   -0.142829
  30 C :   -0.139717
  31 C :    0.075269
  32 C :   -0.174486
  33 C :   -0.319253
  34 C :   -0.297161
  35 C :    0.115678
  36 C :   -0.188580
  37 C :   -0.121490
  38 C :   -0.122253
  39 C :   -0.212995
  40 C :    0.106105
  41 H :    0.135811
  42 H :    0.160252
  43 H :    0.140504
  44 H :    0.136041
  45 H :    0.149865
  46 H :    0.153981
  47 H :    0.146975
  48 H :    0.183726
  49 H :    0.172206
  50 H :    0.157290
  51 H :    0.148957
  52 H :    0.149134
  53 H :    0.156189
  54 H :    0.180964
  55 H :    0.169031
  56 H :    0.432265
  57 H :    0.173169
  58 H :    0.187120
  59 H :    0.193416
  60 H :    0.146684
  61 H :    0.151505
  62 H :    0.158800
  63 H :    0.142771
  64 H :    0.156304
  65 H :    0.137046
  66 H :    0.134590
  67 H :    0.139894
Sum of atomic charges:   -0.0000000

--------------------------------
MULLIKEN REDUCED ORBITAL CHARGES
--------------------------------
  0 C s       :     3.308399  s :     3.308399
      pz      :     1.034745  p :     3.092162
      px      :     1.023847
      py      :     1.033569
      dz2     :     0.006521  d :     0.034412
      dxz     :     0.005039
      dyz     :     0.008992
      dx2y2   :     0.005329
      dxy     :     0.008531

  1 C s       :     3.215332  s :     3.215332
      pz      :     0.940260  p :     2.870292
      px      :     0.985725
      py      :     0.944307
      dz2     :     0.011682  d :     0.044652
      dxz     :     0.005258
      dyz     :     0.009622
      dx2y2   :     0.006041
      dxy     :     0.012049

  2 C s       :     3.311612  s :     3.311612
      pz      :     1.027880  p :     3.093905
      px      :     1.074689
      py      :     0.991336
      dz2     :     0.008696  d :     0.034574
      dxz     :     0.004564
      dyz     :     0.006845
      dx2y2   :     0.003122
      dxy     :     0.011346

  3 C s       :     3.118038  s :     3.118038
      pz      :     0.892981  p :     2.635767
      px      :     0.842034
      py      :     0.900752
      dz2     :     0.012277  d :     0.057864
      dxz     :     0.019339
      dyz     :     0.005766
      dx2y2   :     0.009942
      dxy     :     0.010540

  4 N s       :     3.715069  s :     3.715069
      pz      :     1.282553  p :     3.690494
      px      :     1.235893
      py      :     1.172048
      dz2     :     0.009650  d :     0.034598
      dxz     :     0.005677
      dyz     :     0.006180
      dx2y2   :     0.006856
      dxy     :     0.006234

  5 C s       :     3.052631  s :     3.052631
      pz      :     0.861208  p :     2.584296
      px      :     0.722147
      py      :     1.000941
      dz2     :     0.018487  d :     0.074645
      dxz     :     0.026311
      dyz     :     0.009782
      dx2y2   :     0.011837
      dxy     :     0.008229

  6 N s       :     3.591259  s :     3.591259
      pz      :     1.755567  p :     3.974927
      px      :     1.139816
      py      :     1.079543
      dz2     :     0.003588  d :     0.033106
      dxz     :     0.004207
      dyz     :     0.003416
      dx2y2   :     0.010725
      dxy     :     0.011170

  7 C s       :     3.260042  s :     3.260042
      pz      :     1.033172  p :     2.917382
      px      :     0.992952
      py      :     0.891258
      dz2     :     0.010617  d :     0.055251
      dxz     :     0.015473
      dyz     :     0.007622
      dx2y2   :     0.005951
      dxy     :     0.015588

  8 C s       :     3.123599  s :     3.123599
      pz      :     0.862871  p :     2.708129
      px      :     0.869139
      py      :     0.976118
      dz2     :     0.009877  d :     0.039999
      dxz     :     0.011829
      dyz     :     0.005612
      dx2y2   :     0.006239
      dxy     :     0.006442

  9 C s       :     3.205683  s :     3.205683
      pz      :     0.985873  p :     2.937090
      px      :     0.964358
      py      :     0.986859
      dz2     :     0.008131  d :     0.036602
      dxz     :     0.010922
      dyz     :     0.006263
      dx2y2   :     0.005138
      dxy     :     0.006148

 10 C s       :     3.179240  s :     3.179240
      pz      :     0.960365  p :     2.972531
      px      :     0.996038
      py      :     1.016128
      dz2     :     0.009775  d :     0.034565
      dxz     :     0.008348
      dyz     :     0.006566
      dx2y2   :     0.005268
      dxy     :     0.004608

 11 C s       :     3.073790  s :     3.073790
      pz      :     0.692385  p :     2.507421
      px      :     0.837672
      py      :     0.977365
      dz2     :     0.017743  d :     0.065372
      dxz     :     0.019747
      dyz     :     0.011846
      dx2y2   :     0.007644
      dxy     :     0.008390

 12 O s       :     3.885782  s :     3.885782
      pz      :     1.522469  p :     4.633040
      px      :     1.341584
      py      :     1.768987
      dz2     :     0.008028  d :     0.026065
      dxz     :     0.004093
      dyz     :     0.003997
      dx2y2   :     0.005013
      dxy     :     0.004934

 13 C s       :     2.716253  s :     2.716253
      pz      :     0.633689  p :     2.032474
      px      :     0.733302
      py      :     0.665483
      dz2     :     0.037318  d :     0.164673
      dxz     :     0.030242
      dyz     :     0.028407
      dx2y2   :     0.038449
      dxy     :     0.030257

 14 F s       :     3.979114  s :     3.979114
      pz      :     1.507846  p :     5.284167
      px      :     1.882251
      py      :     1.894070
      dz2     :     0.007428  d :     0.016177
      dxz     :     0.003849
      dyz     :     0.003847
      dx2y2   :     0.000506
      dxy     :     0.000548

 15 F s       :     3.982240  s :     3.982240
      pz      :     1.750062  p :     5.293061
      px      :     1.741532
      py      :     1.801466
      dz2     :     0.002637  d :     0.016254
      dxz     :     0.004381
      dyz     :     0.003191
      dx2y2   :     0.002458
      dxy     :     0.003587

 16 F s       :     3.983085  s :     3.983085
      pz      :     1.898117  p :     5.290800
      px      :     1.910026
      py      :     1.482657
      dz2     :     0.002315  d :     0.016316
      dxz     :     0.000280
      dyz     :     0.003913
      dx2y2   :     0.006334
      dxy     :     0.003474

 17 C s       :     3.199499  s :     3.199499
      pz      :     0.985989  p :     2.945855
      px      :     0.946590
      py      :     1.013276
      dz2     :     0.008535  d :     0.034656
      dxz     :     0.008918
      dyz     :     0.005978
      dx2y2   :     0.005358
      dxy     :     0.005867

 18 C s       :     3.201772  s :     3.201772
      pz      :     0.935546  p :     2.909139
      px      :     0.996002
      py      :     0.977591
      dz2     :     0.010451  d :     0.036376
      dxz     :     0.009030
      dyz     :     0.006636
      dx2y2   :     0.005082
      dxy     :     0.005178

 19 S s       :     5.215163  s :     5.215163
      pz      :     3.069802  p :     9.029291
      px      :     2.964820
      py      :     2.994669
      dz2     :     0.122954  d :     0.534910
      dxz     :     0.116082
      dyz     :     0.069476
      dx2y2   :     0.113570
      dxy     :     0.112828

 20 O s       :     3.930103  s :     3.930103
      pz      :     1.682685  p :     4.587254
      px      :     1.490433
      py      :     1.414136
      dz2     :     0.003137  d :     0.026772
      dxz     :     0.003984
      dyz     :     0.004400
      dx2y2   :     0.007647
      dxy     :     0.007604

 21 O s       :     3.922640  s :     3.922640
      pz      :     1.458244  p :     4.603362
      px      :     1.476979
      py      :     1.668138
      dz2     :     0.006232  d :     0.026541
      dxz     :     0.007829
      dyz     :     0.004308
      dx2y2   :     0.004119
      dxy     :     0.004053

 22 C s       :     3.218899  s :     3.218899
      pz      :     0.856234  p :     2.855723
      px      :     0.971014
      py      :     1.028475
      dz2     :     0.011002  d :     0.038753
      dxz     :     0.011420
      dyz     :     0.004634
      dx2y2   :     0.005794
      dxy     :     0.005903

 23 C s       :     3.210193  s :     3.210193
      pz      :     0.996228  p :     2.899604
      px      :     0.951513
      py      :     0.951864
      dz2     :     0.008787  d :     0.036023
      dxz     :     0.012355
      dyz     :     0.004825
      dx2y2   :     0.005057
      dxy     :     0.004999

 24 C s       :     3.209197  s :     3.209197
      pz      :     0.942941  p :     2.899738
      px      :     0.995689
      py      :     0.961109
      dz2     :     0.010322  d :     0.035753
      dxz     :     0.010098
      dyz     :     0.006415
      dx2y2   :     0.005059
      dxy     :     0.003858

 25 C s       :     3.164530  s :     3.164530
      pz      :     0.848055  p :     2.712374
      px      :     0.880495
      py      :     0.983825
      dz2     :     0.010392  d :     0.038506
      dxz     :     0.012081
      dyz     :     0.004973
      dx2y2   :     0.005469
      dxy     :     0.005590

 26 C s       :     2.998759  s :     2.998759
      pz      :     0.892689  p :     2.363857
      px      :     0.690259
      py      :     0.780910
      dz2     :     0.032455  d :     0.110199
      dxz     :     0.025303
      dyz     :     0.014039
      dx2y2   :     0.019252
      dxy     :     0.019150

 27 O s       :     3.877337  s :     3.877337
      pz      :     1.520760  p :     4.545657
      px      :     1.596631
      py      :     1.428266
      dz2     :     0.005940  d :     0.025555
      dxz     :     0.007182
      dyz     :     0.006215
      dx2y2   :     0.003250
      dxy     :     0.002968

 28 O s       :     3.873966  s :     3.873966
      pz      :     1.496666  p :     4.729657
      px      :     1.468113
      py      :     1.764877
      dz2     :     0.008998  d :     0.020937
      dxz     :     0.003109
      dyz     :     0.000691
      dx2y2   :     0.004006
      dxy     :     0.004132

 29 C s       :     3.215140  s :     3.215140
      pz      :     0.959196  p :     2.891866
      px      :     0.983777
      py      :     0.948892
      dz2     :     0.008762  d :     0.035824
      dxz     :     0.012472
      dyz     :     0.004894
      dx2y2   :     0.004894
      dxy     :     0.004801

 30 C s       :     3.200183  s :     3.200183
      pz      :     0.922003  p :     2.903521
      px      :     1.019254
      py      :     0.962264
      dz2     :     0.010106  d :     0.036013
      dxz     :     0.010381
      dyz     :     0.006512
      dx2y2   :     0.005145
      dxy     :     0.003870

 31 C s       :     3.191966  s :     3.191966
      pz      :     0.859158  p :     2.692518
      px      :     0.899866
      py      :     0.933494
      dz2     :     0.009563  d :     0.040247
      dxz     :     0.013427
      dyz     :     0.005068
      dx2y2   :     0.006024
      dxy     :     0.006165

 32 C s       :     3.203757  s :     3.203757
      pz      :     0.924389  p :     2.925414
      px      :     1.027037
      py      :     0.973988
      dz2     :     0.010270  d :     0.045315
      dxz     :     0.008726
      dyz     :     0.011102
      dx2y2   :     0.008649
      dxy     :     0.006568

 33 C s       :     3.267441  s :     3.267441
      pz      :     0.988720  p :     3.011118
      px      :     0.981753
      py      :     1.040646
      dz2     :     0.008448  d :     0.040693
      dxz     :     0.007389
      dyz     :     0.009750
      dx2y2   :     0.006475
      dxy     :     0.008632

 34 C s       :     3.271098  s :     3.271098
      pz      :     1.067811  p :     2.985234
      px      :     0.917492
      py      :     0.999932
      dz2     :     0.003948  d :     0.040829
      dxz     :     0.010207
      dyz     :     0.007906
      dx2y2   :     0.010176
      dxy     :     0.008592

 35 C s       :     3.141672  s :     3.141672
      pz      :     0.872712  p :     2.701244
      px      :     0.880228
      py      :     0.948304
      dz2     :     0.009774  d :     0.041406
      dxz     :     0.011931
      dyz     :     0.005638
      dx2y2   :     0.006904
      dxy     :     0.007158

 36 C s       :     3.210642  s :     3.210642
      pz      :     1.012378  p :     2.942306
      px      :     0.953593
      py      :     0.976335
      dz2     :     0.008061  d :     0.035632
      dxz     :     0.010615
      dyz     :     0.004594
      dx2y2   :     0.005754
      dxy     :     0.006609

 37 C s       :     3.194495  s :     3.194495
      pz      :     0.949101  p :     2.890195
      px      :     0.969453
      py      :     0.971641
      dz2     :     0.007449  d :     0.036800
      dxz     :     0.013194
      dyz     :     0.004810
      dx2y2   :     0.005370
      dxy     :     0.005976

 38 C s       :     3.190804  s :     3.190804
      pz      :     0.938026  p :     2.894742
      px      :     0.981546
      py      :     0.975170
      dz2     :     0.010045  d :     0.036708
      dxz     :     0.009667
      dyz     :     0.005771
      dx2y2   :     0.007953
      dxy     :     0.003271

 39 C s       :     3.213076  s :     3.213076
      pz      :     0.978671  p :     2.963994
      px      :     0.991988
      py      :     0.993335
      dz2     :     0.008706  d :     0.035924
      dxz     :     0.011105
      dyz     :     0.003861
      dx2y2   :     0.005965
      dxy     :     0.006287

 40 C s       :     3.152367  s :     3.152367
      pz      :     0.880800  p :     2.701251
      px      :     0.852990
      py      :     0.967461
      dz2     :     0.009151  d :     0.040276
      dxz     :     0.012281
      dyz     :     0.005286
      dx2y2   :     0.006445
      dxy     :     0.007114

 41 H s       :     0.864189  s :     0.864189

 42 H s       :     0.839748  s :     0.839748

 43 H s       :     0.859496  s :     0.859496

 44 H s       :     0.863959  s :     0.863959

 45 H s       :     0.850135  s :     0.850135

 46 H s       :     0.846019  s :     0.846019

 47 H s       :     0.853025  s :     0.853025

 48 H s       :     0.816274  s :     0.816274

 49 H s       :     0.827794  s :     0.827794

 50 H s       :     0.842710  s :     0.842710

 51 H s       :     0.851043  s :     0.851043

 52 H s       :     0.850866  s :     0.850866

 53 H s       :     0.843811  s :     0.843811

 54 H s       :     0.819036  s :     0.819036

 55 H s       :     0.830969  s :     0.830969

 56 H s       :     0.567735  s :     0.567735

 57 H s       :     0.826831  s :     0.826831

 58 H s       :     0.812880  s :     0.812880

 59 H s       :     0.806584  s :     0.806584

 60 H s       :     0.853316  s :     0.853316

 61 H s       :     0.848495  s :     0.848495

 62 H s       :     0.841200  s :     0.841200

 63 H s       :     0.857229  s :     0.857229

 64 H s       :     0.843696  s :     0.843696

 65 H s       :     0.862954  s :     0.862954

 66 H s       :     0.865410  s :     0.865410

 67 H s       :     0.860106  s :     0.860106



                     *******************************
                     * LOEWDIN POPULATION ANALYSIS *
                     *******************************

----------------------
LOEWDIN ATOMIC CHARGES
----------------------
   0 C :   -0.348509
   1 C :   -0.130064
   2 C :   -0.346319
   3 C :    0.048831
   4 N :   -0.145140
   5 C :    0.025648
   6 N :   -0.274163
   7 C :   -0.143501
   8 C :   -0.049825
   9 C :   -0.124604
  10 C :   -0.160169
  11 C :    0.086618
  12 O :   -0.158442
  13 C :    0.359240
  14 F :   -0.087758
  15 F :   -0.105130
  16 F :   -0.103773
  17 C :   -0.141836
  18 C :   -0.113814
  19 S :    1.269864
  20 O :   -0.566446
  21 O :   -0.579489
  22 C :   -0.166251
  23 C :   -0.101577
  24 C :   -0.100501
  25 C :   -0.040136
  26 C :    0.179103
  27 O :   -0.263986
[...]
      py      :     0.989266
      dz2     :     0.018151  d :     0.082817
      dxz     :     0.026070
      dyz     :     0.008125
      dx2y2   :     0.015897
      dxy     :     0.014574

 37 C s       :     2.916900  s :     2.916900
      pz      :     1.057942  p :     3.115584
      px      :     1.077971
      py      :     0.979671
      dz2     :     0.018718  d :     0.086916
      dxz     :     0.032004
      dyz     :     0.010046
      dx2y2   :     0.013171
      dxy     :     0.012977

 38 C s       :     2.916096  s :     2.916096
      pz      :     1.060230  p :     3.122114
      px      :     1.075448
      py      :     0.986436
      dz2     :     0.025377  d :     0.086838
      dxz     :     0.025299
      dyz     :     0.014194
      dx2y2   :     0.015057
      dxy     :     0.006911

 39 C s       :     2.916845  s :     2.916845
      pz      :     1.067245  p :     3.121317
      px      :     1.058791
      py      :     0.995280
      dz2     :     0.019366  d :     0.083670
      dxz     :     0.027992
      dyz     :     0.007089
      dx2y2   :     0.014929
      dxy     :     0.014294

 40 C s       :     2.862630  s :     2.862630
      pz      :     1.032924  p :     3.061336
      px      :     1.044287
      py      :     0.984125
      dz2     :     0.024682  d :     0.104560
      dxz     :     0.034810
      dyz     :     0.011940
      dx2y2   :     0.017192
      dxy     :     0.015936

 41 H s       :     0.878643  s :     0.878643

 42 H s       :     0.869569  s :     0.869569

 43 H s       :     0.877567  s :     0.877567

 44 H s       :     0.874687  s :     0.874687

 45 H s       :     0.874052  s :     0.874052

 46 H s       :     0.872729  s :     0.872729

 47 H s       :     0.873748  s :     0.873748

 48 H s       :     0.858536  s :     0.858536

 49 H s       :     0.856506  s :     0.856506

 50 H s       :     0.856160  s :     0.856160

 51 H s       :     0.859814  s :     0.859814

 52 H s       :     0.855005  s :     0.855005

 53 H s       :     0.854429  s :     0.854429

 54 H s       :     0.841761  s :     0.841761

 55 H s       :     0.847024  s :     0.847024

 56 H s       :     0.651373  s :     0.651373

 57 H s       :     0.842974  s :     0.842974

 58 H s       :     0.843042  s :     0.843042

 59 H s       :     0.844807  s :     0.844807

 60 H s       :     0.869002  s :     0.869002

 61 H s       :     0.867475  s :     0.867475

 62 H s       :     0.861319  s :     0.861319

 63 H s       :     0.870629  s :     0.870629

 64 H s       :     0.852112  s :     0.852112

 65 H s       :     0.863843  s :     0.863843

 66 H s       :     0.865240  s :     0.865240

 67 H s       :     0.862503  s :     0.862503



                      *****************************
                      * MAYER POPULATION ANALYSIS *
                      *****************************

  NA   - Mulliken gross atomic population
  ZA   - Total nuclear charge
  QA   - Mulliken gross atomic charge
  VA   - Mayer's total valence
  BVA  - Mayer's bonded valence
  FA   - Mayer's free valence

  ATOM       NA         ZA         QA         VA         BVA        FA
  0 C      6.4350     6.0000    -0.4350     3.8454     3.8454    -0.0000
  1 C      6.1303     6.0000    -0.1303     3.8809     3.8809    -0.0000
  2 C      6.4401     6.0000    -0.4401     3.8322     3.8322    -0.0000
  3 C      5.8117     6.0000     0.1883     3.8341     3.8341     0.0000
  4 N      7.4402     7.0000    -0.4402     2.9245     2.9245     0.0000
  5 C      5.7116     6.0000     0.2884     3.8786     3.8786    -0.0000
  6 N      7.5993     7.0000    -0.5993     2.7886     2.7886     0.0000
  7 C      6.2327     6.0000    -0.2327     3.8188     3.8188    -0.0000
  8 C      5.8717     6.0000     0.1283     3.9243     3.9243     0.0000
  9 C      6.1794     6.0000    -0.1794     3.9387     3.9387    -0.0000
 10 C      6.1863     6.0000    -0.1863     3.8993     3.8993    -0.0000
 11 C      5.6466     6.0000     0.3534     3.8091     3.8091    -0.0000
 12 O      8.5449     8.0000    -0.5449     1.9615     1.9615     0.0000
 13 C      4.9134     6.0000     1.0866     3.9920     3.9920    -0.0000
 14 F      9.2795     9.0000    -0.2795     1.0874     1.0874    -0.0000
 15 F      9.2916     9.0000    -0.2916     1.0647     1.0647     0.0000
 16 F      9.2902     9.0000    -0.2902     1.0701     1.0701     0.0000
 17 C      6.1800     6.0000    -0.1800     3.9122     3.9122    -0.0000
 18 C      6.1473     6.0000    -0.1473     3.9325     3.9325     0.0000
 19 S     14.7794    16.0000     1.2206     5.0663     5.0663    -0.0000
 20 O      8.5441     8.0000    -0.5441     1.8892     1.8892     0.0000
 21 O      8.5525     8.0000    -0.5525     1.8863     1.8863    -0.0000
 22 C      6.1134     6.0000    -0.1134     3.8406     3.8406    -0.0000
 23 C      6.1458     6.0000    -0.1458     3.9297     3.9297    -0.0000
 24 C      6.1447     6.0000    -0.1447     3.8711     3.8711     0.0000
 25 C      5.9154     6.0000     0.0846     3.9305     3.9305     0.0000
 26 C      5.4728     6.0000     0.5272     3.9564     3.9564     0.0000
 27 O      8.4485     8.0000    -0.4485     2.0642     2.0642     0.0000
 28 O      8.6246     8.0000    -0.6246     1.8660     1.8660    -0.0000
 29 C      6.1428     6.0000    -0.1428     3.9115     3.9115     0.0000
 30 C      6.1397     6.0000    -0.1397     3.9040     3.9040     0.0000
 31 C      5.9247     6.0000     0.0753     3.9506     3.9506     0.0000
 32 C      6.1745     6.0000    -0.1745     3.8204     3.8204    -0.0000
 33 C      6.3193     6.0000    -0.3193     3.7968     3.7968    -0.0000
 34 C      6.2972     6.0000    -0.2972     3.8154     3.8154    -0.0000
 35 C      5.8843     6.0000     0.1157     3.9768     3.9768    -0.0000
 36 C      6.1886     6.0000    -0.1886     3.8765     3.8765     0.0000
 37 C      6.1215     6.0000    -0.1215     3.9207     3.9207     0.0000
 38 C      6.1223     6.0000    -0.1223     3.9290     3.9290    -0.0000
 39 C      6.2130     6.0000    -0.2130     3.8953     3.8953    -0.0000
 40 C      5.8939     6.0000     0.1061     3.9545     3.9545    -0.0000
 41 H      0.8642     1.0000     0.1358     0.9366     0.9366    -0.0000
 42 H      0.8397     1.0000     0.1603     0.9435     0.9435     0.0000
 43 H      0.8595     1.0000     0.1405     0.9403     0.9403    -0.0000
 44 H      0.8640     1.0000     0.1360     0.9314     0.9314     0.0000
 45 H      0.8501     1.0000     0.1499     0.9385     0.9385     0.0000
 46 H      0.8460     1.0000     0.1540     0.9388     0.9388    -0.0000
 47 H      0.8530     1.0000     0.1470     0.9367     0.9367    -0.0000
 48 H      0.8163     1.0000     0.1837     0.9280     0.9280     0.0000
 49 H      0.8278     1.0000     0.1722     0.9332     0.9332    -0.0000
 50 H      0.8427     1.0000     0.1573     0.9421     0.9421    -0.0000
 51 H      0.8510     1.0000     0.1490     0.9505     0.9505    -0.0000
 52 H      0.8509     1.0000     0.1491     0.9367     0.9367    -0.0000
 53 H      0.8438     1.0000     0.1562     0.9487     0.9487     0.0000
 54 H      0.8190     1.0000     0.1810     0.9384     0.9384    -0.0000
 55 H      0.8310     1.0000     0.1690     0.9379     0.9379    -0.0000
 56 H      0.5677     1.0000     0.4323     0.7972     0.7972    -0.0000
 57 H      0.8268     1.0000     0.1732     0.9414     0.9414     0.0000
 58 H      0.8129     1.0000     0.1871     0.9435     0.9435    -0.0000
 59 H      0.8066     1.0000     0.1934     0.9359     0.9359    -0.0000
 60 H      0.8533     1.0000     0.1467     0.9436     0.9436    -0.0000
 61 H      0.8485     1.0000     0.1515     0.9470     0.9470    -0.0000
 62 H      0.8412     1.0000     0.1588     0.9423     0.9423     0.0000
 63 H      0.8572     1.0000     0.1428     0.9514     0.9514     0.0000
 64 H      0.8437     1.0000     0.1563     0.9415     0.9415    -0.0000
 65 H      0.8630     1.0000     0.1370     0.9364     0.9364    -0.0000
 66 H      0.8654     1.0000     0.1346     0.9368     0.9368     0.0000
 67 H      0.8601     1.0000     0.1399     0.9411     0.9411    -0.0000

  Mayer bond orders larger than 0.100000
B(  0-C ,  1-C ) :   1.0025 B(  0-C , 41-H ) :   0.9433 B(  0-C , 42-H ) :   0.9373 
B(  0-C , 43-H ) :   0.9475 B(  1-C ,  2-C ) :   0.9946 B(  1-C ,  3-C ) :   0.9852 
B(  1-C , 44-H ) :   0.9197 B(  2-C , 45-H ) :   0.9430 B(  2-C , 46-H ) :   0.9424 
B(  2-C , 47-H ) :   0.9442 B(  3-C ,  4-N ) :   1.4265 B(  3-C , 40-C ) :   1.2298 
B(  4-N ,  5-C ) :   1.2689 B(  5-C ,  6-N ) :   0.9157 B(  5-C , 31-C ) :   1.4298 
B(  6-N ,  7-C ) :   0.9069 B(  6-N , 19-S ) :   0.7998 B(  7-C ,  8-C ) :   0.9562 
B(  7-C , 48-H ) :   0.9196 B(  7-C , 49-H ) :   0.9206 B(  8-C ,  9-C ) :   1.4382 
B(  8-C , 18-C ) :   1.4305 B(  9-C , 10-C ) :   1.4178 B(  9-C , 50-H ) :   0.9141 
B( 10-C , 11-C ) :   1.3986 B( 10-C , 51-H ) :   0.9100 B( 11-C , 12-O ) :   0.8223 
B( 11-C , 17-C ) :   1.4072 B( 12-O , 13-C ) :   0.9924 B( 13-C , 14-F ) :   1.0076 
B( 13-C , 15-F ) :   0.9683 B( 13-C , 16-F ) :   0.9618 B( 17-C , 18-C ) :   1.4402 
B( 17-C , 52-H ) :   0.9184 B( 18-C , 53-H ) :   0.9057 B( 19-S , 20-O ) :   1.6488 
B( 19-S , 21-O ) :   1.6207 B( 19-S , 22-C ) :   0.8120 B( 22-C , 23-C ) :   1.4046 
B( 22-C , 30-C ) :   1.3786 B( 23-C , 24-C ) :   1.4097 B( 23-C , 54-H ) :   0.9106 
B( 24-C , 25-C ) :   1.3873 B( 24-C , 55-H ) :   0.9150 B( 25-C , 26-C ) :   1.0089 
B( 25-C , 29-C ) :   1.3968 B( 26-C , 27-O ) :   1.8596 B( 26-C , 28-O ) :   1.0194 
B( 28-O , 56-H ) :   0.7430 B( 29-C , 30-C ) :   1.4337 B( 29-C , 57-H ) :   0.9110 
B( 30-C , 58-H ) :   0.8922 B( 31-C , 32-C ) :   1.0350 B( 31-C , 35-C ) :   1.2545 
B( 32-C , 33-C ) :   0.9200 B( 32-C , 34-C ) :   0.9355 B( 32-C , 59-H ) :   0.9041 
B( 33-C , 34-C ) :   0.9588 B( 33-C , 60-H ) :   0.9433 B( 33-C , 61-H ) :   0.9423 
B( 34-C , 62-H ) :   0.9408 B( 34-C , 63-H ) :   0.9411 B( 35-C , 36-C ) :   1.2959 
B( 35-C , 40-C ) :   1.2755 B( 36-C , 37-C ) :   1.5048 B( 36-C , 39-C ) :   0.1046 
B( 36-C , 64-H ) :   0.9094 B( 37-C , 38-C ) :   1.3545 B( 37-C , 65-H ) :   0.9289 
B( 38-C , 39-C ) :   1.5125 B( 38-C , 66-H ) :   0.9291 B( 39-C , 40-C ) :   1.2877 
B( 39-C , 67-H ) :   0.9160 

-------
TIMINGS
-------

Total SCF time: 0 days 0 hours 15 min 19 sec 

Total time                  ....     919.944 sec
Sum of individual times     ....     919.455 sec  ( 99.9%)

SCF preparation             ....       0.463 sec  (  0.1%)
Fock matrix formation       ....     914.834 sec  ( 99.4%)
  Startup                   ....       0.111 sec  (  0.0% of F)
  Split-RI-J                ....     129.633 sec  ( 14.2% of F)
  Chain of spheres X        ....     713.640 sec  ( 78.0% of F)
  XC integration            ....      69.436 sec  (  7.6% of F)
    XC Preparation          ....       0.000 sec  (  0.0% of XC)
    Basis function eval.    ....      26.415 sec  ( 38.0% of XC)
    Density eval.           ....      18.649 sec  ( 26.9% of XC)
    XC-Functional eval.     ....       2.855 sec  (  4.1% of XC)
    XC-Potential eval.      ....      18.175 sec  ( 26.2% of XC)
Diagonalization             ....       0.000 sec  (  0.0%)
Density matrix formation    ....       0.596 sec  (  0.1%)
Total Energy calculation    ....       0.100 sec  (  0.0%)
Population analysis         ....       0.118 sec  (  0.0%)
Orbital Transformation      ....       0.388 sec  (  0.0%)
Orbital Orthonormalization  ....       0.000 sec  (  0.0%)
DIIS solution               ....       1.542 sec  (  0.2%)
SOSCF solution              ....       1.414 sec  (  0.2%)
Finished LeanSCF after 920.0 sec

Maximum memory used throughout the entire LEANSCF-calculation: 128.2 MB

-------------------------   --------------------
FINAL SINGLE POINT ENERGY     -2341.491494292120
-------------------------   --------------------


------------------------------------------------------------------------------
                              ORCA PROPERTY CALCULATIONS
------------------------------------------------------------------------------

GBWName                                 ... /home/nmrbox/aojoawo/Documents/ERDOS/inputs/CHEMBL3687402.gbw
Number of atoms                         ...     68
Number of basis functions               ...    632
Max core memory                         ...   1024 MB

Electric properties:
Dipole moment                           ... YES
Quadrupole moment                       ...  NO
Static polarizability (Dipole/Dipole)   ...  NO
Static polarizability (Dipole/Quad.)    ...  NO
Static polarizability (Quad./Quad.)     ...  NO
Static polarizability (Velocity)        ...  NO

Atomic electric properties:
Dipole moment                           ...  NO
Quadrupole moment                       ...  NO
Static polarizability                   ...  NO

Choice of electric origin               ... Center of mass
Position of electric origin             ...     1.430289    -0.307533     0.561862

General magnetic properties:
Magnetizability                         ...  NO

EPR properties:
g-Tensor (aka g-matrix)                 ...  NO
Zero-Field splitting spin-orbit         ...  NO
Zero-field splitting spin-spin          ...  NO
Hyperfine couplings                     ...  NO (   0 nuclei)
Quadrupole couplings                    ...  NO (   0 nuclei)
Contact density                         ...  NO (   0 nuclei)

NMR properties:
Chemical shifts                         ...  NO (   0 nuclei)
Spin-rotation constants                 ...  NO (   0 nuclei)
Spin-spin couplings                     ...  NO (   0 nuclei,    0 pairs)

Choice of magnetic origin               ... GIAO
Position of magnetic origin             ...     0.000000     0.000000     0.000000

Properties with geometric perturbations:
SCF Hessian                             ...  NO
IR spectrum                             ...  NO
VCD spectrum                            ...  NO
X-ray spectroscopy properties:
SCF XES/XAS/RIXS spectra                ...  NO


-------------
DIPOLE MOMENT
-------------

Method             : SCF
Type of density    : Electron Density
Multiplicity       :   1
Irrep              :   0
Energy             : -2341.4914942921200236 Eh
Relativity type    : 
Basis              : AO
                                X                 Y                 Z
Electronic contribution:     53.616340982      -4.598398011      24.956298330
Nuclear contribution   :    -54.669722808       5.536866745     -25.001216277
                        -----------------------------------------
Total Dipole Moment    :     -1.053381826       0.938468734      -0.044917947
                        -----------------------------------------
Magnitude (a.u.)       :      1.411507867
Magnitude (Debye)      :      3.587767873



--------------------
Rotational spectrum 
--------------------
 
Rotational constants in cm-1:             0.005227             0.001690             0.001579 
Rotational constants in MHz :           156.687648            50.652501            47.333808 

Dipole components along the rotational axes: 
x,y,z [a.u.] :     0.890244     0.667744    -0.868296 
x,y,z [Debye]:     2.262821     1.697271    -2.207033 

 

Dipole moment calculation done in   0.0 sec 

Maximum memory used throughout the entire PROP-calculation: 63.5 MB

--------------------------------
SUGGESTED CITATIONS FOR THIS RUN
--------------------------------

Below you find a list of papers that are relevant to this ORCA run
We neither can nor want to force you to cite these papers, but we appreciate if you do
You receive ORCA, which is the product of decades of hard work by many enthusiastic individuals, for free
The only thing we kindly ask in return is that you cite our papers,
We deeply appreciate it, if you show your appreciation for ORCA by not just citing the generic ORCA reference.

Please note that relegating all ORCA citations to the supporting information does *not* help us.
SI sections are not indexed - citations you put there will not count into any citation statistics
But we need these citations in order to attract the funding resources that allow us to do what we are doing

Therefore, if you are a happy ORCA user, please consider citing a few of the papers listed below in the main body of your paper

In addition to the list printed below, the program has created the file /home/nmrbox/aojoawo/Documents/ERDOS/inputs/CHEMBL3687402.bibtex that contains the list in bibtex format
You can import this file easily into all common literature databanks and citation aid programs


List of essential papers. We consider these as the minimum necessary citations

  1. Neese,F.
     Software update: the ORCA program system, version 5.0
     WIRES Comput. Molec. Sci., 2022 12(1)e1606
     doi.org/10.1002/wcms.1606

List of papers to cite with high priority. The work reported in these papers was absolutely
necessary for this run to complete.
Our perspective: the developers of density functionals and basis sets usually get cited in chemistry papers
Good! But without the algorithms to do something with them, the functionals or basis sets would not do anything.
Hence, in our opinion, the algorithm design and method developments papers are equally worthy of getting cited

  1. Neese,F.
     An improvement of the resolution of the identity approximation for the formation of the Coulomb matrix
     J. Comp. Chem., 2003 24(14)1740-1747
     doi.org/10.1002/jcc.10318
  2. Neese,F.; Wennmohs,F.; Hansen,A.; Becker,U.
     Efficient, approximate and parallel Hartree-Fock and hybrid DFT calculations. A 'chain-of-spheres' algorithm for the Hartree-Fock exchange
     Chem. Phys., 2009 356(1-3)98-109
     doi.org/10.1016/j.chemphys.2008.10.036
  3. Helmich-Paris,B.; de Souza,B.; Neese,F.; Izsák,R.
     An improved chain of spheres for exchange algorithm
     J. Chem. Phys., 2021 155 104109
     doi.org/doi: 10.1063/5.0058766.
  4. Neese,F.
     The SHARK Integral Generation and Digestion System
     J. Comp. Chem., 2022  1-16
     doi.org/10.1002/jcc.26942

List of suggested additional citations. These are papers that are important in the 'surrounding' of 
of this run, or papers that preceded the highly important papers. If you like your results we are grateful for a citation.

  1. Izsak,R.; Neese,F.
     An overlap fitted chain of spheres exchange method
     J. Chem. Phys., 2011 135 144105
     doi.org/10.1063/1.3646921
  2. Izsak,R.; Hansen,A.; Neese,F.
     The resolution of identity and chain of spheres approximations for the LPNO-CCSD singles Fock term
     Molec. Phys., 2012 110 2413-2417
     doi.org/10.1080/00268976.2012.687466
  3. Neese,F.
     The ORCA program system
     WIRES Comput. Molec. Sci., 2012 2(1)73-78
     doi.org/10.1002/wcms.81
  4. Izsak,R.; Neese,F.; Klopper,W.
     Robust fitting techniques in the chain of spheres approximation to the Fock exchange: The role of the complementary space
     J. Chem. Phys., 2013 139 
     doi.org/10.1063/1.4819264
  5. Neese,F.
     Software update: the ORCA program system, version 4.0
     WIRES Comput. Molec. Sci., 2018 8(1)1-6
     doi.org/10.1002/wcms.1327
  6. Neese,F.; Wennmohs,F.; Becker,U.; Riplinger,C.
     The ORCA quantum chemistry program package
     J. Chem. Phys., 2020 152 Art. No. L224108
     doi.org/10.1063/5.0004608

List of optional additional citations

  1. Neese,F.
     Approximate second-order SCF convergence for spin unrestricted wavefunctions
     Chem. Phys. Lett., 2000 325(1-3)93-98
     doi.org/10.1016/s0009-2614(00)00662-x

Timings for individual modules:

Sum of individual times          ...      957.240 sec (=  15.954 min)
Startup calculation              ...       23.331 sec (=   0.389 min)   2.4 %
SCF iterations                   ...      933.599 sec (=  15.560 min)  97.5 %
Property calculations            ...        0.311 sec (=   0.005 min)   0.0 %
                             ****ORCA TERMINATED NORMALLY****
TOTAL RUN TIME: 0 days 0 hours 15 minutes 58 seconds 639 msec
