
                                 *****************
                                 * O   R   C   A *
                                 *****************

                                            #,                                       
                                            ###                                      
                                            ####                                     
                                            #####                                    
                                            ######                                   
                                           ########,                                 
                                     ,,################,,,,,                         
                               ,,#################################,,                 
                          ,,##########################################,,             
                       ,#########################################, ''#####,          
                    ,#############################################,,   '####,        
                  ,##################################################,,,,####,       
                ,###########''''           ''''###############################       
              ,#####''   ,,,,##########,,,,          '''####'''          '####       
            ,##' ,,,,###########################,,,                        '##       
           ' ,,###''''                  '''############,,,                           
         ,,##''                                '''############,,,,        ,,,,,,###''
      ,#''                                            '''#######################'''  
     '                                                          ''''####''''         
             ,#######,   #######,   ,#######,      ##                                
            ,#'     '#,  ##    ##  ,#'     '#,    #''#        ,####,   ,####,        
            ##       ##  ##   ,#'  ##            #'  '#       #'       #'  '#        
            ##       ##  #######   ##           ,######,      #####,   #    #        
            '#,     ,#'  ##    ##  '#,     ,#' ,#      #,     #,   #   #,  ,#        
             '#######'   ##     ##  '#######'  #'      '#     '####' # '####'        



                #########################################################
                #                        -***-                          #
                #          Department of theory and spectroscopy        #
                #                                                       #
                #                      Frank Neese                      #
                #                                                       #
                #     Directorship, Architecture, Infrastructure        #
                #                    SHARK, DRIVERS                     #
                #        Core code/Algorithms in most modules           #
                #                                                       #
                #        Max Planck Institute fuer Kohlenforschung      #
                #                Kaiser Wilhelm Platz 1                 #
                #                 D-45470 Muelheim/Ruhr                 #
                #                      Germany                          #
                #                                                       #
                #                  All rights reserved                  #
                #                        -***-                          #
                #########################################################


                         Program Version 6.0.0  -   RELEASE  -


 With contributions from (in alphabetic order):
   Daniel Aravena         : Magnetic Suceptibility
   Michael Atanasov       : Ab Initio Ligand Field Theory (pilot matlab implementation)
   Alexander A. Auer      : GIAO ZORA, VPT2 properties, NMR spectrum
   Ute Becker             : All parallelization in ORCA, NUMFREQ, NUMCALC
   Giovanni Bistoni       : ED, misc. LED, open-shell LED, HFLD
   Martin Brehm           : Molecular dynamics
   Dmytro Bykov           : pre 5.0 version of the SCF Hessian
   Marcos Casanova-Páez   : Triplet and SCS-CIS(D). UHF-(DLPNO)-IP/EA/STEOM-CCSD. UHF-CVS-IP/STEOM-CCSD
   Vijay G. Chilkuri      : MRCI spin determinant printing, contributions to CSF-ICE
   Pauline Colinet        : FMM embedding
   Dipayan Datta          : RHF DLPNO-CCSD density
   Achintya Kumar Dutta   : EOM-CC, STEOM-CC
   Nicolas Foglia         : Exact transition moments, OPA infrastructure, MCD improvements
   Dmitry Ganyushin       : Spin-Orbit,Spin-Spin,Magnetic field MRCI
   Miquel Garcia          : C-PCM and meta-GGA Hessian, CCSD/C-PCM, Gaussian charge scheme
   Tiago L. C. Gouveia    : GS-ROHF, GS-ROCIS
   Yang Guo               : DLPNO-NEVPT2, F12-NEVPT2, CIM, IAO-localization
   Andreas Hansen         : Spin unrestricted coupled pair/coupled cluster methods
   Ingolf Harden          : AUTO-CI MPn and infrastructure 
   Benjamin Helmich-Paris : MC-RPA, TRAH-(SCF,CASSCF), AVAS, COSX integrals, SCF dyn. polar.
   Lee Huntington         : MR-EOM, pCC
   Robert Izsak           : Overlap fitted RIJCOSX, COSX-SCS-MP3, EOM
   Riya Kayal             : Wick's Theorem for AUTO-CI, AUTO-CI UHF-CCSDT
   Emily Kempfer          : AUTO-CI, RHF CISDT and CCSDT
   Christian Kollmar      : KDIIS, OOCD, Brueckner-CCSD(T), CCSD density, CASPT2, CASPT2-K, improved NEVPT2
   Axel Koslowski         : Symmetry handling
   Simone Kossmann        : Meta GGA functionals, TD-DFT gradient, OOMP2, (MP2 Hessian; deprecated post 5.0)
   Lucas Lang             : DCDCAS
   Marvin Lechner         : AUTO-CI (C++ implementation), FIC-MRCC
   Spencer Leger          : CASSCF response
   Dagmar Lenk            : GEPOL surface, SMD, ORCA-2-JSON
   Dimitrios Liakos       : Extrapolation schemes; Compound Job, initial MDCI parallelization
   Dimitrios Manganas     : Further ROCIS development; embedding schemes. LFT, Crystal Embedding
   Dimitrios Pantazis     : SARC Basis sets
   Anastasios Papadopoulos: AUTO-CI, single reference methods and gradients
   Taras Petrenko         : pre 6.0 DFT Hessian and TD-DFT gradient, (ASA, deprecated), ECA, 1-Electron XAS/XES, NRVS
   Peter Pinski           : DLPNO-MP2, DLPNO-MP2 Gradient
   Christoph Reimann      : Effective Core Potentials
   Marius Retegan         : Local ZFS, SOC
   Christoph Riplinger    : Optimizer, TS searches, QM/MM, DLPNO-CCSD(T), (RO)-DLPNO pert. Triples
   Michael Roemelt        : Original ROCIS implementation
   Masaaki Saitow         : Open-shell DLPNO-CCSD energy and density
   Barbara Sandhoefer     : DKH picture change effects
   Kantharuban Sivalingam : CASSCF convergence/infrastructure, NEVPT2 and variants, FIC-MRCI
   Bernardo de Souza      : ESD, SOC TD-DFT
   Georgi Stoychev        : AutoAux, RI-MP2 NMR, DLPNO-MP2 response, X2C
   Van Anh Tran           : RI-MP2 g-tensors
   Willem Van den Heuvel  : Paramagnetic NMR
   Zikuan Wang            : NOTCH, Electric field optimization 
   Frank Wennmohs         : Technical directorship and infrastructure
   Hang Xu                : AUTO-CI-Response properties 


 We gratefully acknowledge several colleagues who have allowed us to
 interface, adapt or use parts of their codes:
   Stefan Grimme, W. Hujo, H. Kruse, P. Pracht,  : VdW corrections, initial TS optimization,
                  C. Bannwarth, S. Ehlert,         DFT functionals, gCP, sTDA/sTD-DF
                  L. Wittmann, M. Mueller
   Ed Valeev, F. Pavosevic, A. Kumar             : LibInt (2-el integral package), F12 methods
   Garnet Chan, S. Sharma, J. Yang, R. Olivares  : DMRG
   Ulf Ekstrom                                   : XCFun DFT Library
   Mihaly Kallay                                 : mrcc  (arbitrary order and MRCC methods)
   Frank Weinhold                                : gennbo (NPA and NBO analysis)
   Simon Mueller                                 : openCOSMO-RS
   Christopher J. Cramer and Donald G. Truhlar   : smd solvation model
   Lars Goerigk                                  : TD-DFT with DH, B97 family of functionals
   V. Asgeirsson, H. Jonsson                     : NEB implementation
   FAccTs GmbH                                   : IRC, NEB, NEB-TS, DLPNO-Multilevel, CI-OPT
                                                   MM, QMMM, 2- and 3-layer-ONIOM, Crystal-QMMM,
                                                   LR-CPCM, SF, NACMEs, symmetry and pop. for TD-DFT,
                                                   nearIR, NL-DFT gradient (VV10), updates on ESD,
                                                   ML-optimized integration grids, MBIS, APM,
                                                   GOAT, DOCKER, SOLVATOR, interface openCOSMO-RS
   S Lehtola, MJT Oliveira, MAL Marques          : LibXC Library
   Liviu Ungur et al                             : ANISO software


 Your calculation uses the libint2 library for the computation of 2-el integrals
 For citations please refer to: http://libint.valeyev.net

 Your ORCA version has been built with support for libXC version: 6.2.2
 For citations please refer to: https://libxc.gitlab.io

 This ORCA versions uses:
   CBLAS   interface :  Fast vector & matrix operations
   LAPACKE interface :  Fast linear algebra routines
   SCALAPACK package :  Parallel linear algebra routines
   Shared memory     :  Shared parallel matrices
   BLAS/LAPACK       :  OpenBLAS 0.3.27  USE64BITINT DYNAMIC_ARCH NO_AFFINITY SkylakeX SINGLE_THREADED
        Core in use  :  SkylakeX
   Copyright (c) 2011-2014, The OpenBLAS Project


Warning: RI is on but no J-basis has been assigned. Assigning Def2/J (nothing to worry about!)
================================================================================

----- Orbital basis set information -----
Your calculation utilizes the basis: 6-31G*
   H-He, Li-Ne : W. J. Hehre, R. Ditchfield and J.A. Pople, J. Chem. Phys. 56, 2257 (1972).
                 Note: He and Ne are unpublished basis sets taken from the Gaussian program.
                 Note: Li and B from J. D. Dill and J. A. Pople, J. Chem. Phys. 62, 2921 (1975).
   Na - Ar     : M. M. Francl, W. J. Pietro, W. J. Hehre, J. S. Binkley, M. S. Gordon, 
                 D. J. DeFrees and J. A. Pople, J. Chem. Phys. 77, 3654 (1982).
   K - Zn      : V. A. Rassolov, J. A. Pople, M. A. Ratner, and T. L. Windus, J. Chem. Phys. 109, 1223 (1998).

----- AuxJ basis set information -----
Your calculation utilizes the auxiliary basis: def2/J
   F. Weigend, Phys. Chem. Chem. Phys. 8, 1057 (2006).

================================================================================
                                        WARNINGS
                       Please study these warnings very carefully!
================================================================================


================================================================================
                                       INPUT FILE
================================================================================
NAME = /home/nmrbox/aojoawo/Documents/ERDOS/inputs/CHEMBL422704.inp
|  1> ! B3LYP 6-31G* SP
|  2> 
|  3> * xyz 0 1
|  4> C 7.7329 0.1569 -1.1773
|  5> C 7.0559 -1.2085 -1.3181
|  6> C 6.1336 -1.5393 -0.1343
|  7> C 4.8489 -0.6977 -0.1364
|  8> C 3.9153 -1.1211 1.0040
|  9> C 2.6586 -0.2927 0.9931
| 10> C 2.6138 0.9318 1.6797
| 11> C 1.4604 1.7293 1.6381
| 12> O 1.4258 2.9432 2.3218
| 13> C 0.3436 1.2985 0.9019
| 14> C 0.3882 0.0773 0.2162
| 15> C 1.5424 -0.7095 0.2494
| 16> O -0.7232 -0.3369 -0.5244
| 17> C -2.0349 0.2192 -0.3429
| 18> C -2.7405 0.1742 -1.7048
| 19> C -2.7658 -0.6470 0.7207
| 20> C -4.2328 -0.2627 1.0114
| 21> C -5.1864 -0.8216 -0.0229
| 22> C -6.3764 -0.2539 -0.3372
| 23> C -6.8430 1.0385 0.2943
| 24> C -7.2756 -0.9102 -1.3547
| 25> C -1.9453 1.6637 0.1293
| 26> C -0.8669 2.1287 0.7671
| 27> H 6.9892 0.9780 -1.2536
| 28> H 8.4732 0.2864 -1.9944
| 29> H 8.2652 0.2279 -0.2037
| 30> H 7.8491 -1.9863 -1.3700
| 31> H 6.4854 -1.2457 -2.2731
| 32> H 6.6824 -1.3945 0.8235
| 33> H 5.8579 -2.6151 -0.2038
| 34> H 5.1043 0.3763 -0.0105
| 35> H 4.3236 -0.8250 -1.1089
| 36> H 4.4371 -0.9979 1.9800
| 37> H 3.6570 -2.1995 0.9012
| 38> H 3.4778 1.2697 2.2401
| 39> H 2.2202 3.2743 2.8566
| 40> H 1.5692 -1.6422 -0.3009
| 41> H -2.9070 -0.8782 -2.0203
| 42> H -2.1094 0.6696 -2.4734
| 43> H -3.7153 0.7056 -1.6749
| 44> H -2.7092 -1.7189 0.4288
| 45> H -2.2008 -0.5642 1.6758
| 46> H -4.5222 -0.6959 1.9947
| 47> H -4.3202 0.8391 1.1064
| 48> H -4.9142 -1.7694 -0.4890
| 49> H -6.8742 0.9321 1.4011
| 50> H -7.8650 1.3084 -0.0563
| 51> H -6.1560 1.8675 0.0111
| 52> H -6.8406 -1.8530 -1.7578
| 53> H -8.2556 -1.1496 -0.8846
| 54> H -7.4424 -0.2110 -2.2040
| 55> H -2.8086 2.3114 0.0327
| 56> H -0.8792 3.1400 1.1546
| 57> *
| 58> 
| 59>                          ****END OF INPUT****
================================================================================

                       ****************************
                       * Single Point Calculation *
                       ****************************

---------------------------------
CARTESIAN COORDINATES (ANGSTROEM)
---------------------------------
  C      7.732900    0.156900   -1.177300
  C      7.055900   -1.208500   -1.318100
  C      6.133600   -1.539300   -0.134300
  C      4.848900   -0.697700   -0.136400
  C      3.915300   -1.121100    1.004000
  C      2.658600   -0.292700    0.993100
  C      2.613800    0.931800    1.679700
  C      1.460400    1.729300    1.638100
  O      1.425800    2.943200    2.321800
  C      0.343600    1.298500    0.901900
  C      0.388200    0.077300    0.216200
  C      1.542400   -0.709500    0.249400
  O     -0.723200   -0.336900   -0.524400
  C     -2.034900    0.219200   -0.342900
  C     -2.740500    0.174200   -1.704800
  C     -2.765800   -0.647000    0.720700
  C     -4.232800   -0.262700    1.011400
  C     -5.186400   -0.821600   -0.022900
  C     -6.376400   -0.253900   -0.337200
  C     -6.843000    1.038500    0.294300
  C     -7.275600   -0.910200   -1.354700
  C     -1.945300    1.663700    0.129300
  C     -0.866900    2.128700    0.767100
  H      6.989200    0.978000   -1.253600
  H      8.473200    0.286400   -1.994400
  H      8.265200    0.227900   -0.203700
  H      7.849100   -1.986300   -1.370000
  H      6.485400   -1.245700   -2.273100
  H      6.682400   -1.394500    0.823500
  H      5.857900   -2.615100   -0.203800
  H      5.104300    0.376300   -0.010500
  H      4.323600   -0.825000   -1.108900
  H      4.437100   -0.997900    1.980000
  H      3.657000   -2.199500    0.901200
  H      3.477800    1.269700    2.240100
  H      2.220200    3.274300    2.856600
  H      1.569200   -1.642200   -0.300900
  H     -2.907000   -0.878200   -2.020300
  H     -2.109400    0.669600   -2.473400
  H     -3.715300    0.705600   -1.674900
  H     -2.709200   -1.718900    0.428800
  H     -2.200800   -0.564200    1.675800
  H     -4.522200   -0.695900    1.994700
  H     -4.320200    0.839100    1.106400
  H     -4.914200   -1.769400   -0.489000
  H     -6.874200    0.932100    1.401100
  H     -7.865000    1.308400   -0.056300
  H     -6.156000    1.867500    0.011100
  H     -6.840600   -1.853000   -1.757800
  H     -8.255600   -1.149600   -0.884600
  H     -7.442400   -0.211000   -2.204000
  H     -2.808600    2.311400    0.032700
  H     -0.879200    3.140000    1.154600

----------------------------
CARTESIAN COORDINATES (A.U.)
----------------------------
  NO LB      ZA    FRAG     MASS         X           Y           Z
   0 C     6.0000    0    12.011   14.613063    0.296498   -2.224775
   1 C     6.0000    0    12.011   13.333719   -2.283734   -2.490848
   2 C     6.0000    0    12.011   11.590824   -2.908855   -0.253790
   3 C     6.0000    0    12.011    9.163093   -1.318462   -0.257759
   4 C     6.0000    0    12.011    7.398845   -2.118572    1.897285
   5 C     6.0000    0    12.011    5.024026   -0.553123    1.876687
   6 C     6.0000    0    12.011    4.939366    1.760847    3.174173
   7 C     6.0000    0    12.011    2.759756    3.267903    3.095560
   8 O     8.0000    0    15.999    2.694372    5.561842    4.387566
   9 C     6.0000    0    12.011    0.649310    2.453809    1.704344
  10 C     6.0000    0    12.011    0.733592    0.146076    0.408559
  11 C     6.0000    0    12.011    2.914714   -1.340761    0.471298
  12 O     8.0000    0    15.999   -1.366650   -0.636649   -0.990972
  13 C     6.0000    0    12.011   -3.845404    0.414228   -0.647987
  14 C     6.0000    0    12.011   -5.178794    0.329190   -3.221605
  15 C     6.0000    0    12.011   -5.226605   -1.222653    1.361926
  16 C     6.0000    0    12.011   -7.998833   -0.496431    1.911269
  17 C     6.0000    0    12.011   -9.800876   -1.552599   -0.043275
  18 C     6.0000    0    12.011  -12.049650   -0.479801   -0.637216
  19 C     6.0000    0    12.011  -12.931396    1.962481    0.556146
  20 C     6.0000    0    12.011  -13.748891   -1.720029   -2.560012
  21 C     6.0000    0    12.011   -3.676084    3.143937    0.244342
  22 C     6.0000    0    12.011   -1.638204    4.022660    1.449609
  23 H     1.0000    0     1.008   13.207674    1.848152   -2.368961
  24 H     1.0000    0     1.008   16.012027    0.541218   -3.768870
  25 H     1.0000    0     1.008   15.618964    0.430669   -0.384937
  26 H     1.0000    0     1.008   14.832649   -3.753563   -2.588925
  27 H     1.0000    0     1.008   12.255630   -2.354032   -4.295536
  28 H     1.0000    0     1.008   12.627906   -2.635223    1.556189
  29 H     1.0000    0     1.008   11.069827   -4.941823   -0.385126
  30 H     1.0000    0     1.008    9.645729    0.711104   -0.019842
  31 H     1.0000    0     1.008    8.170420   -1.559024   -2.095517
  32 H     1.0000    0     1.008    8.384904   -1.885758    3.741658
  33 H     1.0000    0     1.008    6.910728   -4.156453    1.703021
  34 H     1.0000    0     1.008    6.572090    2.399385    4.233176
  35 H     1.0000    0     1.008    4.195570    6.187530    5.398192
  36 H     1.0000    0     1.008    2.965358   -3.103308   -0.568619
  37 H     1.0000    0     1.008   -5.493434   -1.659557   -3.817814
  38 H     1.0000    0     1.008   -3.986188    1.265361   -4.674049
  39 H     1.0000    0     1.008   -7.020900    1.333391   -3.165102
  40 H     1.0000    0     1.008   -5.119646   -3.248250    0.810315
  41 H     1.0000    0     1.008   -4.158909   -1.066183    3.166803
  42 H     1.0000    0     1.008   -8.545720   -1.315060    3.769437
  43 H     1.0000    0     1.008   -8.163995    1.585669    2.090793
  44 H     1.0000    0     1.008   -9.286492   -3.343681   -0.924076
  45 H     1.0000    0     1.008  -12.990355    1.761414    2.647695
  46 H     1.0000    0     1.008  -14.862696    2.472518   -0.106392
  47 H     1.0000    0     1.008  -11.633154    3.529064    0.020976
  48 H     1.0000    0     1.008  -12.926861   -3.501663   -3.321761
  49 H     1.0000    0     1.008  -15.600823   -2.172429   -1.671652
  50 H     1.0000    0     1.008  -14.064098   -0.398732   -4.164956
  51 H     1.0000    0     1.008   -5.307485    4.367913    0.061794
  52 H     1.0000    0     1.008   -1.661447    5.933740    2.181878

--------------------------------
INTERNAL COORDINATES (ANGSTROEM)
--------------------------------
 C      0   0   0     0.000000000000     0.00000000     0.00000000
 C      1   0   0     1.530513247247     0.00000000     0.00000000
 C      2   1   0     1.536700481551   112.74659840     0.00000000
 C      3   2   1     1.535821949316   112.52157571    71.74655126
 C      4   3   2     1.533423842256   110.91370166   176.24724665
 C      5   4   3     1.505211035038   110.54657782   180.07793143
 C      6   5   4     1.404573547380   120.19114244   272.42539484
 C      7   6   5     1.402878601305   120.48553989   177.93619243
 O      8   7   6     1.393626944343   120.06791434   180.04707730
 C      8   7   6     1.405283359327   119.64688352   359.91466458
 C     10   8   7     1.401250545049   119.88311386     0.04981158
 C     11  10   8     1.397259503457   120.35872964   359.37496008
 O     11  10   8     1.398306103827   119.47441964   180.62309482
 C     13  11  10     1.436226427135   122.97543926   342.40373139
 C     14  13  11     1.534492740289   107.24413134   148.46645431
 C     14  13  11     1.554272244493   107.46796359   269.06685304
 C     16  14  13     1.544112036091   115.90601824   183.19243708
 C     17  16  14     1.513769685256   112.20790385    80.97076275
 C     18  17  16     1.355421624440   123.83938493   207.15613692
 C     19  18  17     1.512218757323   122.14173709     2.24661315
 C     19  18  17     1.508176574543   119.84345346   181.78538054
 C     14  13  11     1.522360420531   110.66095025    29.35377444
 C     22  14  13     1.336398293923   121.71406235   336.04746446
 H      1   2   3     1.110457829006   110.92167674   292.37562736
 H      1   2   3     1.110165190411   109.34896529   173.31501231
 H      1   2   3     1.111881850738   110.44350488    53.95134493
 H      2   1   3     1.112129799079   108.22426669   240.27135966
 H      2   1   3     1.113049455325   109.60111536   123.21114979
 H      3   2   1     1.113341510948   109.80883416   308.84806336
 H      3   2   1     1.112738235166   107.98155601   191.85105155
 H      4   3   2     1.111105742043   109.70933894   296.49277192
 H      4   3   2     1.112610277680   109.47723295    55.51652071
 H      5   4   3     1.113566109398   109.63235840    59.05067426
 H      5   4   3     1.113657617942   109.87292154   301.41011463
 H      7   6   5     1.083845270322   119.94142543   358.43468115
 H      9   8   7     1.013266800996   121.60714464     0.03199009
 H     12  11  10     1.083271720299   119.55102465   181.16377464
 H     15  14  13     1.111219267292   110.40535859    65.64807267
 H     15  14  13     1.111060002880   109.85859969   306.49551090
 H     15  14  13     1.110637208993   111.44833689   187.22249109
 H     16  14  13     1.112375287392   109.48298406   307.93622063
 H     16  14  13     1.112787872867   107.88496470    62.53907087
 H     17  16  14     1.112786363144   108.45437573   199.23307794
 H     17  16  14     1.109336288057   109.76503888   315.67677584
 H     18  17  16     1.090718520059   117.10366697    31.05552604
 H     20  19  18     1.112340163799   110.02458205   302.57640293
 H     20  19  18     1.113665286341   111.02735629   182.94793750
 H     20  19  18     1.113288929254   109.86247962    63.79444983
 H     21  19  18     1.113816165262   112.31251629     0.42396878
 H     21  19  18     1.112971863975   109.48889321   120.82541017
 H     21  19  18     1.112660491794   109.32286346   240.17072670
 H     22  14  13     1.083574519819   119.51352923   161.90455451
 H     23  22  14     1.083067509438   119.10956836   184.86646310

---------------------------
INTERNAL COORDINATES (A.U.)
---------------------------
 C      0   0   0     0.000000000000     0.00000000     0.00000000
 C      1   0   0     2.892250881636     0.00000000     0.00000000
 C      2   1   0     2.903943059997   112.74659840     0.00000000
 C      3   2   1     2.902282874672   112.52157571    71.74655126
 C      4   3   2     2.897751109090   110.91370166   176.24724665
 C      5   4   3     2.844436629978   110.54657782   180.07793143
 C      6   5   4     2.654259339499   120.19114244   272.42539484
 C      7   6   5     2.651056355605   120.48553989   177.93619243
 O      8   7   6     2.633573257663   120.06791434   180.04707730
 C      8   7   6     2.655600689684   119.64688352   359.91466458
 C     10   8   7     2.647979775150   119.88311386     0.04981158
 C     11  10   8     2.640437799552   120.35872964   359.37496008
 O     11  10   8     2.642415587624   119.47441964   180.62309482
 C     13  11  10     2.714074613585   122.97543926   342.40373139
 C     14  13  11     2.899771033637   107.24413134   148.46645431
 C     14  13  11     2.937148879646   107.46796359   269.06685304
 C     16  14  13     2.917948868303   115.90601824   183.19243708
 C     17  16  14     2.860610134966   112.20790385    80.97076275
 C     18  17  16     2.561375666187   123.83938493   207.15613692
 C     19  18  17     2.857679305919   122.14173709     2.24661315
 C     19  18  17     2.850040687482   119.84345346   181.78538054
 C     14  13  11     2.876844271925   110.66095025    29.35377444
 C     22  14  13     2.525426781354   121.71406235   336.04746446
 H      1   2   3     2.098461180089   110.92167674   292.37562736
 H      1   2   3     2.097908173289   109.34896529   173.31501231
 H      1   2   3     2.101152191172   110.44350488    53.95134493
 H      2   1   3     2.101620745633   108.22426669   240.27135966
 H      2   1   3     2.103358644075   109.60111536   123.21114979
 H      3   2   1     2.103910549218   109.80883416   308.84806336
 H      3   2   1     2.102770523206   107.98155601   191.85105155
 H      4   3   2     2.099685558288   109.70933894   296.49277192
 H      4   3   2     2.102528718602   109.47723295    55.51652071
 H      5   4   3     2.104334978779   109.63235840    59.05067426
 H      5   4   3     2.104507904865   109.87292154   301.41011463
 H      7   6   5     2.048170732455   119.94142543   358.43468115
 H      9   8   7     1.914796754476   121.60714464     0.03199009
 H     12  11  10     2.047086879987   119.55102465   181.16377464
 H     15  14  13     2.099900089918   110.40535859    65.64807267
 H     15  14  13     2.099599123797   109.85859969   306.49551090
 H     15  14  13     2.098800159140   111.44833689   187.22249109
 H     16  14  13     2.102084651312   109.48298406   307.93622063
 H     16  14  13     2.102864324868   107.88496470    62.53907087
 H     17  16  14     2.102861471905   108.45437573   199.23307794
 H     17  16  14     2.096341774848   109.76503888   315.67677584
 H     18  17  16     2.061159292108   117.10366697    31.05552604
 H     20  19  18     2.102018277341   110.02458205   302.57640293
 H     20  19  18     2.104522396039   111.02735629   182.94793750
 H     20  19  18     2.103811184217   109.86247962    63.79444983
 H     21  19  18     2.104807515880   112.31251629     0.42396878
 H     21  19  18     2.103212017673   109.48889321   120.82541017
 H     21  19  18     2.102623609525   109.32286346   240.17072670
 H     22  14  13     2.047659088152   119.51352923   161.90455451
 H     23  22  14     2.046700977386   119.10956836   184.86646310

---------------------
BASIS SET INFORMATION
---------------------
There are 3 groups of distinct atoms

 Group   1 Type C   : 10s4p1d contracted to 3s2p1d pattern {631/31/1}
 Group   2 Type O   : 10s4p1d contracted to 3s2p1d pattern {631/31/1}
 Group   3 Type H   : 4s contracted to 2s pattern {31}

Atom   0C    basis set group =>   1
Atom   1C    basis set group =>   1
Atom   2C    basis set group =>   1
Atom   3C    basis set group =>   1
Atom   4C    basis set group =>   1
Atom   5C    basis set group =>   1
Atom   6C    basis set group =>   1
Atom   7C    basis set group =>   1
Atom   8O    basis set group =>   2
Atom   9C    basis set group =>   1
Atom  10C    basis set group =>   1
Atom  11C    basis set group =>   1
Atom  12O    basis set group =>   2
Atom  13C    basis set group =>   1
Atom  14C    basis set group =>   1
Atom  15C    basis set group =>   1
Atom  16C    basis set group =>   1
Atom  17C    basis set group =>   1
Atom  18C    basis set group =>   1
Atom  19C    basis set group =>   1
Atom  20C    basis set group =>   1
Atom  21C    basis set group =>   1
Atom  22C    basis set group =>   1
Atom  23H    basis set group =>   3
Atom  24H    basis set group =>   3
Atom  25H    basis set group =>   3
Atom  26H    basis set group =>   3
Atom  27H    basis set group =>   3
Atom  28H    basis set group =>   3
Atom  29H    basis set group =>   3
Atom  30H    basis set group =>   3
Atom  31H    basis set group =>   3
Atom  32H    basis set group =>   3
Atom  33H    basis set group =>   3
Atom  34H    basis set group =>   3
Atom  35H    basis set group =>   3
Atom  36H    basis set group =>   3
Atom  37H    basis set group =>   3
Atom  38H    basis set group =>   3
Atom  39H    basis set group =>   3
Atom  40H    basis set group =>   3
Atom  41H    basis set group =>   3
Atom  42H    basis set group =>   3
Atom  43H    basis set group =>   3
Atom  44H    basis set group =>   3
Atom  45H    basis set group =>   3
Atom  46H    basis set group =>   3
Atom  47H    basis set group =>   3
Atom  48H    basis set group =>   3
Atom  49H    basis set group =>   3
Atom  50H    basis set group =>   3
Atom  51H    basis set group =>   3
Atom  52H    basis set group =>   3
---------------------------------
AUXILIARY/J BASIS SET INFORMATION
---------------------------------
There are 3 groups of distinct atoms

 Group   1 Type C   : 12s5p4d2f1g contracted to 6s4p3d1f1g pattern {711111/2111/211/2/1}
 Group   2 Type O   : 12s5p4d2f1g contracted to 6s4p3d1f1g pattern {711111/2111/211/2/1}
 Group   3 Type H   : 5s2p1d contracted to 3s1p1d pattern {311/2/1}

Atom   0C    basis set group =>   1
Atom   1C    basis set group =>   1
Atom   2C    basis set group =>   1
Atom   3C    basis set group =>   1
Atom   4C    basis set group =>   1
Atom   5C    basis set group =>   1
Atom   6C    basis set group =>   1
Atom   7C    basis set group =>   1
Atom   8O    basis set group =>   2
Atom   9C    basis set group =>   1
Atom  10C    basis set group =>   1
Atom  11C    basis set group =>   1
Atom  12O    basis set group =>   2
Atom  13C    basis set group =>   1
Atom  14C    basis set group =>   1
Atom  15C    basis set group =>   1
Atom  16C    basis set group =>   1
Atom  17C    basis set group =>   1
Atom  18C    basis set group =>   1
Atom  19C    basis set group =>   1
Atom  20C    basis set group =>   1
Atom  21C    basis set group =>   1
Atom  22C    basis set group =>   1
Atom  23H    basis set group =>   3
Atom  24H    basis set group =>   3
Atom  25H    basis set group =>   3
Atom  26H    basis set group =>   3
Atom  27H    basis set group =>   3
Atom  28H    basis set group =>   3
Atom  29H    basis set group =>   3
Atom  30H    basis set group =>   3
Atom  31H    basis set group =>   3
Atom  32H    basis set group =>   3
Atom  33H    basis set group =>   3
Atom  34H    basis set group =>   3
Atom  35H    basis set group =>   3
Atom  36H    basis set group =>   3
Atom  37H    basis set group =>   3
Atom  38H    basis set group =>   3
Atom  39H    basis set group =>   3
Atom  40H    basis set group =>   3
Atom  41H    basis set group =>   3
Atom  42H    basis set group =>   3
Atom  43H    basis set group =>   3
Atom  44H    basis set group =>   3
Atom  45H    basis set group =>   3
Atom  46H    basis set group =>   3
Atom  47H    basis set group =>   3
Atom  48H    basis set group =>   3
Atom  49H    basis set group =>   3
Atom  50H    basis set group =>   3
Atom  51H    basis set group =>   3
Atom  52H    basis set group =>   3
------------------------------------------------------------------------------
                             ORCA STARTUP CALCULATIONS
                           -- RI-GTO INTEGRALS CHOSEN --
------------------------------------------------------------------------------
------------------------------------------------------------------------------
                   ___                                                        
                  /   \      - P O W E R E D   B Y -                         
                 /     \                                                     
                 |  |  |   _    _      __       _____    __    __             
                 |  |  |  | |  | |    /  \     |  _  \  |  |  /  |          
                  \  \/   | |  | |   /    \    | | | |  |  | /  /          
                 / \  \   | |__| |  /  /\  \   | |_| |  |  |/  /          
                |  |  |   |  __  | /  /__\  \  |    /   |      \           
                |  |  |   | |  | | |   __   |  |    \   |  |\   \          
                \     /   | |  | | |  |  |  |  | |\  \  |  | \   \       
                 \___/    |_|  |_| |__|  |__|  |_| \__\ |__|  \__/        
                                                                              
                      - O R C A' S   B I G   F R I E N D -                    
                                      &                                       
                       - I N T E G R A L  F E E D E R -                       
                                                                              
 v1 FN, 2020, v2 2021, v3 2022-2024                                           
------------------------------------------------------------------------------


----------------------
SHARK INTEGRAL PACKAGE
----------------------

Number of atoms                             ...     53
Number of basis functions                   ...    382
Number of shells                            ...    198
Maximum angular momentum                    ...      2
Integral batch strategy                     ... SHARK/LIBINT Hybrid
RI-J (if used) integral strategy            ... SPLIT-RIJ (Revised 2003 algorithm where possible)
Printlevel                                  ...      1
Contraction scheme used                     ... SEGMENTED contraction
Prescreening option                         ... SCHWARTZ
   Thresh                                   ... 1.000e-10
   Tcut                                     ... 1.000e-11
   Tpresel                                  ... 1.000e-11 
Coulomb Range Separation                    ... NOT USED
Exchange Range Separation                   ... NOT USED
Multipole approximations                    ... NOT USED
Finite Nucleus Model                        ... NOT USED
CABS basis                                  ... NOT available
Auxiliary Coulomb fitting basis             ... AVAILABLE
   # of basis functions in Aux-J            ...   1457
   # of shells in Aux-J                     ...    495
   Maximum angular momentum in Aux-J        ...      4
Auxiliary J/K fitting basis                 ... NOT available
Auxiliary Correlation fitting basis         ... NOT available
Auxiliary 'external' fitting basis          ... NOT available

Checking pre-screening integrals            ... done (  0.0 sec) Dimension = 198
Check shell pair data                       ... done (  0.0 sec)
Shell pair information
Shell pair cut-off parameter TPreSel        ...   1.0e-11
Total number of shell pairs                 ...     19701
Shell pairs after pre-screening             ...     11421
Total number of primitive shell pairs       ...    108918
Primitive shell pairs kept                  ...     35171
          la=0 lb=0:   4527 shell pairs
          la=1 lb=0:   3767 shell pairs
          la=1 lb=1:    796 shell pairs
          la=2 lb=0:   1523 shell pairs
          la=2 lb=1:    670 shell pairs
          la=2 lb=2:    138 shell pairs

Calculating one electron integrals          ... done (  0.2 sec)
Calculating RI/J V-Matrix + Cholesky decomp.... done (  0.3 sec)
Calculating Nuclear repulsion               ... done (  0.0 sec) ENN=   1850.712072322669 Eh

Diagonalization of the overlap matrix:
Smallest eigenvalue                        ... 3.906e-04
Time for diagonalization                   ...    0.024 sec
Threshold for overlap eigenvalues          ... 1.000e-07
Number of eigenvalues below threshold      ... 0
Time for construction of square roots      ...    0.027 sec
Total time needed                          ...    0.061 sec

-------------------
DFT GRID GENERATION
-------------------

General Integration Accuracy     IntAcc      ... 4.388
Radial Grid Type                 RadialGrid  ... OptM3 with GC (2021)
Angular Grid (max. ang.)         AngularGrid ... 4 (Lebedev-302)
Angular grid pruning method      GridPruning ... 4 (adaptive)
Weight generation scheme         WeightScheme... mBecke (2022)
Basis function cutoff            BFCut       ... 1.0000e-10
Integration weight cutoff        WCut        ... 1.0000e-14
Partially contracted basis set               ... off
Rotationally invariant grid construction     ... off
Angular grids for H and He will be reduced by one unit

Total number of grid points                  ...   232629
Total number of batches                      ...     3664
Average number of points per batch           ...       63
Average number of grid points per atom       ...     4389

--------------------
COSX GRID GENERATION
--------------------

GRIDX 1
-------
General Integration Accuracy     IntAcc      ... 3.816
Radial Grid Type                 RadialGrid  ... OptM3 with GC (2021)
Angular Grid (max. ang.)         AngularGrid ... 1 (Lebedev-50)
Angular grid pruning method      GridPruning ... 4 (adaptive)
Weight generation scheme         WeightScheme... mBecke (2022)
Basis function cutoff            BFCut       ... 1.0000e-10
Integration weight cutoff        WCut        ... 1.0000e-14
Partially contracted basis set               ... on
Rotationally invariant grid construction     ... off
Angular grids for H and He will be reduced by one unit

Total number of grid points                  ...    29645
Total number of batches                      ...      265
Average number of points per batch           ...      111
Average number of grid points per atom       ...      559
UseSFitting                                  ... on

GRIDX 2
-------
General Integration Accuracy     IntAcc      ... 4.020
Radial Grid Type                 RadialGrid  ... OptM3 with GC (2021)
Angular Grid (max. ang.)         AngularGrid ... 2 (Lebedev-110)
Angular grid pruning method      GridPruning ... 4 (adaptive)
Weight generation scheme         WeightScheme... mBecke (2022)
Basis function cutoff            BFCut       ... 1.0000e-10
Integration weight cutoff        WCut        ... 1.0000e-14
Partially contracted basis set               ... on
Rotationally invariant grid construction     ... off
Angular grids for H and He will be reduced by one unit

Total number of grid points                  ...    62344
Total number of batches                      ...      514
Average number of points per batch           ...      121
Average number of grid points per atom       ...     1176
UseSFitting                                  ... on

GRIDX 3
-------
General Integration Accuracy     IntAcc      ... 4.338
Radial Grid Type                 RadialGrid  ... OptM3 with GC (2021)
Angular Grid (max. ang.)         AngularGrid ... 3 (Lebedev-194)
Angular grid pruning method      GridPruning ... 4 (adaptive)
Weight generation scheme         WeightScheme... mBecke (2022)
Basis function cutoff            BFCut       ... 1.0000e-10
Integration weight cutoff        WCut        ... 1.0000e-14
Partially contracted basis set               ... on
Rotationally invariant grid construction     ... off
Angular grids for H and He will be reduced by one unit

Total number of grid points                  ...   135576
Total number of batches                      ...     1087
Average number of points per batch           ...      124
Average number of grid points per atom       ...     2558
UseSFitting                                  ... on
Initializing property integral containers    ... done (  0.0 sec)

SHARK setup successfully completed in   9.1 seconds

Maximum memory used throughout the entire STARTUP-calculation: 95.0 MB
-------------------------------------------------------------------------------
                                 ORCA GUESS
                   Start orbitals & Density for SCF / CASSCF
-------------------------------------------------------------------------------

------------
SCF SETTINGS
------------
Hamiltonian:
 Density Functional     Method          .... DFT(GTOs)
 Exchange Functional    Exchange        .... B88
   X-Alpha parameter    XAlpha          ....  0.666667
   Becke's b parameter  XBeta           ....  0.004200
 Correlation Functional Correlation     .... LYP
 LDA part of GGA corr.  LDAOpt          .... VWN-5
 Gradients option       PostSCFGGA      .... off
 Hybrid DFT is turned on
   Fraction HF Exchange ScalHFX         ....  0.200000
   Scaling of DF-GGA-X  ScalDFX         ....  0.720000
   Scaling of DF-GGA-C  ScalDFC         ....  0.810000
   Scaling of DF-LDA-C  ScalLDAC        ....  1.000000
   Perturbative correction              ....  0.000000
   NL short-range parameter             ....  4.800000
 RI-approximation to the Coulomb term is turned on
   Number of AuxJ basis functions       .... 1457
   RIJ-COSX (HFX calculated with COS-X)).... on


General Settings:
 Integral files         IntName         .... /home/nmrbox/aojoawo/Documents/ERDOS/inputs/CHEMBL422704
 Hartree-Fock type      HFTyp           .... RHF
 Total Charge           Charge          ....    0
 Multiplicity           Mult            ....    1
 Number of Electrons    NEL             ....  172
 Basis Dimension        Dim             ....  382
 Nuclear Repulsion      ENuc            ....   1850.7120723227 Eh

Convergence Acceleration:
 AO-DIIS                CNVDIIS         .... on
   Start iteration      DIISMaxIt       ....    12
   Startup error        DIISStart       ....  0.200000
   # of expansion vecs  DIISMaxEq       ....     5
   Bias factor          DIISBfac        ....   1.050
   Max. coefficient     DIISMaxC        ....  10.000
 MO-DIIS                CNVKDIIS        .... off
 Trust-Rad. Augm. Hess. CNVTRAH         .... auto
   Auto Start mean grad. ratio tolernc. ....  1.125000
   Auto Start start iteration           ....    50
   Auto Start num. interpolation iter.  ....    10
   Max. Number of Micro iterations      ....    24
   Max. Number of Macro iterations      .... Maxiter - #DIIS iter
   Number of Davidson start vectors     ....     2
   Converg. threshold    (grad. norm)   ....   5.000e-05
   Grad. Scal. Fac. for Micro threshold ....   0.100
   Minimum threshold for Micro iter.    ....   1.000e-02
   NR start threshold (gradient norm)   ....   1.000e-04
   Initial trust radius                 ....   0.400
   Minimum AH scaling param. (alpha)    ....   1.000
   Maximum AH scaling param. (alpha)    .... 1000.000
   Quad. conv. algorithm                .... NR
   White noise on init. David. guess    .... on
   Maximum white noise                  ....   0.010
   Pseudo random numbers                .... off
   Inactive MOs                         .... canonical
   Orbital update algorithm             .... Taylor
   Preconditioner                       .... Diag
   Full preconditioner red. dimension   ....   250
 SOSCF                  CNVSOSCF        .... on
   Start iteration      SOSCFMaxIt      ....   150
   Startup grad/error   SOSCFStart      ....  0.003300
   Hessian update       SOSCFHessUp     .... L-BFGS
 Level Shifting         CNVShift        .... on
   Level shift para.    LevelShift      ....    0.2500
   Turn off err/grad.   ShiftErr        ....    0.0010
 Zerner damping         CNVZerner       .... off
 Static damping         CNVDamp         .... on
   Fraction old density DampFac         ....    0.7000
   Max. Damping (<1)    DampMax         ....    0.9800
   Min. Damping (>=0)   DampMin         ....    0.0000
   Turn off err/grad.   DampErr         ....    0.1000

SCF Procedure:
 Maximum # iterations   MaxIter         ....   125
 SCF integral mode      SCFMode         .... Direct
   Integral package                     .... SHARK and LIBINT hybrid scheme
 Reset frequency        DirectResetFreq ....    20
 Integral Threshold     Thresh          ....  1.000e-10 Eh
 Primitive CutOff       TCut            ....  1.000e-11 Eh

Convergence Tolerance:
 Convergence Check Mode ConvCheckMode   .... Total+1el-Energy
 Convergence forced     ConvForced      .... 0
 Energy Change          TolE            ....  1.000e-06 Eh
 1-El. energy change                    ....  1.000e-03 Eh
 Orbital Gradient       TolG            ....  5.000e-05
 Orbital Rotation angle TolX            ....  5.000e-05
 DIIS Error             TolErr          ....  1.000e-06

------------------------------
INITIAL GUESS: MODEL POTENTIAL
------------------------------
Loading Hartree-Fock densities                     ... done
Calculating cut-offs                               ... done
Initializing the effective Hamiltonian             ... done
Setting up the integral package (SHARK)            ... done
Starting the Coulomb interaction                   ... done (   2.0 sec)
Making the grid                                    ... done (   1.1 sec)
Mapping shells                                     ... done
Starting the XC term evaluation                    ... done (   0.8 sec)
  promolecular density results
     # of electrons  =    172.008898183
     EX              =   -133.224225452
     EC              =     -5.695778473
     EX+EC           =   -138.920003925
Transforming the Hamiltonian                       ... done (   0.0 sec)
Diagonalizing the Hamiltonian                      ... done (   0.0 sec)
Back transforming the eigenvectors                 ... done (   0.0 sec)
Now organizing SCF variables                       ... done
                      ------------------
                      INITIAL GUESS DONE (   3.9 sec)
                      ------------------
             **** ENERGY FILE WAS UPDATED (/home/nmrbox/aojoawo/Documents/ERDOS/inputs/CHEMBL422704.en.tmp) ****
Finished Guess after   4.1 sec
Maximum memory used throughout the entire GUESS-calculation: 47.1 MB

-------------------------------------------------------------------------------------------
                                      ORCA LEAN-SCF
                              memory conserving SCF solver
-------------------------------------------------------------------------------------------

----------------------------------------D-I-I-S--------------------------------------------
Iteration    Energy (Eh)           Delta-E    RMSDP     MaxDP     DIISErr   Damp  Time(sec)
-------------------------------------------------------------------------------------------
               ***  Starting incremental Fock matrix formation  ***
    1    -967.4169112597462572     0.00e+00  2.17e-03  6.61e-02  2.13e-01  0.700  37.1
    2    -967.7126704419285943    -2.96e-01  1.63e-03  4.16e-02  9.78e-02  0.700  19.1
                               ***Turning on AO-DIIS***
    3    -967.8384911689547607    -1.26e-01  6.78e-04  1.71e-02  3.40e-02  0.700  19.0
    4    -967.9105427308520575    -7.21e-02  1.11e-03  2.35e-02  2.03e-02  0.000  17.0
    5    -968.0649801109527743    -1.54e-01  2.38e-04  8.80e-03  7.35e-03  0.000  18.0
                              *** Initializing SOSCF ***
---------------------------------------S-O-S-C-F--------------------------------------
Iteration    Energy (Eh)           Delta-E    RMSDP     MaxDP     MaxGrad    Time(sec)
--------------------------------------------------------------------------------------
    6    -968.0658517227500397    -8.72e-04  7.67e-05  2.45e-03  1.43e-03    16.0
               *** Restarting incremental Fock matrix formation ***
    7    -968.0658290152566678     2.27e-05  4.45e-05  1.43e-03  2.96e-04    42.7
    8    -968.0658252236778480     3.79e-06  2.01e-05  8.24e-04  6.32e-04    23.2
    9    -968.0658352137986640    -9.99e-06  9.27e-06  3.46e-04  7.98e-05    19.6
   10    -968.0658349744346651     2.39e-07  3.94e-06  1.49e-04  5.92e-05    17.8
                 **** Energy Check signals convergence ****

               *****************************************************
               *                     SUCCESS                       *
               *           SCF CONVERGED AFTER  10 CYCLES          *
               *****************************************************

Recomputing exchange energy using gridx3       ... done (   72.133 sec)
Old exchange energy                            :    -27.196095270 Eh
New exchange energy                            :    -27.196083292 Eh
Exchange energy change after final integration :      0.000011978 Eh
Total energy after final integration           :   -968.065822997 Eh
             **** ENERGY FILE WAS UPDATED (/home/nmrbox/aojoawo/Documents/ERDOS/inputs/CHEMBL422704.en.tmp) ****

----------------
TOTAL SCF ENERGY
----------------

Total Energy       :       -968.06582299681668 Eh          -26342.41027 eV

Components:
Nuclear Repulsion  :       1850.71207232266875 Eh           50360.43576 eV
Electronic Energy  :      -2818.77790729710341 Eh          -76702.84635 eV
One Electron Energy:      -4989.81847869682679 Eh         -135779.86372 eV
Two Electron Energy:       2171.04057139972338 Eh           59077.01737 eV

Virial components:
Potential Energy   :      -1929.82448295372251 Eh          -52513.19390 eV
Kinetic Energy     :        961.75865995690572 Eh           26170.78363 eV
Virial Ratio       :          2.00655794774980

DFT components:
N(Alpha)           :       86.000038910003 electrons
N(Beta)            :       86.000038910003 electrons
N(Total)           :      172.000077820005 electrons
E(X)               :     -107.874721859865 Eh       
E(C)               :       -6.721315681825 Eh       
E(XC)              :     -114.596037541691 Eh       

---------------
SCF CONVERGENCE
---------------

  Last Energy change         ...   -2.3936e-07  Tolerance :   1.0000e-06
  Last MAX-Density change    ...    1.4873e-04  Tolerance :   1.0000e-05
  Last RMS-Density change    ...    3.9384e-06  Tolerance :   1.0000e-06
  Last DIIS Error            ...    1.4320e-03  Tolerance :   1.0000e-06
  Last Orbital Gradient      ...    5.9180e-05  Tolerance :   5.0000e-05
  Last Orbital Rotation      ...    9.0036e-05  Tolerance :   5.0000e-05


----------------
ORBITAL ENERGIES
----------------

  NO   OCC          E(Eh)            E(eV) 
   0   2.0000     -19.164079      -521.4811 
   1   2.0000     -19.153556      -521.1948 
   2   2.0000     -10.241945      -278.6975 
   3   2.0000     -10.239655      -278.6352 
   4   2.0000     -10.235920      -278.5336 
   5   2.0000     -10.184068      -277.1226 
   6   2.0000     -10.175971      -276.9022 
   7   2.0000     -10.175263      -276.8830 
   8   2.0000     -10.174796      -276.8703 
   9   2.0000     -10.172830      -276.8168 
  10   2.0000     -10.172343      -276.8035 
  11   2.0000     -10.172319      -276.8029 
  12   2.0000     -10.170429      -276.7514 
  13   2.0000     -10.169143      -276.7165 
  14   2.0000     -10.168612      -276.7020 
  15   2.0000     -10.168364      -276.6953 
  16   2.0000     -10.167194      -276.6634 
  17   2.0000     -10.166399      -276.6418 
  18   2.0000     -10.165632      -276.6209 
  19   2.0000     -10.163498      -276.5628 
  20   2.0000     -10.163213      -276.5551 
  21   2.0000     -10.161023      -276.4955 
  22   2.0000     -10.159941      -276.4661 
  23   2.0000      -1.038347       -28.2549 
  24   2.0000      -1.027893       -27.9704 
  25   2.0000      -0.845388       -23.0042 
  26   2.0000      -0.812534       -22.1102 
  27   2.0000      -0.802085       -21.8258 
  28   2.0000      -0.794669       -21.6240 
  29   2.0000      -0.776556       -21.1312 
  30   2.0000      -0.747999       -20.3541 
  31   2.0000      -0.734541       -19.9879 
  32   2.0000      -0.718756       -19.5583 
  33   2.0000      -0.697655       -18.9842 
  34   2.0000      -0.682100       -18.5609 
  35   2.0000      -0.667517       -18.1641 
  36   2.0000      -0.663453       -18.0535 
  37   2.0000      -0.620414       -16.8823 
  38   2.0000      -0.612616       -16.6701 
  39   2.0000      -0.606911       -16.5149 
  40   2.0000      -0.585343       -15.9280 
  41   2.0000      -0.577909       -15.7257 
  42   2.0000      -0.556742       -15.1497 
  43   2.0000      -0.528007       -14.3678 
  44   2.0000      -0.510576       -13.8935 
  45   2.0000      -0.507207       -13.8018 
  46   2.0000      -0.493414       -13.4265 
  47   2.0000      -0.484205       -13.1759 
  48   2.0000      -0.460428       -12.5289 
  49   2.0000      -0.452913       -12.3244 
  50   2.0000      -0.446520       -12.1504 
  51   2.0000      -0.441574       -12.0158 
  52   2.0000      -0.440732       -11.9929 
  53   2.0000      -0.427792       -11.6408 
  54   2.0000      -0.425338       -11.5740 
  55   2.0000      -0.422340       -11.4925 
  56   2.0000      -0.413421       -11.2497 
  57   2.0000      -0.409523       -11.1437 
  58   2.0000      -0.400188       -10.8897 
  59   2.0000      -0.395070       -10.7504 
  60   2.0000      -0.388983       -10.5848 
  61   2.0000      -0.384070       -10.4511 
  62   2.0000      -0.380892       -10.3646 
  63   2.0000      -0.380236       -10.3468 
  64   2.0000      -0.375028       -10.2050 
  65   2.0000      -0.368655       -10.0316 
  66   2.0000      -0.366385        -9.9699 
  67   2.0000      -0.361665        -9.8414 
  68   2.0000      -0.359967        -9.7952 
  69   2.0000      -0.356002        -9.6873 
  70   2.0000      -0.349452        -9.5091 
  71   2.0000      -0.344252        -9.3676 
  72   2.0000      -0.333675        -9.0798 
  73   2.0000      -0.331527        -9.0213 
  74   2.0000      -0.327395        -8.9089 
  75   2.0000      -0.326420        -8.8824 
  76   2.0000      -0.321966        -8.7611 
  77   2.0000      -0.312780        -8.5112 
  78   2.0000      -0.310012        -8.4359 
  79   2.0000      -0.304367        -8.2823 
  80   2.0000      -0.296217        -8.0605 
  81   2.0000      -0.280999        -7.6464 
  82   2.0000      -0.271428        -7.3859 
  83   2.0000      -0.216814        -5.8998 
  84   2.0000      -0.204501        -5.5647 
  85   2.0000      -0.191856        -5.2207 
  86   0.0000      -0.014084        -0.3833 
  87   0.0000       0.025565         0.6957 
  88   0.0000       0.031834         0.8662 
  89   0.0000       0.053922         1.4673 
  90   0.0000       0.063000         1.7143 
  91   0.0000       0.080796         2.1986 
  92   0.0000       0.091108         2.4792 
  93   0.0000       0.101086         2.7507 
  94   0.0000       0.108412         2.9500 
  95   0.0000       0.116258         3.1635 
  96   0.0000       0.120831         3.2880 
*Only the first 10 virtual orbitals were printed.

                    ********************************
                    * MULLIKEN POPULATION ANALYSIS *
                    ********************************

-----------------------
MULLIKEN ATOMIC CHARGES
-----------------------
   0 C :   -0.435094
   1 C :   -0.240187
   2 C :   -0.240249
   3 C :   -0.243348
   4 C :   -0.349615
   5 C :    0.185294
   6 C :   -0.265628
   7 C :    0.318833
   8 O :   -0.675987
   9 C :    0.041209
  10 C :    0.323139
  11 C :   -0.248115
  12 O :   -0.557541
  13 C :    0.318375
  14 C :   -0.461901
  15 C :   -0.271522
  16 C :   -0.302830
  17 C :   -0.147250
  18 C :    0.170690
  19 C :   -0.512666
  20 C :   -0.501031
  21 C :   -0.169450
  22 C :   -0.125649
  23 H :    0.143831
  24 H :    0.138831
  25 H :    0.135955
  26 H :    0.125186
  27 H :    0.128332
  28 H :    0.122031
  29 H :    0.123928
  30 H :    0.135891
  31 H :    0.136445
  32 H :    0.134063
  33 H :    0.138747
  34 H :    0.101720
  35 H :    0.415585
  36 H :    0.123043
  37 H :    0.143943
  38 H :    0.151496
  39 H :    0.153587
  40 H :    0.134776
  41 H :    0.135911
  42 H :    0.146323
  43 H :    0.139862
  44 H :    0.112956
  45 H :    0.159739
  46 H :    0.145894
  47 H :    0.156001
  48 H :    0.146568
  49 H :    0.145676
  50 H :    0.146295
  51 H :    0.124381
  52 H :    0.143529
Sum of atomic charges:    0.0000000

--------------------------------
MULLIKEN REDUCED ORBITAL CHARGES
--------------------------------
  0 C s       :     3.302193  s :     3.302193
      pz      :     1.055614  p :     3.098445
      px      :     1.046286
      py      :     0.996545
      dz2     :     0.007264  d :     0.034457
      dxz     :     0.010421
      dyz     :     0.002292
      dx2y2   :     0.004614
      dxy     :     0.009866

  1 C s       :     3.249688  s :     3.249688
      pz      :     0.987189  p :     2.950218
      px      :     0.999377
      py      :     0.963653
      dz2     :     0.009825  d :     0.040280
      dxz     :     0.009980
      dyz     :     0.003608
      dx2y2   :     0.004833
      dxy     :     0.012034

  2 C s       :     3.253171  s :     3.253171
      pz      :     0.978156  p :     2.947179
      px      :     0.961639
      py      :     1.007384
      dz2     :     0.009900  d :     0.039899
      dxz     :     0.010965
      dyz     :     0.002297
      dx2y2   :     0.009602
      dxy     :     0.007134

  3 C s       :     3.253049  s :     3.253049
      pz      :     0.985648  p :     2.950158
      px      :     0.949998
      py      :     1.014513
      dz2     :     0.010029  d :     0.040141
      dxz     :     0.010667
      dyz     :     0.002510
      dx2y2   :     0.009920
      dxy     :     0.007015

  4 C s       :     3.278361  s :     3.278361
      pz      :     1.012292  p :     3.030317
      px      :     0.988120
      py      :     1.029905
      dz2     :     0.010365  d :     0.040937
      dxz     :     0.010216
      dyz     :     0.002747
      dx2y2   :     0.009613
      dxy     :     0.007997

  5 C s       :     3.133030  s :     3.133030
      pz      :     0.899646  p :     2.639267
      px      :     0.879641
      py      :     0.859980
      dz2     :     0.007261  d :     0.042408
      dxz     :     0.007590
      dyz     :     0.006266
      dx2y2   :     0.010835
      dxy     :     0.010456

  6 C s       :     3.190496  s :     3.190496
      pz      :     1.077721  p :     3.041167
      px      :     0.945300
      py      :     1.018146
      dz2     :     0.003538  d :     0.033965
      dxz     :     0.007003
      dyz     :     0.005661
      dx2y2   :     0.008296
      dxy     :     0.009466

  7 C s       :     3.102718  s :     3.102718
      pz      :     0.880646  p :     2.510464
      px      :     0.925815
      py      :     0.704003
      dz2     :     0.010901  d :     0.067985
      dxz     :     0.009639
      dyz     :     0.014097
      dx2y2   :     0.018099
      dxy     :     0.015250

  8 O s       :     3.891492  s :     3.891492
      pz      :     1.645929  p :     4.761409
      px      :     1.599167
      py      :     1.516312
      dz2     :     0.002463  d :     0.023087
      dxz     :     0.006008
      dyz     :     0.003790
      dx2y2   :     0.006844
      dxy     :     0.003982

  9 C s       :     3.118331  s :     3.118331
      pz      :     1.019110  p :     2.802451
      px      :     0.887144
      py      :     0.896197
      dz2     :     0.005672  d :     0.038009
      dxz     :     0.007257
      dyz     :     0.006205
      dx2y2   :     0.009700
      dxy     :     0.009175

 10 C s       :     3.099876  s :     3.099876
      pz      :     0.879284  p :     2.508621
      px      :     0.731512
      py      :     0.897825
      dz2     :     0.010384  d :     0.068364
      dxz     :     0.015151
      dyz     :     0.009178
      dx2y2   :     0.016454
      dxy     :     0.017197

 11 C s       :     3.203383  s :     3.203383
      pz      :     1.036372  p :     3.010717
      px      :     0.993263
      py      :     0.981083
      dz2     :     0.003875  d :     0.034015
      dxz     :     0.005908
      dyz     :     0.006702
      dx2y2   :     0.009360
      dxy     :     0.008170

 12 O s       :     3.904200  s :     3.904200
      pz      :     1.682174  p :     4.626143
      px      :     1.224433
      py      :     1.719536
      dz2     :     0.004320  d :     0.027198
      dxz     :     0.007529
      dyz     :     0.003606
      dx2y2   :     0.004417
      dxy     :     0.007326

 13 C s       :     3.103037  s :     3.103037
      pz      :     0.936503  p :     2.505779
      px      :     0.681492
      py      :     0.887784
      dz2     :     0.013486  d :     0.072809
      dxz     :     0.015189
      dyz     :     0.010772
      dx2y2   :     0.017961
      dxy     :     0.015400

 14 C s       :     3.313592  s :     3.313592
      pz      :     0.990291  p :     3.114920
      px      :     1.049513
      py      :     1.075116
      dz2     :     0.007172  d :     0.033389
      dxz     :     0.007152
      dyz     :     0.006158
      dx2y2   :     0.006469
      dxy     :     0.006438

 15 C s       :     3.266993  s :     3.266993
      pz      :     1.009394  p :     2.965928
      px      :     0.951589
      py      :     1.004945
      dz2     :     0.008156  d :     0.038601
      dxz     :     0.010191
      dyz     :     0.004694
      dx2y2   :     0.010869
      dxy     :     0.004691

 16 C s       :     3.258556  s :     3.258556
      pz      :     1.016256  p :     3.004154
      px      :     0.963832
      py      :     1.024066
      dz2     :     0.009956  d :     0.040120
      dxz     :     0.008455
      dyz     :     0.005071
      dx2y2   :     0.011480
      dxy     :     0.005157

 17 C s       :     3.201877  s :     3.201877
      pz      :     0.971311  p :     2.910671
      px      :     0.966393
      py      :     0.972967
      dz2     :     0.004749  d :     0.034702
      dxz     :     0.007302
      dyz     :     0.005971
      dx2y2   :     0.009630
      dxy     :     0.007051

 18 C s       :     3.127240  s :     3.127240
      pz      :     0.905248  p :     2.661944
      px      :     0.909984
      py      :     0.846712
      dz2     :     0.005735  d :     0.040126
      dxz     :     0.008095
      dyz     :     0.006832
      dx2y2   :     0.009908
      dxy     :     0.009556

 19 C s       :     3.319043  s :     3.319043
      pz      :     1.065006  p :     3.159197
      px      :     1.067376
      py      :     1.026814
      dz2     :     0.010893  d :     0.034427
      dxz     :     0.003366
      dyz     :     0.004685
      dx2y2   :     0.006893
      dxy     :     0.008589

 20 C s       :     3.314020  s :     3.314020
      pz      :     1.033870  p :     3.151719
      px      :     1.062313
      py      :     1.055537
      dz2     :     0.004802  d :     0.035292
      dxz     :     0.007480
      dyz     :     0.010098
      dx2y2   :     0.007306
      dxy     :     0.005605

 21 C s       :     3.211739  s :     3.211739
      pz      :     0.997187  p :     2.923047
      px      :     1.008713
      py      :     0.917147
      dz2     :     0.005801  d :     0.034664
      dxz     :     0.004397
      dyz     :     0.004797
      dx2y2   :     0.008616
      dxy     :     0.011053

 22 C s       :     3.180321  s :     3.180321
      pz      :     0.972479  p :     2.908217
      px      :     0.969801
      py      :     0.965937
      dz2     :     0.004889  d :     0.037111
      dxz     :     0.006414
      dyz     :     0.005033
      dx2y2   :     0.011695
      dxy     :     0.009080

 23 H s       :     0.856169  s :     0.856169

 24 H s       :     0.861169  s :     0.861169

 25 H s       :     0.864045  s :     0.864045

 26 H s       :     0.874814  s :     0.874814

 27 H s       :     0.871668  s :     0.871668

 28 H s       :     0.877969  s :     0.877969

 29 H s       :     0.876072  s :     0.876072

 30 H s       :     0.864109  s :     0.864109

 31 H s       :     0.863555  s :     0.863555

 32 H s       :     0.865937  s :     0.865937

 33 H s       :     0.861253  s :     0.861253

 34 H s       :     0.898280  s :     0.898280

 35 H s       :     0.584415  s :     0.584415

 36 H s       :     0.876957  s :     0.876957

 37 H s       :     0.856057  s :     0.856057

 38 H s       :     0.848504  s :     0.848504

 39 H s       :     0.846413  s :     0.846413

 40 H s       :     0.865224  s :     0.865224

 41 H s       :     0.864089  s :     0.864089

 42 H s       :     0.853677  s :     0.853677

 43 H s       :     0.860138  s :     0.860138

 44 H s       :     0.887044  s :     0.887044

 45 H s       :     0.840261  s :     0.840261

 46 H s       :     0.854106  s :     0.854106

 47 H s       :     0.843999  s :     0.843999

 48 H s       :     0.853432  s :     0.853432

 49 H s       :     0.854324  s :     0.854324

 50 H s       :     0.853705  s :     0.853705

 51 H s       :     0.875619  s :     0.875619

 52 H s       :     0.856471  s :     0.856471



                     *******************************
                     * LOEWDIN POPULATION ANALYSIS *
                     *******************************

----------------------
LOEWDIN ATOMIC CHARGES
----------------------
   0 C :   -0.360223
   1 C :   -0.231015
   2 C :   -0.228732
   3 C :   -0.222202
   4 C :   -0.218045
   5 C :    0.001191
   6 C :   -0.201626
   7 C :    0.091168
   8 O :   -0.349378
   9 C :   -0.084803
  10 C :    0.106199
  11 C :   -0.181075
  12 O :   -0.163587
  13 C :    0.081628
  14 C :   -0.352937
  15 C :   -0.226285
  16 C :   -0.233598
  17 C :   -0.162414
  18 C :   -0.045680
  19 C :   -0.357013
  20 C :   -0.349306
  21 C :   -0.152592
  22 C :   -0.121965
  23 H :    0.120754
  24 H :    0.122258
  25 H :    0.118937
  26 H :    0.115415
  27 H :    0.116238
  28 H :    0.113438
  29 H :    0.114874
  30 H :    0.119420
  31 H :    0.121112
  32 H :    0.121931
  33 H :    0.123916
  34 H :    0.122164
  35 H :    0.335690
  36 H :    0.135371
  37 H :    0.126317
  38 H :    0.130229
  39 H :    0.134283
  40 H :    0.121261
  41 H :    0.124729
  42 H :    0.131044
  43 H :    0.125646
  44 H :    0.121061
  45 H :    0.135013
  46 H :    0.126786
  47 H :    0.132762
  48 H :    0.126391
  49 H :    0.126241
  50 H :    0.126533
  51 H :    0.130422
  52 H :    0.142053

-------------------------------
LOEWDIN REDUCED ORBITAL CHARGES
-------------------------------
  0 C s       :     2.983586  s :     2.983586
      pz      :     1.118153  p :     3.309462
      px      :     1.107621
      py      :     1.083688
      dz2     :     0.013891  d :     0.067175
      dxz     :     0.019070
      dyz     :     0.004644
      dx2y2   :     0.009690
      dxy     :     0.019880

  1 C s       :     2.939526  s :     2.939526
      pz      :     1.072756  p :     3.206838
      px      :     1.071373
      py      :     1.062708
      dz2     :     0.020055  d :     0.084651
      dxz     :     0.021186
      dyz     :     0.007704
      dx2y2   :     0.010508
      dxy     :     0.025197

  2 C s       :     2.943427  s :     2.943427
      pz      :     1.070886  p :     3.201514
      px      :     1.049353
      py      :     1.081275
      dz2     :     0.020228  d :     0.083790
      dxz     :     0.023631
      dyz     :     0.004647
      dx2y2   :     0.019367
      dxy     :     0.015916

  3 C s       :     2.943182  s :     2.943182
      pz      :     1.068912  p :     3.194559
      px      :     1.036693
      py      :     1.088954
      dz2     :     0.020472  d :     0.084461
      dxz     :     0.022894
      dyz     :     0.005162
      dx2y2   :     0.019793
      dxy     :     0.016141

  4 C s       :     2.931925  s :     2.931925
      pz      :     1.078432  p :     3.200998
      px      :     1.042365
      py      :     1.080201
      dz2     :     0.020725  d :     0.085122
      dxz     :     0.022389
      dyz     :     0.005231
      dx2y2   :     0.019492
      dxy     :     0.017285

  5 C s       :     2.875627  s :     2.875627
      pz      :     0.974142  p :     3.019402
      px      :     1.021209
      py      :     1.024051
      dz2     :     0.016281  d :     0.103779
      dxz     :     0.017604
      dyz     :     0.015825
      dx2y2   :     0.026901
      dxy     :     0.027168

  6 C s       :     2.914791  s :     2.914791
      pz      :     1.089004  p :     3.205685
      px      :     1.052340
      py      :     1.064342
      dz2     :     0.007835  d :     0.081150
      dxz     :     0.013993
      dyz     :     0.013446
      dx2y2   :     0.021066
      dxy     :     0.024810

  7 C s       :     2.856660  s :     2.856660
      pz      :     0.943086  p :     2.891237
      px      :     1.065557
      py      :     0.882594
      dz2     :     0.023615  d :     0.160934
      dxz     :     0.022362
      dyz     :     0.033310
      dx2y2   :     0.043308
      dxy     :     0.038340

  8 O s       :     3.529591  s :     3.529591
      pz      :     1.646813  p :     4.775225
      px      :     1.603819
      py      :     1.524593
      dz2     :     0.004944  d :     0.044562
      dxz     :     0.009823
      dyz     :     0.008483
      dx2y2   :     0.012902
      dxy     :     0.008410

  9 C s       :     2.860029  s :     2.860029
      pz      :     1.057344  p :     3.126663
      px      :     1.026898
      py      :     1.042421
      dz2     :     0.012357  d :     0.098111
      dxz     :     0.017735
      dyz     :     0.016146
      dx2y2   :     0.026222
      dxy     :     0.025652

 10 C s       :     2.853772  s :     2.853772
      pz      :     0.933895  p :     2.878620
      px      :     0.919165
      py      :     1.025560
      dz2     :     0.022180  d :     0.161409
      dxz     :     0.034986
      dyz     :     0.022415
      dx2y2   :     0.040219
      dxy     :     0.041609

 11 C s       :     2.911902  s :     2.911902
      pz      :     1.073995  p :     3.188641
      px      :     1.047214
      py      :     1.067433
      dz2     :     0.008518  d :     0.080531
      dxz     :     0.014754
      dyz     :     0.012442
      dx2y2   :     0.023131
      dxy     :     0.021686

 12 O s       :     3.464307  s :     3.464307
      pz      :     1.673875  p :     4.639001
      px      :     1.252775
      py      :     1.712351
      dz2     :     0.008468  d :     0.060279
      dxz     :     0.017379
      dyz     :     0.004966
      dx2y2   :     0.012914
      dxy     :     0.016552

 13 C s       :     2.860664  s :     2.860664
      pz      :     1.045338  p :     2.890143
      px      :     0.833642
      py      :     1.011163
      dz2     :     0.030386  d :     0.167565
      dxz     :     0.037001
      dyz     :     0.024263
      dx2y2   :     0.040536
      dxy     :     0.035379

 14 C s       :     2.992713  s :     2.992713
      pz      :     1.059774  p :     3.295711
      px      :     1.110526
      py      :     1.125411
      dz2     :     0.014953  d :     0.064514
      dxz     :     0.014706
      dyz     :     0.011661
      dx2y2   :     0.011712
      dxy     :     0.011481

 15 C s       :     2.956502  s :     2.956502
      pz      :     1.073860  p :     3.189275
      px      :     1.040984
      py      :     1.074431
      dz2     :     0.015701  d :     0.080507
      dxz     :     0.021309
      dyz     :     0.010223
      dx2y2   :     0.022714
      dxy     :     0.010560

 16 C s       :     2.932918  s :     2.932918
      pz      :     1.081253  p :     3.216639
      px      :     1.035785
      py      :     1.099601
      dz2     :     0.020447  d :     0.084041
      dxz     :     0.018354
      dyz     :     0.010060
      dx2y2   :     0.024230
      dxy     :     0.010951

 17 C s       :     2.938224  s :     2.938224
      pz      :     1.031501  p :     3.143159
      px      :     1.052801
      py      :     1.058856
      dz2     :     0.011091  d :     0.081031
      dxz     :     0.017813
      dyz     :     0.011818
      dx2y2   :     0.022004
      dxy     :     0.018306

 18 C s       :     2.892460  s :     2.892460
      pz      :     0.992518  p :     3.055332
      px      :     1.050060
      py      :     1.012754
      dz2     :     0.012923  d :     0.097889
      dxz     :     0.019941
      dyz     :     0.015821
      dx2y2   :     0.024435
      dxy     :     0.024769

 19 C s       :     2.977567  s :     2.977567
      pz      :     1.116224  p :     3.313064
      px      :     1.113788
      py      :     1.083053
      dz2     :     0.020629  d :     0.066382
      dxz     :     0.005874
      dyz     :     0.009605
      dx2y2   :     0.013857
      dxy     :     0.016417

 20 C s       :     2.978563  s :     2.978563
      pz      :     1.091976  p :     3.302355
      px      :     1.102272
      py      :     1.108107
      dz2     :     0.009670  d :     0.068387
      dxz     :     0.014608
      dyz     :     0.019548
      dx2y2   :     0.013450
      dxy     :     0.011111

 21 C s       :     2.934939  s :     2.934939
      pz      :     1.018525  p :     3.137226
      px      :     1.085303
      py      :     1.033398
      dz2     :     0.010323  d :     0.080427
      dxz     :     0.010775
      dyz     :     0.011473
      dx2y2   :     0.022743
      dxy     :     0.025113

 22 C s       :     2.916221  s :     2.916221
      pz      :     1.002535  p :     3.118481
      px      :     1.051484
      py      :     1.064462
      dz2     :     0.009398  d :     0.087264
      dxz     :     0.016453
      dyz     :     0.010341
      dx2y2   :     0.028092
      dxy     :     0.022979

 23 H s       :     0.879246  s :     0.879246

 24 H s       :     0.877742  s :     0.877742

 25 H s       :     0.881063  s :     0.881063

 26 H s       :     0.884585  s :     0.884585

 27 H s       :     0.883762  s :     0.883762

 28 H s       :     0.886562  s :     0.886562

 29 H s       :     0.885126  s :     0.885126

 30 H s       :     0.880580  s :     0.880580

 31 H s       :     0.878888  s :     0.878888

 32 H s       :     0.878069  s :     0.878069

 33 H s       :     0.876084  s :     0.876084

 34 H s       :     0.877836  s :     0.877836

 35 H s       :     0.664310  s :     0.664310

 36 H s       :     0.864629  s :     0.864629

 37 H s       :     0.873683  s :     0.873683

 38 H s       :     0.869771  s :     0.869771

 39 H s       :     0.865717  s :     0.865717

 40 H s       :     0.878739  s :     0.878739

 41 H s       :     0.875271  s :     0.875271

 42 H s       :     0.868956  s :     0.868956

 43 H s       :     0.874354  s :     0.874354

 44 H s       :     0.878939  s :     0.878939

 45 H s       :     0.864987  s :     0.864987

 46 H s       :     0.873214  s :     0.873214

 47 H s       :     0.867238  s :     0.867238

 48 H s       :     0.873609  s :     0.873609

 49 H s       :     0.873759  s :     0.873759

 50 H s       :     0.873467  s :     0.873467

 51 H s       :     0.869578  s :     0.869578

 52 H s       :     0.857947  s :     0.857947



                      *****************************
                      * MAYER POPULATION ANALYSIS *
                      *****************************

  NA   - Mulliken gross atomic population
  ZA   - Total nuclear charge
  QA   - Mulliken gross atomic charge
  VA   - Mayer's total valence
  BVA  - Mayer's bonded valence
  FA   - Mayer's free valence

  ATOM       NA         ZA         QA         VA         BVA        FA
  0 C      6.4351     6.0000    -0.4351     3.8588     3.8588    -0.0000
  1 C      6.2402     6.0000    -0.2402     3.8777     3.8777    -0.0000
  2 C      6.2402     6.0000    -0.2402     3.8635     3.8635     0.0000
  3 C      6.2433     6.0000    -0.2433     3.8568     3.8568     0.0000
  4 C      6.3496     6.0000    -0.3496     3.8664     3.8664    -0.0000
  5 C      5.8147     6.0000     0.1853     3.9366     3.9366    -0.0000
  6 C      6.2656     6.0000    -0.2656     3.8681     3.8681    -0.0000
  7 C      5.6812     6.0000     0.3188     3.7794     3.7794     0.0000
  8 O      8.6760     8.0000    -0.6760     1.8190     1.8190     0.0000
  9 C      5.9588     6.0000     0.0412     3.9270     3.9270    -0.0000
 10 C      5.6769     6.0000     0.3231     3.8319     3.8319     0.0000
 11 C      6.2481     6.0000    -0.2481     3.8785     3.8785    -0.0000
 12 O      8.5575     8.0000    -0.5575     1.9225     1.9225     0.0000
 13 C      5.6816     6.0000     0.3184     3.8451     3.8451     0.0000
 14 C      6.4619     6.0000    -0.4619     3.8214     3.8214     0.0000
 15 C      6.2715     6.0000    -0.2715     3.8343     3.8343    -0.0000
 16 C      6.3028     6.0000    -0.3028     3.8561     3.8561    -0.0000
 17 C      6.1473     6.0000    -0.1473     3.9310     3.9310    -0.0000
 18 C      5.8293     6.0000     0.1707     3.9015     3.9015     0.0000
 19 C      6.5127     6.0000    -0.5127     3.8445     3.8445     0.0000
 20 C      6.5010     6.0000    -0.5010     3.8679     3.8679     0.0000
 21 C      6.1694     6.0000    -0.1694     3.8810     3.8810     0.0000
 22 C      6.1256     6.0000    -0.1256     3.9043     3.9043     0.0000
 23 H      0.8562     1.0000     0.1438     0.9378     0.9378     0.0000
 24 H      0.8612     1.0000     0.1388     0.9362     0.9362    -0.0000
 25 H      0.8640     1.0000     0.1360     0.9396     0.9396    -0.0000
 26 H      0.8748     1.0000     0.1252     0.9338     0.9338    -0.0000
 27 H      0.8717     1.0000     0.1283     0.9367     0.9367    -0.0000
 28 H      0.8780     1.0000     0.1220     0.9399     0.9399    -0.0000
 29 H      0.8761     1.0000     0.1239     0.9366     0.9366     0.0000
 30 H      0.8641     1.0000     0.1359     0.9402     0.9402     0.0000
 31 H      0.8636     1.0000     0.1364     0.9399     0.9399     0.0000
 32 H      0.8659     1.0000     0.1341     0.9370     0.9370    -0.0000
 33 H      0.8613     1.0000     0.1387     0.9370     0.9370    -0.0000
 34 H      0.8983     1.0000     0.1017     0.9464     0.9464    -0.0000
 35 H      0.5844     1.0000     0.4156     0.8008     0.8008    -0.0000
 36 H      0.8770     1.0000     0.1230     0.9451     0.9451    -0.0000
 37 H      0.8561     1.0000     0.1439     0.9426     0.9426     0.0000
 38 H      0.8485     1.0000     0.1515     0.9403     0.9403    -0.0000
 39 H      0.8464     1.0000     0.1536     0.9445     0.9445     0.0000
 40 H      0.8652     1.0000     0.1348     0.9395     0.9395    -0.0000
 41 H      0.8641     1.0000     0.1359     0.9392     0.9392    -0.0000
 42 H      0.8537     1.0000     0.1463     0.9287     0.9287     0.0000
 43 H      0.8601     1.0000     0.1399     0.9420     0.9420    -0.0000
 44 H      0.8870     1.0000     0.1130     0.9471     0.9471    -0.0000
 45 H      0.8403     1.0000     0.1597     0.9316     0.9316     0.0000
 46 H      0.8541     1.0000     0.1459     0.9374     0.9374    -0.0000
 47 H      0.8440     1.0000     0.1560     0.9334     0.9334    -0.0000
 48 H      0.8534     1.0000     0.1466     0.9403     0.9403     0.0000
 49 H      0.8543     1.0000     0.1457     0.9313     0.9313    -0.0000
 50 H      0.8537     1.0000     0.1463     0.9310     0.9310     0.0000
 51 H      0.8756     1.0000     0.1244     0.9451     0.9451     0.0000
 52 H      0.8565     1.0000     0.1435     0.9403     0.9403     0.0000

  Mayer bond orders larger than 0.100000
B(  0-C ,  1-C ) :   1.0184 B(  0-C , 23-H ) :   0.9495 B(  0-C , 24-H ) :   0.9528 
B(  0-C , 25-H ) :   0.9519 B(  1-C ,  2-C ) :   1.0071 B(  1-C , 26-H ) :   0.9453 
B(  1-C , 27-H ) :   0.9412 B(  2-C ,  3-C ) :   1.0019 B(  2-C , 28-H ) :   0.9383 
B(  2-C , 29-H ) :   0.9418 B(  3-C ,  4-C ) :   0.9919 B(  3-C , 30-H ) :   0.9357 
B(  3-C , 31-H ) :   0.9376 B(  4-C ,  5-C ) :   0.9747 B(  4-C , 32-H ) :   0.9338 
B(  4-C , 33-H ) :   0.9333 B(  5-C ,  6-C ) :   1.4139 B(  5-C , 11-C ) :   1.4024 
B(  6-C ,  7-C ) :   1.3443 B(  6-C , 34-H ) :   0.9206 B(  7-C ,  8-O ) :   0.9128 
B(  7-C ,  9-C ) :   1.3392 B(  8-O , 35-H ) :   0.7675 B(  9-C , 10-C ) :   1.3244 
B(  9-C , 22-C ) :   1.0876 B( 10-C , 11-C ) :   1.3930 B( 10-C , 12-O ) :   0.9078 
B( 11-C , 36-H ) :   0.9161 B( 12-O , 13-C ) :   0.8213 B( 13-C , 14-C ) :   0.9941 
B( 13-C , 15-C ) :   0.9815 B( 13-C , 21-C ) :   0.9959 B( 14-C , 37-H ) :   0.9426 
B( 14-C , 38-H ) :   0.9410 B( 14-C , 39-H ) :   0.9303 B( 15-C , 16-C ) :   0.9788 
B( 15-C , 40-H ) :   0.9266 B( 15-C , 41-H ) :   0.9320 B( 16-C , 17-C ) :   1.0117 
B( 16-C , 42-H ) :   0.9273 B( 16-C , 43-H ) :   0.9217 B( 17-C , 18-C ) :   1.9028 
B( 17-C , 44-H ) :   0.9209 B( 18-C , 19-C ) :   0.9993 B( 18-C , 20-C ) :   1.0089 
B( 19-C , 45-H ) :   0.9386 B( 19-C , 46-H ) :   0.9482 B( 19-C , 47-H ) :   0.9353 
B( 20-C , 48-H ) :   0.9477 B( 20-C , 49-H ) :   0.9365 B( 20-C , 50-H ) :   0.9373 
B( 21-C , 22-C ) :   1.8221 B( 21-C , 51-H ) :   0.9207 B( 22-C , 52-H ) :   0.9204 


-------
TIMINGS
-------

Total SCF time: 0 days 0 hours 5 min 2 sec 

Total time                  ....     302.089 sec
Sum of individual times     ....     301.642 sec  ( 99.9%)

SCF preparation             ....       0.346 sec  (  0.1%)
Fock matrix formation       ....     299.685 sec  ( 99.2%)
  Startup                   ....       0.071 sec  (  0.0% of F)
  Split-RI-J                ....      34.442 sec  ( 11.5% of F)
  Chain of spheres X        ....     234.075 sec  ( 78.1% of F)
  XC integration            ....      30.502 sec  ( 10.2% of F)
    XC Preparation          ....       0.000 sec  (  0.0% of XC)
    Basis function eval.    ....      12.391 sec  ( 40.6% of XC)
    Density eval.           ....       7.014 sec  ( 23.0% of XC)
    XC-Functional eval.     ....       1.665 sec  (  5.5% of XC)
    XC-Potential eval.      ....       8.096 sec  ( 26.5% of XC)
Diagonalization             ....       0.000 sec  (  0.0%)
Density matrix formation    ....       0.343 sec  (  0.1%)
Total Energy calculation    ....       0.063 sec  (  0.0%)
Population analysis         ....       0.058 sec  (  0.0%)
Orbital Transformation      ....       0.120 sec  (  0.0%)
Orbital Orthonormalization  ....       0.000 sec  (  0.0%)
DIIS solution               ....       0.703 sec  (  0.2%)
SOSCF solution              ....       0.324 sec  (  0.1%)
Finished LeanSCF after 302.2 sec

Maximum memory used throughout the entire LEANSCF-calculation: 61.5 MB

-------------------------   --------------------
FINAL SINGLE POINT ENERGY      -968.065822996817
-------------------------   --------------------


------------------------------------------------------------------------------
                              ORCA PROPERTY CALCULATIONS
------------------------------------------------------------------------------

GBWName                                 ... /home/nmrbox/aojoawo/Documents/ERDOS/inputs/CHEMBL422704.gbw
Number of atoms                         ...     53
Number of basis functions               ...    382
Max core memory                         ...   1024 MB

Electric properties:
Dipole moment                           ... YES
Quadrupole moment                       ...  NO
Static polarizability (Dipole/Dipole)   ...  NO
Static polarizability (Dipole/Quad.)    ...  NO
Static polarizability (Quad./Quad.)     ...  NO
Static polarizability (Velocity)        ...  NO

Atomic electric properties:
Dipole moment                           ...  NO
Quadrupole moment                       ...  NO
Static polarizability                   ...  NO

Choice of electric origin               ... Center of mass
Position of electric origin             ...    -0.040777     0.297860     0.372620

General magnetic properties:
Magnetizability                         ...  NO

EPR properties:
g-Tensor (aka g-matrix)                 ...  NO
Zero-Field splitting spin-orbit         ...  NO
Zero-field splitting spin-spin          ...  NO
Hyperfine couplings                     ...  NO (   0 nuclei)
Quadrupole couplings                    ...  NO (   0 nuclei)
Contact density                         ...  NO (   0 nuclei)

NMR properties:
Chemical shifts                         ...  NO (   0 nuclei)
Spin-rotation constants                 ...  NO (   0 nuclei)
Spin-spin couplings                     ...  NO (   0 nuclei,    0 pairs)

Choice of magnetic origin               ... GIAO
Position of magnetic origin             ...     0.000000     0.000000     0.000000

Properties with geometric perturbations:
SCF Hessian                             ...  NO
IR spectrum                             ...  NO
VCD spectrum                            ...  NO
X-ray spectroscopy properties:
SCF XES/XAS/RIXS spectra                ...  NO


-------------
DIPOLE MOMENT
-------------

Method             : SCF
Type of density    : Electron Density
Multiplicity       :   1
Irrep              :   0
Energy             :  -968.0658229968166779 Eh
Relativity type    : 
Basis              : AO
                                X                 Y                 Z
Electronic contribution:     -1.209765277       8.019137719       9.414407014
Nuclear contribution   :      1.436168441      -7.742406753      -8.974545261
                        -----------------------------------------
Total Dipole Moment    :      0.226403164       0.276730967       0.439861753
                        -----------------------------------------
Magnitude (a.u.)       :      0.566848112
Magnitude (Debye)      :      1.440813397



--------------------
Rotational spectrum 
--------------------
 
Rotational constants in cm-1:             0.020182             0.002758             0.002566 
Rotational constants in MHz :           605.031478            82.673117            76.934294 

Dipole components along the rotational axes: 
x,y,z [a.u.] :     0.222947     0.495636     0.161108 
x,y,z [Debye]:     0.566687     1.259808     0.409503 

 

Dipole moment calculation done in   0.0 sec 

Maximum memory used throughout the entire PROP-calculation: 28.2 MB

--------------------------------
SUGGESTED CITATIONS FOR THIS RUN
--------------------------------

Below you find a list of papers that are relevant to this ORCA run
We neither can nor want to force you to cite these papers, but we appreciate if you do
You receive ORCA, which is the product of decades of hard work by many enthusiastic individuals, for free
The only thing we kindly ask in return is that you cite our papers,
We deeply appreciate it, if you show your appreciation for ORCA by not just citing the generic ORCA reference.

Please note that relegating all ORCA citations to the supporting information does *not* help us.
SI sections are not indexed - citations you put there will not count into any citation statistics
But we need these citations in order to attract the funding resources that allow us to do what we are doing

Therefore, if you are a happy ORCA user, please consider citing a few of the papers listed below in the main body of your paper

In addition to the list printed below, the program has created the file /home/nmrbox/aojoawo/Documents/ERDOS/inputs/CHEMBL422704.bibtex that contains the list in bibtex format
You can import this file easily into all common literature databanks and citation aid programs


List of essential papers. We consider these as the minimum necessary citations

  1. Neese,F.
     Software update: the ORCA program system, version 5.0
     WIRES Comput. Molec. Sci., 2022 12(1)e1606
     doi.org/10.1002/wcms.1606

List of papers to cite with high priority. The work reported in these papers was absolutely
necessary for this run to complete.
Our perspective: the developers of density functionals and basis sets usually get cited in chemistry papers
Good! But without the algorithms to do something with them, the functionals or basis sets would not do anything.
Hence, in our opinion, the algorithm design and method developments papers are equally worthy of getting cited

  1. Neese,F.
     An improvement of the resolution of the identity approximation for the formation of the Coulomb matrix
     J. Comp. Chem., 2003 24(14)1740-1747
     doi.org/10.1002/jcc.10318
  2. Neese,F.; Wennmohs,F.; Hansen,A.; Becker,U.
     Efficient, approximate and parallel Hartree-Fock and hybrid DFT calculations. A 'chain-of-spheres' algorithm for the Hartree-Fock exchange
     Chem. Phys., 2009 356(1-3)98-109
     doi.org/10.1016/j.chemphys.2008.10.036
  3. Helmich-Paris,B.; de Souza,B.; Neese,F.; Izsák,R.
     An improved chain of spheres for exchange algorithm
     J. Chem. Phys., 2021 155 104109
     doi.org/doi: 10.1063/5.0058766.
  4. Neese,F.
     The SHARK Integral Generation and Digestion System
     J. Comp. Chem., 2022  1-16
     doi.org/10.1002/jcc.26942

List of suggested additional citations. These are papers that are important in the 'surrounding' of 
of this run, or papers that preceded the highly important papers. If you like your results we are grateful for a citation.

  1. Izsak,R.; Neese,F.
     An overlap fitted chain of spheres exchange method
     J. Chem. Phys., 2011 135 144105
     doi.org/10.1063/1.3646921
  2. Izsak,R.; Hansen,A.; Neese,F.
     The resolution of identity and chain of spheres approximations for the LPNO-CCSD singles Fock term
     Molec. Phys., 2012 110 2413-2417
     doi.org/10.1080/00268976.2012.687466
  3. Neese,F.
     The ORCA program system
     WIRES Comput. Molec. Sci., 2012 2(1)73-78
     doi.org/10.1002/wcms.81
  4. Izsak,R.; Neese,F.; Klopper,W.
     Robust fitting techniques in the chain of spheres approximation to the Fock exchange: The role of the complementary space
     J. Chem. Phys., 2013 139 
     doi.org/10.1063/1.4819264
  5. Neese,F.
     Software update: the ORCA program system, version 4.0
     WIRES Comput. Molec. Sci., 2018 8(1)1-6
     doi.org/10.1002/wcms.1327
  6. Neese,F.; Wennmohs,F.; Becker,U.; Riplinger,C.
     The ORCA quantum chemistry program package
     J. Chem. Phys., 2020 152 Art. No. L224108
     doi.org/10.1063/5.0004608

List of optional additional citations

  1. Neese,F.
     Approximate second-order SCF convergence for spin unrestricted wavefunctions
     Chem. Phys. Lett., 2000 325(1-3)93-98
     doi.org/10.1016/s0009-2614(00)00662-x

Timings for individual modules:

Sum of individual times          ...      315.726 sec (=   5.262 min)
Startup calculation              ...        9.208 sec (=   0.153 min)   2.9 %
SCF iterations                   ...      306.369 sec (=   5.106 min)  97.0 %
Property calculations            ...        0.149 sec (=   0.002 min)   0.0 %
                             ****ORCA TERMINATED NORMALLY****
TOTAL RUN TIME: 0 days 0 hours 5 minutes 16 seconds 388 msec
