
                                 *****************
                                 * O   R   C   A *
                                 *****************

                                            #,                                       
                                            ###                                      
                                            ####                                     
                                            #####                                    
                                            ######                                   
                                           ########,                                 
                                     ,,################,,,,,                         
                               ,,#################################,,                 
                          ,,##########################################,,             
                       ,#########################################, ''#####,          
                    ,#############################################,,   '####,        
                  ,##################################################,,,,####,       
                ,###########''''           ''''###############################       
              ,#####''   ,,,,##########,,,,          '''####'''          '####       
            ,##' ,,,,###########################,,,                        '##       
           ' ,,###''''                  '''############,,,                           
         ,,##''                                '''############,,,,        ,,,,,,###''
      ,#''                                            '''#######################'''  
     '                                                          ''''####''''         
             ,#######,   #######,   ,#######,      ##                                
            ,#'     '#,  ##    ##  ,#'     '#,    #''#        ,####,   ,####,        
            ##       ##  ##   ,#'  ##            #'  '#       #'       #'  '#        
            ##       ##  #######   ##           ,######,      #####,   #    #        
            '#,     ,#'  ##    ##  '#,     ,#' ,#      #,     #,   #   #,  ,#        
             '#######'   ##     ##  '#######'  #'      '#     '####' # '####'        



                #########################################################
                #                        -***-                          #
                #          Department of theory and spectroscopy        #
                #                                                       #
                #                      Frank Neese                      #
                #                                                       #
                #     Directorship, Architecture, Infrastructure        #
                #                    SHARK, DRIVERS                     #
                #        Core code/Algorithms in most modules           #
                #                                                       #
                #        Max Planck Institute fuer Kohlenforschung      #
                #                Kaiser Wilhelm Platz 1                 #
                #                 D-45470 Muelheim/Ruhr                 #
                #                      Germany                          #
                #                                                       #
                #                  All rights reserved                  #
                #                        -***-                          #
                #########################################################


                         Program Version 6.0.0  -   RELEASE  -


 With contributions from (in alphabetic order):
   Daniel Aravena         : Magnetic Suceptibility
   Michael Atanasov       : Ab Initio Ligand Field Theory (pilot matlab implementation)
   Alexander A. Auer      : GIAO ZORA, VPT2 properties, NMR spectrum
   Ute Becker             : All parallelization in ORCA, NUMFREQ, NUMCALC
   Giovanni Bistoni       : ED, misc. LED, open-shell LED, HFLD
   Martin Brehm           : Molecular dynamics
   Dmytro Bykov           : pre 5.0 version of the SCF Hessian
   Marcos Casanova-Páez   : Triplet and SCS-CIS(D). UHF-(DLPNO)-IP/EA/STEOM-CCSD. UHF-CVS-IP/STEOM-CCSD
   Vijay G. Chilkuri      : MRCI spin determinant printing, contributions to CSF-ICE
   Pauline Colinet        : FMM embedding
   Dipayan Datta          : RHF DLPNO-CCSD density
   Achintya Kumar Dutta   : EOM-CC, STEOM-CC
   Nicolas Foglia         : Exact transition moments, OPA infrastructure, MCD improvements
   Dmitry Ganyushin       : Spin-Orbit,Spin-Spin,Magnetic field MRCI
   Miquel Garcia          : C-PCM and meta-GGA Hessian, CCSD/C-PCM, Gaussian charge scheme
   Tiago L. C. Gouveia    : GS-ROHF, GS-ROCIS
   Yang Guo               : DLPNO-NEVPT2, F12-NEVPT2, CIM, IAO-localization
   Andreas Hansen         : Spin unrestricted coupled pair/coupled cluster methods
   Ingolf Harden          : AUTO-CI MPn and infrastructure 
   Benjamin Helmich-Paris : MC-RPA, TRAH-(SCF,CASSCF), AVAS, COSX integrals, SCF dyn. polar.
   Lee Huntington         : MR-EOM, pCC
   Robert Izsak           : Overlap fitted RIJCOSX, COSX-SCS-MP3, EOM
   Riya Kayal             : Wick's Theorem for AUTO-CI, AUTO-CI UHF-CCSDT
   Emily Kempfer          : AUTO-CI, RHF CISDT and CCSDT
   Christian Kollmar      : KDIIS, OOCD, Brueckner-CCSD(T), CCSD density, CASPT2, CASPT2-K, improved NEVPT2
   Axel Koslowski         : Symmetry handling
   Simone Kossmann        : Meta GGA functionals, TD-DFT gradient, OOMP2, (MP2 Hessian; deprecated post 5.0)
   Lucas Lang             : DCDCAS
   Marvin Lechner         : AUTO-CI (C++ implementation), FIC-MRCC
   Spencer Leger          : CASSCF response
   Dagmar Lenk            : GEPOL surface, SMD, ORCA-2-JSON
   Dimitrios Liakos       : Extrapolation schemes; Compound Job, initial MDCI parallelization
   Dimitrios Manganas     : Further ROCIS development; embedding schemes. LFT, Crystal Embedding
   Dimitrios Pantazis     : SARC Basis sets
   Anastasios Papadopoulos: AUTO-CI, single reference methods and gradients
   Taras Petrenko         : pre 6.0 DFT Hessian and TD-DFT gradient, (ASA, deprecated), ECA, 1-Electron XAS/XES, NRVS
   Peter Pinski           : DLPNO-MP2, DLPNO-MP2 Gradient
   Christoph Reimann      : Effective Core Potentials
   Marius Retegan         : Local ZFS, SOC
   Christoph Riplinger    : Optimizer, TS searches, QM/MM, DLPNO-CCSD(T), (RO)-DLPNO pert. Triples
   Michael Roemelt        : Original ROCIS implementation
   Masaaki Saitow         : Open-shell DLPNO-CCSD energy and density
   Barbara Sandhoefer     : DKH picture change effects
   Kantharuban Sivalingam : CASSCF convergence/infrastructure, NEVPT2 and variants, FIC-MRCI
   Bernardo de Souza      : ESD, SOC TD-DFT
   Georgi Stoychev        : AutoAux, RI-MP2 NMR, DLPNO-MP2 response, X2C
   Van Anh Tran           : RI-MP2 g-tensors
   Willem Van den Heuvel  : Paramagnetic NMR
   Zikuan Wang            : NOTCH, Electric field optimization 
   Frank Wennmohs         : Technical directorship and infrastructure
   Hang Xu                : AUTO-CI-Response properties 


 We gratefully acknowledge several colleagues who have allowed us to
 interface, adapt or use parts of their codes:
   Stefan Grimme, W. Hujo, H. Kruse, P. Pracht,  : VdW corrections, initial TS optimization,
                  C. Bannwarth, S. Ehlert,         DFT functionals, gCP, sTDA/sTD-DF
                  L. Wittmann, M. Mueller
   Ed Valeev, F. Pavosevic, A. Kumar             : LibInt (2-el integral package), F12 methods
   Garnet Chan, S. Sharma, J. Yang, R. Olivares  : DMRG
   Ulf Ekstrom                                   : XCFun DFT Library
   Mihaly Kallay                                 : mrcc  (arbitrary order and MRCC methods)
   Frank Weinhold                                : gennbo (NPA and NBO analysis)
   Simon Mueller                                 : openCOSMO-RS
   Christopher J. Cramer and Donald G. Truhlar   : smd solvation model
   Lars Goerigk                                  : TD-DFT with DH, B97 family of functionals
   V. Asgeirsson, H. Jonsson                     : NEB implementation
   FAccTs GmbH                                   : IRC, NEB, NEB-TS, DLPNO-Multilevel, CI-OPT
                                                   MM, QMMM, 2- and 3-layer-ONIOM, Crystal-QMMM,
                                                   LR-CPCM, SF, NACMEs, symmetry and pop. for TD-DFT,
                                                   nearIR, NL-DFT gradient (VV10), updates on ESD,
                                                   ML-optimized integration grids, MBIS, APM,
                                                   GOAT, DOCKER, SOLVATOR, interface openCOSMO-RS
   S Lehtola, MJT Oliveira, MAL Marques          : LibXC Library
   Liviu Ungur et al                             : ANISO software


 Your calculation uses the libint2 library for the computation of 2-el integrals
 For citations please refer to: http://libint.valeyev.net

 Your ORCA version has been built with support for libXC version: 6.2.2
 For citations please refer to: https://libxc.gitlab.io

 This ORCA versions uses:
   CBLAS   interface :  Fast vector & matrix operations
   LAPACKE interface :  Fast linear algebra routines
   SCALAPACK package :  Parallel linear algebra routines
   Shared memory     :  Shared parallel matrices
   BLAS/LAPACK       :  OpenBLAS 0.3.27  USE64BITINT DYNAMIC_ARCH NO_AFFINITY SkylakeX SINGLE_THREADED
        Core in use  :  SkylakeX
   Copyright (c) 2011-2014, The OpenBLAS Project


Warning: RI is on but no J-basis has been assigned. Assigning Def2/J (nothing to worry about!)
================================================================================

----- Orbital basis set information -----
Your calculation utilizes the basis: 6-31G*
   H-He, Li-Ne : W. J. Hehre, R. Ditchfield and J.A. Pople, J. Chem. Phys. 56, 2257 (1972).
                 Note: He and Ne are unpublished basis sets taken from the Gaussian program.
                 Note: Li and B from J. D. Dill and J. A. Pople, J. Chem. Phys. 62, 2921 (1975).
   Na - Ar     : M. M. Francl, W. J. Pietro, W. J. Hehre, J. S. Binkley, M. S. Gordon, 
                 D. J. DeFrees and J. A. Pople, J. Chem. Phys. 77, 3654 (1982).
   K - Zn      : V. A. Rassolov, J. A. Pople, M. A. Ratner, and T. L. Windus, J. Chem. Phys. 109, 1223 (1998).

----- AuxJ basis set information -----
Your calculation utilizes the auxiliary basis: def2/J
   F. Weigend, Phys. Chem. Chem. Phys. 8, 1057 (2006).

================================================================================
                                        WARNINGS
                       Please study these warnings very carefully!
================================================================================


================================================================================
                                       INPUT FILE
================================================================================
NAME = /home/nmrbox/aojoawo/Documents/ERDOS/inputs/CHEMBL3687382.inp
|  1> ! B3LYP 6-31G* SP
|  2> 
|  3> * xyz 0 1
|  4> C -1.9266 6.6246 0.7671
|  5> N -1.4991 5.2867 1.1629
|  6> C -1.7273 4.7256 2.3735
|  7> C -1.1886 3.4494 2.4341
|  8> C -0.6117 3.2390 1.1992
|  9> C 0.1009 2.1488 0.6977
| 10> N 0.3024 0.9560 1.4683
| 11> C -0.8419 0.1197 1.8502
| 12> C -1.0935 -0.9350 0.8049
| 13> C -0.8808 -2.2928 1.0905
| 14> C -1.0367 -3.2565 0.0898
| 15> C -1.4136 -2.8846 -1.2055
| 16> O -1.5312 -3.8914 -2.1771
| 17> C -1.8639 -3.6763 -3.5499
| 18> F -3.1216 -3.1035 -3.6535
| 19> F -1.8715 -4.8930 -4.2060
| 20> F -0.9204 -2.8547 -4.1480
| 21> C -1.6578 -1.5257 -1.4847
| 22> C -1.5061 -0.5627 -0.4838
| 23> S 1.9195 0.3521 1.6862
| 24> O 2.9164 1.4044 1.2910
| 25> O 2.1302 0.0253 3.1378
| 26> C 2.1768 -1.0789 0.6889
| 27> C 2.1285 -0.9741 -0.7076
| 28> C 2.2674 -2.1133 -1.5074
| 29> C 2.4592 -3.3765 -0.9192
| 30> C 2.5889 -4.5885 -1.7583
| 31> O 2.5146 -4.5067 -3.0148
| 32> O 2.7901 -5.8341 -1.1674
| 33> C 2.5262 -3.4729 0.4834
| 34> C 2.3870 -2.3321 1.2814
| 35> N 0.6152 2.2451 -0.5618
| 36> C 0.4413 3.3568 -1.3368
| 37> C -0.2831 4.4630 -0.8563
| 38> Cl -0.4639 5.8733 -1.8913
| 39> C -0.8049 4.3720 0.4457
| 40> H -2.5108 7.1040 1.5804
| 41> H -1.0375 7.2568 0.5582
| 42> H -2.5737 6.5633 -0.1314
| 43> H -2.2559 5.2150 3.1804
| 44> H -1.2041 2.7747 3.2787
| 45> H -0.6484 -0.3417 2.8431
| 46> H -1.7598 0.7370 1.9607
| 47> H -0.5650 -2.6045 2.0787
| 48> H -0.8472 -4.2980 0.3177
| 49> H -1.9582 -1.1998 -2.4709
| 50> H -1.6958 0.4773 -0.7191
| 51> H 1.9738 -0.0123 -1.1797
| 52> H 2.2165 -2.0062 -2.5848
| 53> H 2.8780 -6.6705 -1.7319
| 54> H 2.6733 -4.4311 0.9669
| 55> H 2.4263 -2.4330 2.3590
| 56> H 0.8684 3.3805 -2.3300
| 57> *
| 58> 
| 59>                          ****END OF INPUT****
================================================================================

                       ****************************
                       * Single Point Calculation *
                       ****************************

---------------------------------
CARTESIAN COORDINATES (ANGSTROEM)
---------------------------------
  C     -1.926600    6.624600    0.767100
  N     -1.499100    5.286700    1.162900
  C     -1.727300    4.725600    2.373500
  C     -1.188600    3.449400    2.434100
  C     -0.611700    3.239000    1.199200
  C      0.100900    2.148800    0.697700
  N      0.302400    0.956000    1.468300
  C     -0.841900    0.119700    1.850200
  C     -1.093500   -0.935000    0.804900
  C     -0.880800   -2.292800    1.090500
  C     -1.036700   -3.256500    0.089800
  C     -1.413600   -2.884600   -1.205500
  O     -1.531200   -3.891400   -2.177100
  C     -1.863900   -3.676300   -3.549900
  F     -3.121600   -3.103500   -3.653500
  F     -1.871500   -4.893000   -4.206000
  F     -0.920400   -2.854700   -4.148000
  C     -1.657800   -1.525700   -1.484700
  C     -1.506100   -0.562700   -0.483800
  S      1.919500    0.352100    1.686200
  O      2.916400    1.404400    1.291000
  O      2.130200    0.025300    3.137800
  C      2.176800   -1.078900    0.688900
  C      2.128500   -0.974100   -0.707600
  C      2.267400   -2.113300   -1.507400
  C      2.459200   -3.376500   -0.919200
  C      2.588900   -4.588500   -1.758300
  O      2.514600   -4.506700   -3.014800
  O      2.790100   -5.834100   -1.167400
  C      2.526200   -3.472900    0.483400
  C      2.387000   -2.332100    1.281400
  N      0.615200    2.245100   -0.561800
  C      0.441300    3.356800   -1.336800
  C     -0.283100    4.463000   -0.856300
  Cl    -0.463900    5.873300   -1.891300
  C     -0.804900    4.372000    0.445700
  H     -2.510800    7.104000    1.580400
  H     -1.037500    7.256800    0.558200
  H     -2.573700    6.563300   -0.131400
  H     -2.255900    5.215000    3.180400
  H     -1.204100    2.774700    3.278700
  H     -0.648400   -0.341700    2.843100
  H     -1.759800    0.737000    1.960700
  H     -0.565000   -2.604500    2.078700
  H     -0.847200   -4.298000    0.317700
  H     -1.958200   -1.199800   -2.470900
  H     -1.695800    0.477300   -0.719100
  H      1.973800   -0.012300   -1.179700
  H      2.216500   -2.006200   -2.584800
  H      2.878000   -6.670500   -1.731900
  H      2.673300   -4.431100    0.966900
  H      2.426300   -2.433000    2.359000
  H      0.868400    3.380500   -2.330000

----------------------------
CARTESIAN COORDINATES (A.U.)
----------------------------
  NO LB      ZA    FRAG     MASS         X           Y           Z
   0 C     6.0000    0    12.011   -3.640746   12.518680    1.449609
   1 N     7.0000    0    14.007   -2.832888    9.990415    2.197563
   2 C     6.0000    0    12.011   -3.264124    8.930090    4.485265
   3 C     6.0000    0    12.011   -2.246128    6.518421    4.599782
   4 C     6.0000    0    12.011   -1.155945    6.120823    2.266160
   5 C     6.0000    0    12.011    0.190673    4.060644    1.318462
   6 N     7.0000    0    14.007    0.571453    1.806578    2.774685
   7 C     6.0000    0    12.011   -1.590960    0.226200    3.496371
   8 C     6.0000    0    12.011   -2.066416   -1.766894    1.521041
   9 C     6.0000    0    12.011   -1.664471   -4.332764    2.060746
  10 C     6.0000    0    12.011   -1.959079   -6.153893    0.169697
  11 C     6.0000    0    12.011   -2.671317   -5.451104   -2.278065
  12 O     8.0000    0    15.999   -2.893549   -7.353680   -4.114123
  13 C     6.0000    0    12.011   -3.522261   -6.947200   -6.708339
  14 F     9.0000    0    18.998   -5.898969   -5.864765   -6.904114
  15 F     9.0000    0    18.998   -3.536622   -9.246430   -7.948188
  16 F     9.0000    0    18.998   -1.739304   -5.394601   -7.838584
  17 C     6.0000    0    12.011   -3.132788   -2.883155   -2.805676
  18 C     6.0000    0    12.011   -2.846117   -1.063349   -0.914250
  19 S    16.0000    0    32.060    3.627329    0.665373    3.186456
  20 O     8.0000    0    15.999    5.511197    2.653931    2.439636
  21 O     8.0000    0    15.999    4.025495    0.047810    5.929583
  22 C     6.0000    0    12.011    4.113556   -2.038826    1.301832
  23 C     6.0000    0    12.011    4.022282   -1.840782   -1.337170
  24 C     6.0000    0    12.011    4.284765   -3.993558   -2.848573
  25 C     6.0000    0    12.011    4.647215   -6.380660   -1.737036
  26 C     6.0000    0    12.011    4.892312   -8.671008   -3.322705
  27 O     8.0000    0    15.999    4.751905   -8.516429   -5.697146
  28 O     8.0000    0    15.999    5.272525  -11.024851   -2.206066
  29 C     6.0000    0    12.011    4.773826   -6.562830    0.913494
  30 C     6.0000    0    12.011    4.510776   -4.407030    2.421495
  31 N     7.0000    0    14.007    1.162560    4.242624   -1.061648
  32 C     6.0000    0    12.011    0.833936    6.343433   -2.526186
  33 C     6.0000    0    12.011   -0.534981    8.433848   -1.618172
  34 Cl   17.0000    0    35.453   -0.876644   11.098929   -3.574039
  35 C     6.0000    0    12.011   -1.521041    8.261883    0.842251
  36 H     1.0000    0     1.008   -4.744724   13.424614    2.986523
  37 H     1.0000    0     1.008   -1.960591   13.713365    1.054845
  38 H     1.0000    0     1.008   -4.863588   12.402840   -0.248310
  39 H     1.0000    0     1.008   -4.263033    9.854922    6.010085
  40 H     1.0000    0     1.008   -2.275419    5.243423    6.195845
  41 H     1.0000    0     1.008   -1.225298   -0.645719    5.372680
  42 H     1.0000    0     1.008   -3.325540    1.392728    3.705186
  43 H     1.0000    0     1.008   -1.067695   -4.921792    3.928174
  44 H     1.0000    0     1.008   -1.600976   -8.122043    0.600366
  45 H     1.0000    0     1.008   -3.700462   -2.267293   -4.669324
  46 H     1.0000    0     1.008   -3.204598    0.901966   -1.358902
  47 H     1.0000    0     1.008    3.729941   -0.023244   -2.229310
  48 H     1.0000    0     1.008    4.188578   -3.791169   -4.884564
  49 H     1.0000    0     1.008    5.438632  -12.605418   -3.272817
  50 H     1.0000    0     1.008    5.051805   -8.373565    1.827176
  51 H     1.0000    0     1.008    4.585043   -4.597704    4.457864
  52 H     1.0000    0     1.008    1.641038    6.388219   -4.403062

--------------------------------
INTERNAL COORDINATES (ANGSTROEM)
--------------------------------
 C      0   0   0     0.000000000000     0.00000000     0.00000000
 N      1   0   0     1.459243057205     0.00000000     0.00000000
 C      2   1   0     1.353684161834   124.97447550     0.00000000
 C      3   2   1     1.386562833052   110.79942474   180.27776744
 C      4   3   2     1.379151833556   105.29547220   359.96683124
 C      5   4   3     1.395649329165   130.88134262   178.33989425
 N      6   5   4     1.434293711204   121.89025695     2.76261915
 C      7   6   5     1.467878670054   120.26966485    64.75247697
 C      8   7   6     1.506103163797   110.40377317    90.72797743
 C      9   8   7     1.403719875901   120.72067540   112.45889918
 C     10   9   8     1.398006791829   120.28180851   184.00132779
 C     11  10   9     1.399344600161   120.62487994   359.61957943
 O     12  11  10     1.404094925566   118.19782540   178.83777099
 C     13  12  11     1.428823691013   125.19770896   182.06564475
 F     14  13  12     1.385872320959   110.20369918   298.65014274
 F     14  13  12     1.382347228449   108.95309208   179.26757086
 F     14  13  12     1.386701993941   110.19192372    60.09929925
 C     12  11  10     1.408614741510   119.11423164   358.89373039
 C     18  12  11     1.397205317768   120.27138952     0.90465837
 S      7   6   5     1.739881613789   119.11158218   233.26721940
 O     20   7   6     1.502440661058   109.91662915    14.20440498
 O     20   7   6     1.502775861531   109.07264194   132.75449987
 C     20   7   6     1.763114171005   110.27383068   254.21102855
 C     23  20   7     1.401259497738   119.86734067    64.09626831
 C     24  23  20     1.398838764833   120.36369772   183.06814366
 C     25  24  23     1.406570552799   120.38587391   359.89999977
 C     26  25  24     1.479815833136   120.68843861   179.18073775
 O     27  26  25     1.261350062433   120.43579201   359.23205012
 O     27  26  25     1.393256476748   120.29106111   179.45042970
 C     26  25  24     1.407504429833   118.99432453   359.18959769
 C     30  26  25     1.399144481460   120.51617357     0.81208025
 N      6   5   4     1.363861587552   117.98353376   182.99908653
 C     32   6   5     1.366288073577   122.22747300   359.29637607
 C     33  32   6     1.406880965114   120.76866976     0.17258667
 Cl    34  33  32     1.758652816789   118.84666874   179.46806617
 C      2   1   3     1.353870588350   128.75331058   180.77761812
 H      1   2   3     1.110212092350   110.57063753   357.21773241
 H      1   2   3     1.110772190865   109.77584433   116.58644314
 H      1   2   3     1.108962736074   109.87855251   237.99630047
 H      3   2   1     1.081673670753   124.19194884     0.05426793
 H      4   3   2     1.081114933761   127.08351168   178.92058119
 H      8   7   6     1.111837497119   109.45711230   213.19435956
 H      8   7   6     1.111669892549   110.68145532   330.37944466
 H     10   9   8     1.083247787905   120.53831445     2.12378798
 H     11  10   9     1.082853134086   119.52794083   178.58698611
 H     18  12  11     1.081222183457   121.31450253   180.47685069
 H     19  18  12     1.083029168582   119.15640011   179.82294093
 H     24  23  20     1.082529325238   120.39787201     2.47836882
 H     25  24  23     1.083905890749   118.89433751   179.40266865
 H     29  27  26     1.012892699154   120.95788198   179.85079383
 H     30  26  25     1.083308774081   120.78424492   180.01041462
 H     31  30  26     1.083026804839   119.20383018   179.03208739
 H     33  32   6     1.081398326242   119.24404071   180.14294423

---------------------------
INTERNAL COORDINATES (A.U.)
---------------------------
 C      0   0   0     0.000000000000     0.00000000     0.00000000
 N      1   0   0     2.757569740943     0.00000000     0.00000000
 C      2   1   0     2.558092337693   124.97447550     0.00000000
 C      3   2   1     2.620224021941   110.79942474   180.27776744
 C      4   3   2     2.606219262516   105.29547220   359.96683124
 C      5   4   3     2.637395011114   130.88134262   178.33989425
 N      6   5   4     2.710422309782   121.89025695     2.76261915
 C      7   6   5     2.773888684227   120.26966485    64.75247697
 C      8   7   6     2.846122509009   110.40377317    90.72797743
 C      9   8   7     2.652646134195   120.72067540   112.45889918
 C     10   9   8     2.641849969919   120.28180851   184.00132779
 C     11  10   9     2.644378061286   120.62487994   359.61957943
 O     12  11  10     2.653354875348   118.19782540   178.83777099
 C     13  12  11     2.700085469673   125.19770896   182.06564475
 F     14  13  12     2.618919143194   110.20369918   298.65014274
 F     14  13  12     2.612257683753   108.95309208   179.26757086
 F     14  13  12     2.620486997911   110.19192372    60.09929925
 C     12  11  10     2.661896089659   119.11423164   358.89373039
 C     18  12  11     2.640335403440   120.27138952     0.90465837
 S      7   6   5     3.287899755506   119.11158218   233.26721940
 O     20   7   6     2.839201381867   109.91662915    14.20440498
 O     20   7   6     2.839834818961   109.07264194   132.75449987
 C     20   7   6     3.331802926036   110.27383068   254.21102855
 C     23  20   7     2.647996693280   119.86734067    64.09626831
 C     24  23  20     2.643422171047   120.36369772   183.06814366
 C     25  24  23     2.658033132827   120.38587391   359.89999977
 C     26  25  24     2.796446653268   120.68843861   179.18073775
 O     27  26  25     2.383606177003   120.43579201   359.23205012
 O     27  26  25     2.632873175366   120.29106111   179.45042970
 C     26  25  24     2.659797904666   118.99432453   359.18959769
 C     30  26  25     2.643999891747   120.51617357     0.81208025
 N      6   5   4     2.577324885048   117.98353376   182.99908653
 C     32   6   5     2.581910279104   122.22747300   359.29637607
 C     33  32   6     2.658619727092   120.76866976     0.17258667
 Cl    34  33  32     3.323372188380   118.84666874   179.46806617
 C      2   1   3     2.558444632753   128.75331058   180.77761812
 H      1   2   3     2.097996805109   110.57063753   357.21773241
 H      1   2   3     2.099055237911   109.77584433   116.58644314
 H      1   2   3     2.095635863903   109.87855251   237.99630047
 H      3   2   1     2.044067003996   124.19194884     0.05426793
 H      4   3   2     2.043011144100   127.08351168   178.92058119
 H      8   7   6     2.101068374980   109.45711230   213.19435956
 H      8   7   6     2.100751648243   110.68145532   330.37944466
 H     10   9   8     2.047041654316   120.53831445     2.12378798
 H     11  10   9     2.046295866681   119.52794083   178.58698611
 H     18  12  11     2.043213816655   121.31450253   180.47685069
 H     19  18  12     2.046628523669   119.15640011   179.82294093
 H     24  23  20     2.045683956638   120.39787201     2.47836882
 H     25  24  23     2.048285288459   118.89433751   179.40266865
 H     29  27  26     1.914089804450   120.95788198   179.85079383
 H     30  26  25     2.047156901486   120.78424492   180.01041462
 H     31  30  26     2.046624056842   119.20383018   179.03208739
 H     33  32   6     2.043546678279   119.24404071   180.14294423

---------------------
BASIS SET INFORMATION
---------------------
There are 7 groups of distinct atoms

 Group   1 Type C   : 10s4p1d contracted to 3s2p1d pattern {631/31/1}
 Group   2 Type N   : 10s4p1d contracted to 3s2p1d pattern {631/31/1}
 Group   3 Type O   : 10s4p1d contracted to 3s2p1d pattern {631/31/1}
 Group   4 Type F   : 10s4p1d contracted to 3s2p1d pattern {631/31/1}
 Group   5 Type S   : 16s10p1d contracted to 4s3p1d pattern {6631/631/1}
 Group   6 Type Cl  : 16s10p1d contracted to 4s3p1d pattern {6631/631/1}
 Group   7 Type H   : 4s contracted to 2s pattern {31}

Atom   0C    basis set group =>   1
Atom   1N    basis set group =>   2
Atom   2C    basis set group =>   1
Atom   3C    basis set group =>   1
Atom   4C    basis set group =>   1
Atom   5C    basis set group =>   1
Atom   6N    basis set group =>   2
Atom   7C    basis set group =>   1
Atom   8C    basis set group =>   1
Atom   9C    basis set group =>   1
Atom  10C    basis set group =>   1
Atom  11C    basis set group =>   1
Atom  12O    basis set group =>   3
Atom  13C    basis set group =>   1
Atom  14F    basis set group =>   4
Atom  15F    basis set group =>   4
Atom  16F    basis set group =>   4
Atom  17C    basis set group =>   1
Atom  18C    basis set group =>   1
Atom  19S    basis set group =>   5
Atom  20O    basis set group =>   3
Atom  21O    basis set group =>   3
Atom  22C    basis set group =>   1
Atom  23C    basis set group =>   1
Atom  24C    basis set group =>   1
Atom  25C    basis set group =>   1
Atom  26C    basis set group =>   1
Atom  27O    basis set group =>   3
Atom  28O    basis set group =>   3
Atom  29C    basis set group =>   1
Atom  30C    basis set group =>   1
Atom  31N    basis set group =>   2
Atom  32C    basis set group =>   1
Atom  33C    basis set group =>   1
Atom  34Cl   basis set group =>   6
Atom  35C    basis set group =>   1
Atom  36H    basis set group =>   7
Atom  37H    basis set group =>   7
Atom  38H    basis set group =>   7
Atom  39H    basis set group =>   7
Atom  40H    basis set group =>   7
Atom  41H    basis set group =>   7
Atom  42H    basis set group =>   7
Atom  43H    basis set group =>   7
Atom  44H    basis set group =>   7
Atom  45H    basis set group =>   7
Atom  46H    basis set group =>   7
Atom  47H    basis set group =>   7
Atom  48H    basis set group =>   7
Atom  49H    basis set group =>   7
Atom  50H    basis set group =>   7
Atom  51H    basis set group =>   7
Atom  52H    basis set group =>   7
---------------------------------
AUXILIARY/J BASIS SET INFORMATION
---------------------------------
There are 7 groups of distinct atoms

 Group   1 Type C   : 12s5p4d2f1g contracted to 6s4p3d1f1g pattern {711111/2111/211/2/1}
 Group   2 Type N   : 12s5p4d2f1g contracted to 6s4p3d1f1g pattern {711111/2111/211/2/1}
 Group   3 Type O   : 12s5p4d2f1g contracted to 6s4p3d1f1g pattern {711111/2111/211/2/1}
 Group   4 Type F   : 12s5p4d2f1g contracted to 6s4p3d1f1g pattern {711111/2111/211/2/1}
 Group   5 Type S   : 14s5p5d2f1g contracted to 8s4p3d1f1g pattern {71111111/2111/311/2/1}
 Group   6 Type Cl  : 14s5p5d2f1g contracted to 8s4p3d1f1g pattern {71111111/2111/311/2/1}
 Group   7 Type H   : 5s2p1d contracted to 3s1p1d pattern {311/2/1}

Atom   0C    basis set group =>   1
Atom   1N    basis set group =>   2
Atom   2C    basis set group =>   1
Atom   3C    basis set group =>   1
Atom   4C    basis set group =>   1
Atom   5C    basis set group =>   1
Atom   6N    basis set group =>   2
Atom   7C    basis set group =>   1
Atom   8C    basis set group =>   1
Atom   9C    basis set group =>   1
Atom  10C    basis set group =>   1
Atom  11C    basis set group =>   1
Atom  12O    basis set group =>   3
Atom  13C    basis set group =>   1
Atom  14F    basis set group =>   4
Atom  15F    basis set group =>   4
Atom  16F    basis set group =>   4
Atom  17C    basis set group =>   1
Atom  18C    basis set group =>   1
Atom  19S    basis set group =>   5
Atom  20O    basis set group =>   3
Atom  21O    basis set group =>   3
Atom  22C    basis set group =>   1
Atom  23C    basis set group =>   1
Atom  24C    basis set group =>   1
Atom  25C    basis set group =>   1
Atom  26C    basis set group =>   1
Atom  27O    basis set group =>   3
Atom  28O    basis set group =>   3
Atom  29C    basis set group =>   1
Atom  30C    basis set group =>   1
Atom  31N    basis set group =>   2
Atom  32C    basis set group =>   1
Atom  33C    basis set group =>   1
Atom  34Cl   basis set group =>   6
Atom  35C    basis set group =>   1
Atom  36H    basis set group =>   7
Atom  37H    basis set group =>   7
Atom  38H    basis set group =>   7
Atom  39H    basis set group =>   7
Atom  40H    basis set group =>   7
Atom  41H    basis set group =>   7
Atom  42H    basis set group =>   7
Atom  43H    basis set group =>   7
Atom  44H    basis set group =>   7
Atom  45H    basis set group =>   7
Atom  46H    basis set group =>   7
Atom  47H    basis set group =>   7
Atom  48H    basis set group =>   7
Atom  49H    basis set group =>   7
Atom  50H    basis set group =>   7
Atom  51H    basis set group =>   7
Atom  52H    basis set group =>   7
------------------------------------------------------------------------------
                             ORCA STARTUP CALCULATIONS
                           -- RI-GTO INTEGRALS CHOSEN --
------------------------------------------------------------------------------
------------------------------------------------------------------------------
                   ___                                                        
                  /   \      - P O W E R E D   B Y -                         
                 /     \                                                     
                 |  |  |   _    _      __       _____    __    __             
                 |  |  |  | |  | |    /  \     |  _  \  |  |  /  |          
                  \  \/   | |  | |   /    \    | | | |  |  | /  /          
                 / \  \   | |__| |  /  /\  \   | |_| |  |  |/  /          
                |  |  |   |  __  | /  /__\  \  |    /   |      \           
                |  |  |   | |  | | |   __   |  |    \   |  |\   \          
                \     /   | |  | | |  |  |  |  | |\  \  |  | \   \       
                 \___/    |_|  |_| |__|  |__|  |_| \__\ |__|  \__/        
                                                                              
                      - O R C A' S   B I G   F R I E N D -                    
                                      &                                       
                       - I N T E G R A L  F E E D E R -                       
                                                                              
 v1 FN, 2020, v2 2021, v3 2022-2024                                           
------------------------------------------------------------------------------


----------------------
SHARK INTEGRAL PACKAGE
----------------------

Number of atoms                             ...     53
Number of basis functions                   ...    546
Number of shells                            ...    254
Maximum angular momentum                    ...      2
Integral batch strategy                     ... SHARK/LIBINT Hybrid
RI-J (if used) integral strategy            ... SPLIT-RIJ (Revised 2003 algorithm where possible)
Printlevel                                  ...      1
Contraction scheme used                     ... SEGMENTED contraction
Prescreening option                         ... SCHWARTZ
   Thresh                                   ... 1.000e-10
   Tcut                                     ... 1.000e-11
   Tpresel                                  ... 1.000e-11 
Coulomb Range Separation                    ... NOT USED
Exchange Range Separation                   ... NOT USED
Multipole approximations                    ... NOT USED
Finite Nucleus Model                        ... NOT USED
CABS basis                                  ... NOT available
Auxiliary Coulomb fitting basis             ... AVAILABLE
   # of basis functions in Aux-J            ...   1955
   # of shells in Aux-J                     ...    629
   Maximum angular momentum in Aux-J        ...      4
Auxiliary J/K fitting basis                 ... NOT available
Auxiliary Correlation fitting basis         ... NOT available
Auxiliary 'external' fitting basis          ... NOT available

Checking pre-screening integrals            ... done (  0.0 sec) Dimension = 254
Check shell pair data                       ... done (  0.0 sec)
Shell pair information
Shell pair cut-off parameter TPreSel        ...   1.0e-11
Total number of shell pairs                 ...     32385
Shell pairs after pre-screening             ...     18547
Total number of primitive shell pairs       ...    200895
Primitive shell pairs kept                  ...     57038
          la=0 lb=0:   5560 shell pairs
          la=1 lb=0:   6633 shell pairs
          la=1 lb=1:   1968 shell pairs
          la=2 lb=0:   2489 shell pairs
          la=2 lb=1:   1594 shell pairs
          la=2 lb=2:    303 shell pairs

Calculating one electron integrals          ... done (  0.3 sec)
Calculating RI/J V-Matrix + Cholesky decomp.... done (  0.5 sec)
Calculating Nuclear repulsion               ... done (  0.0 sec) ENN=   4431.949500388001 Eh

Diagonalization of the overlap matrix:
Smallest eigenvalue                        ... 4.520e-04
Time for diagonalization                   ...    0.053 sec
Threshold for overlap eigenvalues          ... 1.000e-07
Number of eigenvalues below threshold      ... 0
Time for construction of square roots      ...    0.165 sec
Total time needed                          ...    0.227 sec

-------------------
DFT GRID GENERATION
-------------------

General Integration Accuracy     IntAcc      ... 4.388
Radial Grid Type                 RadialGrid  ... OptM3 with GC (2021)
Angular Grid (max. ang.)         AngularGrid ... 4 (Lebedev-302)
Angular grid pruning method      GridPruning ... 4 (adaptive)
Weight generation scheme         WeightScheme... mBecke (2022)
Basis function cutoff            BFCut       ... 1.0000e-10
Integration weight cutoff        WCut        ... 1.0000e-14
Partially contracted basis set               ... off
Rotationally invariant grid construction     ... off
Angular grids for H and He will be reduced by one unit

Total number of grid points                  ...   271176
Total number of batches                      ...     4260
Average number of points per batch           ...       63
Average number of grid points per atom       ...     5117

--------------------
COSX GRID GENERATION
--------------------

GRIDX 1
-------
General Integration Accuracy     IntAcc      ... 3.816
Radial Grid Type                 RadialGrid  ... OptM3 with GC (2021)
Angular Grid (max. ang.)         AngularGrid ... 1 (Lebedev-50)
Angular grid pruning method      GridPruning ... 4 (adaptive)
Weight generation scheme         WeightScheme... mBecke (2022)
Basis function cutoff            BFCut       ... 1.0000e-10
Integration weight cutoff        WCut        ... 1.0000e-14
Partially contracted basis set               ... on
Rotationally invariant grid construction     ... off
Angular grids for H and He will be reduced by one unit

Total number of grid points                  ...    36314
Total number of batches                      ...      309
Average number of points per batch           ...      117
Average number of grid points per atom       ...      685
UseSFitting                                  ... on

GRIDX 2
-------
General Integration Accuracy     IntAcc      ... 4.020
Radial Grid Type                 RadialGrid  ... OptM3 with GC (2021)
Angular Grid (max. ang.)         AngularGrid ... 2 (Lebedev-110)
Angular grid pruning method      GridPruning ... 4 (adaptive)
Weight generation scheme         WeightScheme... mBecke (2022)
Basis function cutoff            BFCut       ... 1.0000e-10
Integration weight cutoff        WCut        ... 1.0000e-14
Partially contracted basis set               ... on
Rotationally invariant grid construction     ... off
Angular grids for H and He will be reduced by one unit

Total number of grid points                  ...    75501
Total number of batches                      ...      620
Average number of points per batch           ...      121
Average number of grid points per atom       ...     1425
UseSFitting                                  ... on

GRIDX 3
-------
General Integration Accuracy     IntAcc      ... 4.338
Radial Grid Type                 RadialGrid  ... OptM3 with GC (2021)
Angular Grid (max. ang.)         AngularGrid ... 3 (Lebedev-194)
Angular grid pruning method      GridPruning ... 4 (adaptive)
Weight generation scheme         WeightScheme... mBecke (2022)
Basis function cutoff            BFCut       ... 1.0000e-10
Integration weight cutoff        WCut        ... 1.0000e-14
Partially contracted basis set               ... on
Rotationally invariant grid construction     ... off
Angular grids for H and He will be reduced by one unit

Total number of grid points                  ...   166280
Total number of batches                      ...     1323
Average number of points per batch           ...      125
Average number of grid points per atom       ...     3137
UseSFitting                                  ... on
Initializing property integral containers    ... done (  0.0 sec)

SHARK setup successfully completed in  16.3 seconds

Maximum memory used throughout the entire STARTUP-calculation: 121.5 MB
-------------------------------------------------------------------------------
                                 ORCA GUESS
                   Start orbitals & Density for SCF / CASSCF
-------------------------------------------------------------------------------

------------
SCF SETTINGS
------------
Hamiltonian:
 Density Functional     Method          .... DFT(GTOs)
 Exchange Functional    Exchange        .... B88
   X-Alpha parameter    XAlpha          ....  0.666667
   Becke's b parameter  XBeta           ....  0.004200
 Correlation Functional Correlation     .... LYP
 LDA part of GGA corr.  LDAOpt          .... VWN-5
 Gradients option       PostSCFGGA      .... off
 Hybrid DFT is turned on
   Fraction HF Exchange ScalHFX         ....  0.200000
   Scaling of DF-GGA-X  ScalDFX         ....  0.720000
   Scaling of DF-GGA-C  ScalDFC         ....  0.810000
   Scaling of DF-LDA-C  ScalLDAC        ....  1.000000
   Perturbative correction              ....  0.000000
   NL short-range parameter             ....  4.800000
 RI-approximation to the Coulomb term is turned on
   Number of AuxJ basis functions       .... 1955
   RIJ-COSX (HFX calculated with COS-X)).... on


General Settings:
 Integral files         IntName         .... /home/nmrbox/aojoawo/Documents/ERDOS/inputs/CHEMBL3687382
 Hartree-Fock type      HFTyp           .... RHF
 Total Charge           Charge          ....    0
 Multiplicity           Mult            ....    1
 Number of Electrons    NEL             ....  276
 Basis Dimension        Dim             ....  546
 Nuclear Repulsion      ENuc            ....   4431.9495003880 Eh

Convergence Acceleration:
 AO-DIIS                CNVDIIS         .... on
   Start iteration      DIISMaxIt       ....    12
   Startup error        DIISStart       ....  0.200000
   # of expansion vecs  DIISMaxEq       ....     5
   Bias factor          DIISBfac        ....   1.050
   Max. coefficient     DIISMaxC        ....  10.000
 MO-DIIS                CNVKDIIS        .... off
 Trust-Rad. Augm. Hess. CNVTRAH         .... auto
   Auto Start mean grad. ratio tolernc. ....  1.125000
   Auto Start start iteration           ....    50
   Auto Start num. interpolation iter.  ....    10
   Max. Number of Micro iterations      ....    24
   Max. Number of Macro iterations      .... Maxiter - #DIIS iter
   Number of Davidson start vectors     ....     2
   Converg. threshold    (grad. norm)   ....   5.000e-05
   Grad. Scal. Fac. for Micro threshold ....   0.100
   Minimum threshold for Micro iter.    ....   1.000e-02
   NR start threshold (gradient norm)   ....   1.000e-04
   Initial trust radius                 ....   0.400
   Minimum AH scaling param. (alpha)    ....   1.000
   Maximum AH scaling param. (alpha)    .... 1000.000
   Quad. conv. algorithm                .... NR
   White noise on init. David. guess    .... on
   Maximum white noise                  ....   0.010
   Pseudo random numbers                .... off
   Inactive MOs                         .... canonical
   Orbital update algorithm             .... Taylor
   Preconditioner                       .... Diag
   Full preconditioner red. dimension   ....   250
 SOSCF                  CNVSOSCF        .... on
   Start iteration      SOSCFMaxIt      ....   150
   Startup grad/error   SOSCFStart      ....  0.003300
   Hessian update       SOSCFHessUp     .... L-BFGS
 Level Shifting         CNVShift        .... on
   Level shift para.    LevelShift      ....    0.2500
   Turn off err/grad.   ShiftErr        ....    0.0010
 Zerner damping         CNVZerner       .... off
 Static damping         CNVDamp         .... on
   Fraction old density DampFac         ....    0.7000
   Max. Damping (<1)    DampMax         ....    0.9800
   Min. Damping (>=0)   DampMin         ....    0.0000
   Turn off err/grad.   DampErr         ....    0.1000

SCF Procedure:
 Maximum # iterations   MaxIter         ....   125
 SCF integral mode      SCFMode         .... Direct
   Integral package                     .... SHARK and LIBINT hybrid scheme
 Reset frequency        DirectResetFreq ....    20
 Integral Threshold     Thresh          ....  1.000e-10 Eh
 Primitive CutOff       TCut            ....  1.000e-11 Eh

Convergence Tolerance:
 Convergence Check Mode ConvCheckMode   .... Total+1el-Energy
 Convergence forced     ConvForced      .... 0
 Energy Change          TolE            ....  1.000e-06 Eh
 1-El. energy change                    ....  1.000e-03 Eh
 Orbital Gradient       TolG            ....  5.000e-05
 Orbital Rotation angle TolX            ....  5.000e-05
 DIIS Error             TolErr          ....  1.000e-06

------------------------------
INITIAL GUESS: MODEL POTENTIAL
------------------------------
Loading Hartree-Fock densities                     ... done
Calculating cut-offs                               ... done
Initializing the effective Hamiltonian             ... done
Setting up the integral package (SHARK)            ... done
Starting the Coulomb interaction                   ... done (   4.9 sec)
Making the grid                                    ... done (   1.9 sec)
Mapping shells                                     ... done
Starting the XC term evaluation                    ... done (   1.6 sec)
  promolecular density results
     # of electrons  =    275.999396868
     EX              =   -266.789778184
     EC              =     -9.910450754
     EX+EC           =   -276.700228938
Transforming the Hamiltonian                       ... done (   0.0 sec)
Diagonalizing the Hamiltonian                      ... done (   0.1 sec)
Back transforming the eigenvectors                 ... done (   0.0 sec)
Now organizing SCF variables                       ... done
                      ------------------
                      INITIAL GUESS DONE (   8.5 sec)
                      ------------------
             **** ENERGY FILE WAS UPDATED (/home/nmrbox/aojoawo/Documents/ERDOS/inputs/CHEMBL3687382.en.tmp) ****
Finished Guess after   8.8 sec
Maximum memory used throughout the entire GUESS-calculation: 68.8 MB

-------------------------------------------------------------------------------------------
                                      ORCA LEAN-SCF
                              memory conserving SCF solver
-------------------------------------------------------------------------------------------

----------------------------------------D-I-I-S--------------------------------------------
Iteration    Energy (Eh)           Delta-E    RMSDP     MaxDP     DIISErr   Damp  Time(sec)
-------------------------------------------------------------------------------------------
               ***  Starting incremental Fock matrix formation  ***
    1    -2582.7734471360154203     0.00e+00  2.38e-03  1.88e-01  2.99e-01  0.700  88.8
    2    -2583.2613117104356206    -4.88e-01  1.42e-03  7.90e-02  1.01e-01  0.700  39.5
                               ***Turning on AO-DIIS***
    3    -2583.4244997919149682    -1.63e-01  5.43e-04  1.66e-02  3.63e-02  0.700  37.8
    4    -2583.5328223829283161    -1.08e-01  9.34e-04  3.25e-02  1.71e-02  0.000  34.6
    5    -2583.7785766686201896    -2.46e-01  2.24e-04  7.47e-03  7.21e-03  0.000  36.3
                              *** Initializing SOSCF ***
---------------------------------------S-O-S-C-F--------------------------------------
Iteration    Energy (Eh)           Delta-E    RMSDP     MaxDP     MaxGrad    Time(sec)
--------------------------------------------------------------------------------------
    6    -2583.7801960694268928    -1.62e-03  7.50e-05  2.90e-03  2.63e-03    31.6
               *** Restarting incremental Fock matrix formation ***
    7    -2583.7802956318300858    -9.96e-05  7.58e-05  3.44e-03  4.82e-04    89.0
    8    -2583.7802027091893251     9.29e-05  4.97e-05  2.39e-03  1.71e-03    50.6
    9    -2583.7803276285912943    -1.25e-04  1.23e-05  8.12e-04  1.46e-04    46.4
   10    -2583.7803250514471074     2.58e-06  7.77e-06  5.90e-04  1.98e-04    36.2
   11    -2583.7803288670193069    -3.82e-06  2.65e-06  1.11e-04  1.92e-05    32.7
   12    -2583.7803288266995878     4.03e-08  1.65e-06  7.62e-05  3.77e-05    25.9
                 **** Energy Check signals convergence ****

               *****************************************************
               *                     SUCCESS                       *
               *           SCF CONVERGED AFTER  12 CYCLES          *
               *****************************************************

Recomputing exchange energy using gridx3       ... done (  155.808 sec)
Old exchange energy                            :    -53.795424789 Eh
New exchange energy                            :    -53.795463496 Eh
Exchange energy change after final integration :     -0.000038707 Eh
Total energy after final integration           :  -2583.780367534 Eh
             **** ENERGY FILE WAS UPDATED (/home/nmrbox/aojoawo/Documents/ERDOS/inputs/CHEMBL3687382.en.tmp) ****

----------------
TOTAL SCF ENERGY
----------------

Total Energy       :      -2583.78036753363313 Eh          -70308.23820 eV

Components:
Nuclear Repulsion  :       4431.94950038800107 Eh          120599.47706 eV
Electronic Energy  :      -7015.72982921470066 Eh         -190907.71421 eV
One Electron Energy:     -12371.67275439862897 Eh         -336650.33062 eV
Two Electron Energy:       5355.94292518392831 Eh          145742.61641 eV

Virial components:
Potential Energy   :      -5154.89646983399962 Eh         -140271.86423 eV
Kinetic Energy     :       2571.11610230036649 Eh           69963.62603 eV
Virial Ratio       :          2.00492559057210

DFT components:
N(Alpha)           :      138.000042325027 electrons
N(Beta)            :      138.000042325027 electrons
N(Total)           :      276.000084650053 electrons
E(X)               :     -213.886881947028 Eh       
E(C)               :      -11.621596547533 Eh       
E(XC)              :     -225.508478494561 Eh       

---------------
SCF CONVERGENCE
---------------

  Last Energy change         ...   -4.0320e-08  Tolerance :   1.0000e-06
  Last MAX-Density change    ...    7.6163e-05  Tolerance :   1.0000e-05
  Last RMS-Density change    ...    1.6482e-06  Tolerance :   1.0000e-06
  Last DIIS Error            ...    2.6333e-03  Tolerance :   1.0000e-06
  Last Orbital Gradient      ...    3.7689e-05  Tolerance :   5.0000e-05
  Last Orbital Rotation      ...    7.3211e-05  Tolerance :   5.0000e-05


----------------
ORBITAL ENERGIES
----------------

  NO   OCC          E(Eh)            E(eV) 
   0   2.0000    -101.542620     -2763.1152 
   1   2.0000     -89.095384     -2424.4086 
   2   2.0000     -24.739174      -673.1871 
   3   2.0000     -24.738063      -673.1569 
   4   2.0000     -24.735412      -673.0848 
   5   2.0000     -19.212654      -522.8029 
   6   2.0000     -19.190774      -522.2075 
   7   2.0000     -19.131897      -520.6054 
   8   2.0000     -19.124849      -520.4136 
   9   2.0000     -19.119224      -520.2605 
  10   2.0000     -14.405909      -392.0047 
  11   2.0000     -14.379112      -391.2755 
  12   2.0000     -14.334538      -390.0626 
  13   2.0000     -10.502639      -285.7913 
  14   2.0000     -10.329207      -281.0720 
  15   2.0000     -10.269570      -279.4492 
  16   2.0000     -10.269372      -279.4438 
  17   2.0000     -10.256163      -279.0844 
  18   2.0000     -10.243844      -278.7492 
  19   2.0000     -10.240320      -278.6533 
  20   2.0000     -10.239961      -278.6435 
  21   2.0000     -10.234741      -278.5015 
  22   2.0000     -10.229012      -278.3456 
  23   2.0000     -10.227026      -278.2915 
  24   2.0000     -10.224374      -278.2194 
  25   2.0000     -10.212399      -277.8935 
  26   2.0000     -10.209715      -277.8205 
  27   2.0000     -10.209171      -277.8057 
  28   2.0000     -10.208658      -277.7917 
  29   2.0000     -10.199726      -277.5486 
  30   2.0000     -10.199316      -277.5375 
  31   2.0000     -10.198430      -277.5134 
  32   2.0000     -10.197324      -277.4833 
  33   2.0000     -10.196399      -277.4581 
  34   2.0000     -10.194770      -277.4138 
  35   2.0000     -10.180168      -277.0165 
  36   2.0000      -9.474066      -257.8024 
  37   2.0000      -8.130995      -221.2556 
  38   2.0000      -7.237214      -196.9346 
  39   2.0000      -7.227654      -196.6745 
  40   2.0000      -7.227354      -196.6663 
  41   2.0000      -6.096302      -165.8888 
  42   2.0000      -6.093836      -165.8217 
  43   2.0000      -6.093579      -165.8147 
  44   2.0000      -1.300612       -35.3915 
  45   2.0000      -1.222560       -33.2675 
  46   2.0000      -1.220663       -33.2159 
  47   2.0000      -1.081682       -29.4341 
  48   2.0000      -1.080631       -29.4055 
  49   2.0000      -1.074885       -29.2491 
  50   2.0000      -1.028127       -27.9768 
  51   2.0000      -0.988918       -26.9098 
  52   2.0000      -0.965170       -26.2636 
  53   2.0000      -0.957606       -26.0578 
  54   2.0000      -0.917755       -24.9734 
  55   2.0000      -0.881700       -23.9923 
  56   2.0000      -0.876573       -23.8528 
  57   2.0000      -0.864866       -23.5342 
  58   2.0000      -0.838077       -22.8052 
  59   2.0000      -0.799633       -21.7591 
  60   2.0000      -0.788832       -21.4652 
  61   2.0000      -0.773115       -21.0375 
  62   2.0000      -0.767702       -20.8902 
  63   2.0000      -0.760562       -20.6959 
  64   2.0000      -0.750940       -20.4341 
  65   2.0000      -0.728996       -19.8370 
  66   2.0000      -0.715534       -19.4707 
  67   2.0000      -0.702497       -19.1159 
  68   2.0000      -0.678677       -18.4677 
  69   2.0000      -0.656972       -17.8771 
  70   2.0000      -0.636931       -17.3318 
  71   2.0000      -0.634245       -17.2587 
  72   2.0000      -0.629093       -17.1185 
  73   2.0000      -0.619535       -16.8584 
  74   2.0000      -0.617869       -16.8131 
  75   2.0000      -0.603002       -16.4085 
  76   2.0000      -0.593245       -16.1430 
  77   2.0000      -0.589831       -16.0501 
  78   2.0000      -0.579620       -15.7723 
  79   2.0000      -0.574946       -15.6451 
  80   2.0000      -0.555579       -15.1181 
  81   2.0000      -0.542438       -14.7605 
  82   2.0000      -0.532900       -14.5010 
  83   2.0000      -0.514976       -14.0132 
  84   2.0000      -0.505412       -13.7530 
  85   2.0000      -0.495467       -13.4824 
  86   2.0000      -0.492120       -13.3913 
  87   2.0000      -0.485718       -13.2171 
  88   2.0000      -0.481066       -13.0905 
  89   2.0000      -0.476221       -12.9586 
  90   2.0000      -0.473069       -12.8729 
  91   2.0000      -0.467456       -12.7201 
  92   2.0000      -0.467347       -12.7172 
  93   2.0000      -0.466713       -12.6999 
  94   2.0000      -0.459758       -12.5107 
  95   2.0000      -0.459242       -12.4966 
  96   2.0000      -0.453434       -12.3386 
  97   2.0000      -0.449814       -12.2401 
  98   2.0000      -0.448801       -12.2125 
  99   2.0000      -0.443695       -12.0735 
 100   2.0000      -0.439336       -11.9549 
 101   2.0000      -0.436382       -11.8746 
 102   2.0000      -0.435546       -11.8518 
 103   2.0000      -0.430534       -11.7154 
 104   2.0000      -0.424615       -11.5544 
 105   2.0000      -0.423163       -11.5149 
 106   2.0000      -0.420289       -11.4367 
 107   2.0000      -0.414461       -11.2781 
 108   2.0000      -0.413925       -11.2635 
 109   2.0000      -0.409194       -11.1347 
 110   2.0000      -0.408703       -11.1214 
 111   2.0000      -0.407909       -11.0998 
 112   2.0000      -0.397313       -10.8114 
 113   2.0000      -0.385829       -10.4990 
 114   2.0000      -0.384334       -10.4583 
 115   2.0000      -0.379737       -10.3332 
 116   2.0000      -0.378906       -10.3106 
 117   2.0000      -0.377535       -10.2732 
 118   2.0000      -0.360725        -9.8158 
 119   2.0000      -0.357914        -9.7393 
 120   2.0000      -0.348130        -9.4731 
 121   2.0000      -0.344125        -9.3641 
 122   2.0000      -0.328236        -8.9317 
 123   2.0000      -0.322896        -8.7864 
 124   2.0000      -0.314930        -8.5697 
 125   2.0000      -0.302377        -8.2281 
 126   2.0000      -0.299470        -8.1490 
 127   2.0000      -0.291899        -7.9430 
 128   2.0000      -0.277247        -7.5443 
 129   2.0000      -0.275358        -7.4929 
 130   2.0000      -0.271661        -7.3923 
 131   2.0000      -0.268175        -7.2974 
 132   2.0000      -0.262514        -7.1434 
 133   2.0000      -0.259331        -7.0568 
 134   2.0000      -0.256591        -6.9822 
 135   2.0000      -0.252154        -6.8615 
 136   2.0000      -0.239610        -6.5201 
 137   2.0000      -0.212208        -5.7745 
 138   0.0000      -0.076734        -2.0880 
 139   0.0000      -0.042403        -1.1538 
 140   0.0000      -0.029045        -0.7904 
 141   0.0000      -0.011664        -0.3174 
 142   0.0000      -0.009791        -0.2664 
 143   0.0000      -0.006464        -0.1759 
 144   0.0000       0.015588         0.4242 
 145   0.0000       0.021318         0.5801 
 146   0.0000       0.038527         1.0484 
 147   0.0000       0.046539         1.2664 
 148   0.0000       0.049319         1.3420 
*Only the first 10 virtual orbitals were printed.

                    ********************************
                    * MULLIKEN POPULATION ANALYSIS *
                    ********************************

-----------------------
MULLIKEN ATOMIC CHARGES
-----------------------
   0 C :   -0.333160
   1 N :   -0.424910
   2 C :    0.014785
   3 C :   -0.243787
   4 C :    0.122985
   5 C :    0.351099
   6 N :   -0.609181
   7 C :   -0.274119
   8 C :    0.152486
   9 C :   -0.169389
  10 C :   -0.168431
  11 C :    0.357277
  12 O :   -0.546762
  13 C :    1.090067
  14 F :   -0.292836
  15 F :   -0.278165
  16 F :   -0.289824
  17 C :   -0.193165
  18 C :   -0.156481
  19 S :    1.208947
  20 O :   -0.530133
  21 O :   -0.538963
  22 C :   -0.132161
  23 C :   -0.133302
  24 C :   -0.140616
  25 C :    0.086039
  26 C :    0.527836
  27 O :   -0.445072
  28 O :   -0.625925
  29 C :   -0.148755
  30 C :   -0.150120
  31 N :   -0.411003
  32 C :   -0.002771
  33 C :   -0.144567
  34 Cl:   -0.006399
  35 C :    0.322154
  36 H :    0.173129
  37 H :    0.194465
  38 H :    0.191516
  39 H :    0.158533
  40 H :    0.152935
  41 H :    0.185211
  42 H :    0.181940
  43 H :    0.140905
  44 H :    0.147907
  45 H :    0.155055
  46 H :    0.147403
  47 H :    0.201926
  48 H :    0.179740
  49 H :    0.432882
  50 H :    0.167369
  51 H :    0.181474
  52 H :    0.163935
Sum of atomic charges:   -0.0000000

--------------------------------
MULLIKEN REDUCED ORBITAL CHARGES
--------------------------------
  0 C s       :     3.279503  s :     3.279503
      pz      :     1.090749  p :     3.006374
      px      :     1.084307
      py      :     0.831318
      dz2     :     0.007080  d :     0.047283
      dxz     :     0.010627
      dyz     :     0.007185
      dx2y2   :     0.009474
      dxy     :     0.012917

  1 N s       :     3.577786  s :     3.577786
      pz      :     1.192414  p :     3.800364
      px      :     1.438923
      py      :     1.169027
      dz2     :     0.010064  d :     0.046761
      dxz     :     0.007763
      dyz     :     0.012668
      dx2y2   :     0.008018
      dxy     :     0.008247

  2 C s       :     3.110278  s :     3.110278
      pz      :     0.819754  p :     2.820440
      px      :     1.022025
      py      :     0.978662
      dz2     :     0.013482  d :     0.054497
      dxz     :     0.010828
      dyz     :     0.015518
      dx2y2   :     0.005517
      dxy     :     0.009152

  3 C s       :     3.192467  s :     3.192467
      pz      :     1.009221  p :     3.014197
      px      :     1.057886
      py      :     0.947090
      dz2     :     0.009564  d :     0.037123
      dxz     :     0.005392
      dyz     :     0.010866
      dx2y2   :     0.006448
      dxy     :     0.004853

  4 C s       :     3.113306  s :     3.113306
      pz      :     0.859894  p :     2.718480
      px      :     0.989096
      py      :     0.869490
      dz2     :     0.009009  d :     0.045230
      dxz     :     0.008678
      dyz     :     0.013010
      dx2y2   :     0.007567
      dxy     :     0.006966

  5 C s       :     3.046174  s :     3.046174
      pz      :     0.764163  p :     2.528142
      px      :     0.973919
      py      :     0.790059
      dz2     :     0.020730  d :     0.074586
      dxz     :     0.011090
      dyz     :     0.022961
      dx2y2   :     0.011815
      dxy     :     0.007990

  6 N s       :     3.611542  s :     3.611542
      pz      :     1.612510  p :     3.964926
      px      :     1.078569
      py      :     1.273847
      dz2     :     0.004409  d :     0.032713
      dxz     :     0.004617
      dyz     :     0.005439
      dx2y2   :     0.008695
      dxy     :     0.009553

  7 C s       :     3.276690  s :     3.276690
      pz      :     1.038699  p :     2.942496
      px      :     0.911641
      py      :     0.992156
      dz2     :     0.011696  d :     0.054933
      dxz     :     0.007550
      dyz     :     0.012251
      dx2y2   :     0.006538
      dxy     :     0.016898

  8 C s       :     3.118232  s :     3.118232
      pz      :     0.855407  p :     2.689448
      px      :     0.980371
      py      :     0.853671
      dz2     :     0.009781  d :     0.039834
      dxz     :     0.005206
      dyz     :     0.012489
      dx2y2   :     0.006037
      dxy     :     0.006321

  9 C s       :     3.198224  s :     3.198224
      pz      :     0.987032  p :     2.934530
      px      :     0.994291
      py      :     0.953207
      dz2     :     0.009698  d :     0.036635
      dxz     :     0.003830
      dyz     :     0.011008
      dx2y2   :     0.005511
      dxy     :     0.006587

 10 C s       :     3.193611  s :     3.193611
      pz      :     0.942160  p :     2.940279
      px      :     1.018142
      py      :     0.979977
      dz2     :     0.010325  d :     0.034540
      dxz     :     0.006030
      dyz     :     0.008332
      dx2y2   :     0.006746
      dxy     :     0.003107

 11 C s       :     3.072777  s :     3.072777
      pz      :     0.753916  p :     2.504565
      px      :     0.984745
      py      :     0.765903
      dz2     :     0.013999  d :     0.065382
      dxz     :     0.009697
      dyz     :     0.022612
      dx2y2   :     0.008599
      dxy     :     0.010473

 12 O s       :     3.886216  s :     3.886216
      pz      :     1.235130  p :     4.634610
      px      :     1.786481
      py      :     1.612999
      dz2     :     0.006582  d :     0.025937
      dxz     :     0.004399
      dyz     :     0.007102
      dx2y2   :     0.004366
      dxy     :     0.003488

 13 C s       :     2.718976  s :     2.718976
      pz      :     0.734404  p :     2.027610
      px      :     0.663088
      py      :     0.630118
      dz2     :     0.036427  d :     0.163346
      dxz     :     0.028918
      dyz     :     0.030592
      dx2y2   :     0.032932
      dxy     :     0.034477

 14 F s       :     3.982589  s :     3.982589
      pz      :     1.912791  p :     5.294078
      px      :     1.548249
      py      :     1.833038
      dz2     :     0.002329  d :     0.016170
      dxz     :     0.002968
      dyz     :     0.000772
      dx2y2   :     0.004914
      dxy     :     0.005187

 15 F s       :     3.979548  s :     3.979548
      pz      :     1.803746  p :     5.282411
      px      :     1.911536
      py      :     1.567130
      dz2     :     0.002047  d :     0.016206
      dxz     :     0.000947
      dyz     :     0.005661
      dx2y2   :     0.004628
      dxy     :     0.002923

 16 F s       :     3.983050  s :     3.983050
      pz      :     1.834975  p :     5.290524
      px      :     1.700326
      py      :     1.755223
      dz2     :     0.002193  d :     0.016251
      dxz     :     0.003467
      dyz     :     0.002674
      dx2y2   :     0.003073
      dxy     :     0.004844

 17 C s       :     3.182121  s :     3.182121
      pz      :     1.011086  p :     2.976435
      px      :     1.027819
      py      :     0.937531
      dz2     :     0.009993  d :     0.034608
      dxz     :     0.003691
      dyz     :     0.009088
      dx2y2   :     0.005731
      dxy     :     0.006105

 18 C s       :     3.199052  s :     3.199052
      pz      :     0.947259  p :     2.921184
      px      :     0.980945
      py      :     0.992980
      dz2     :     0.010070  d :     0.036245
      dxz     :     0.006133
      dyz     :     0.010053
      dx2y2   :     0.006603
      dxy     :     0.003385

 19 S s       :     5.223094  s :     5.223094
      pz      :     2.996409  p :     9.032817
      px      :     2.992159
      py      :     3.044250
      dz2     :     0.116080  d :     0.535143
      dxz     :     0.095158
      dyz     :     0.131207
      dx2y2   :     0.109001
      dxy     :     0.083698

 20 O s       :     3.926814  s :     3.926814
      pz      :     1.701293  p :     4.576099
      px      :     1.411047
      py      :     1.463760
      dz2     :     0.003213  d :     0.027219
      dxz     :     0.004239
      dyz     :     0.004257
      dx2y2   :     0.007753
      dxy     :     0.007757

 21 O s       :     3.918682  s :     3.918682
      pz      :     1.240325  p :     4.593691
      px      :     1.653519
      py      :     1.699847
      dz2     :     0.010067  d :     0.026590
      dxz     :     0.007855
      dyz     :     0.007335
      dx2y2   :     0.000665
      dxy     :     0.000668

 22 C s       :     3.228135  s :     3.228135
      pz      :     0.943965  p :     2.865485
      px      :     1.037916
      py      :     0.883604
      dz2     :     0.008858  d :     0.038541
      dxz     :     0.005684
      dyz     :     0.014279
      dx2y2   :     0.005324
      dxy     :     0.004396

 23 C s       :     3.206944  s :     3.206944
      pz      :     0.919344  p :     2.890632
      px      :     0.937961
      py      :     1.033328
      dz2     :     0.009906  d :     0.035725
      dxz     :     0.005425
      dyz     :     0.011454
      dx2y2   :     0.005751
      dxy     :     0.003189

 24 C s       :     3.216364  s :     3.216364
      pz      :     1.001543  p :     2.888618
      px      :     0.941140
      py      :     0.945935
      dz2     :     0.011865  d :     0.035633
      dxz     :     0.002432
      dyz     :     0.010215
      dx2y2   :     0.005477
      dxy     :     0.005644

 25 C s       :     3.166304  s :     3.166304
      pz      :     0.842696  p :     2.709232
      px      :     0.997351
      py      :     0.869185
      dz2     :     0.009516  d :     0.038424
      dxz     :     0.005676
      dyz     :     0.013417
      dx2y2   :     0.005435
      dxy     :     0.004380

 26 C s       :     2.998086  s :     2.998086
      pz      :     0.794622  p :     2.364075
      px      :     0.801141
      py      :     0.768313
      dz2     :     0.026086  d :     0.110003
      dxz     :     0.018554
      dyz     :     0.043816
      dx2y2   :     0.010323
      dxy     :     0.011224

 27 O s       :     3.878507  s :     3.878507
      pz      :     1.341717  p :     4.540977
      px      :     1.411737
      py      :     1.787522
      dz2     :     0.010023  d :     0.025589
      dxz     :     0.009276
      dyz     :     0.005991
      dx2y2   :     0.000156
      dxy     :     0.000142

 28 O s       :     3.872202  s :     3.872202
      pz      :     1.683086  p :     4.732870
      px      :     1.805203
      py      :     1.244581
      dz2     :     0.001906  d :     0.020852
      dxz     :     0.002411
      dyz     :     0.011145
      dx2y2   :     0.003617
      dxy     :     0.001773

 29 C s       :     3.210453  s :     3.210453
      pz      :     0.968886  p :     2.902711
      px      :     0.962039
      py      :     0.971786
      dz2     :     0.009424  d :     0.035591
      dxz     :     0.005285
      dyz     :     0.012242
      dx2y2   :     0.005621
      dxy     :     0.003018

 30 C s       :     3.212315  s :     3.212315
      pz      :     1.032649  p :     2.901866
      px      :     0.954770
      py      :     0.914446
      dz2     :     0.012075  d :     0.035940
      dxz     :     0.002311
      dyz     :     0.009797
      dx2y2   :     0.005663
      dxy     :     0.006094

 31 N s       :     3.708929  s :     3.708929
      pz      :     1.066404  p :     3.667310
      px      :     1.262728
      py      :     1.338177
      dz2     :     0.008658  d :     0.034765
      dxz     :     0.007735
      dyz     :     0.006408
      dx2y2   :     0.006771
      dxy     :     0.005192

 32 C s       :     3.140888  s :     3.140888
      pz      :     0.950067  p :     2.809529
      px      :     0.980775
      py      :     0.878687
      dz2     :     0.013927  d :     0.052353
      dxz     :     0.006709
      dyz     :     0.012589
      dx2y2   :     0.009367
      dxy     :     0.009762

 33 C s       :     3.178184  s :     3.178184
      pz      :     0.966656  p :     2.919493
      px      :     1.075744
      py      :     0.877092
      dz2     :     0.011168  d :     0.046890
      dxz     :     0.007540
      dyz     :     0.012714
      dx2y2   :     0.008244
      dxy     :     0.007225

 34 Cls       :     5.925570  s :     5.925570
      pz      :     3.669751  p :    11.050802
      px      :     3.929235
      py      :     3.451816
      dz2     :     0.003305  d :     0.030027
      dxz     :     0.002672
      dyz     :     0.012912
      dx2y2   :     0.006968
      dxy     :     0.004170

 35 C s       :     3.009033  s :     3.009033
      pz      :     0.809757  p :     2.607362
      px      :     0.939954
      py      :     0.857652
      dz2     :     0.012942  d :     0.061451
      dxz     :     0.010421
      dyz     :     0.016806
      dx2y2   :     0.010902
      dxy     :     0.010381

 36 H s       :     0.826871  s :     0.826871

 37 H s       :     0.805535  s :     0.805535

 38 H s       :     0.808484  s :     0.808484

 39 H s       :     0.841467  s :     0.841467

 40 H s       :     0.847065  s :     0.847065

 41 H s       :     0.814789  s :     0.814789

 42 H s       :     0.818060  s :     0.818060

 43 H s       :     0.859095  s :     0.859095

 44 H s       :     0.852093  s :     0.852093

 45 H s       :     0.844945  s :     0.844945

 46 H s       :     0.852597  s :     0.852597

 47 H s       :     0.798074  s :     0.798074

 48 H s       :     0.820260  s :     0.820260

 49 H s       :     0.567118  s :     0.567118

 50 H s       :     0.832631  s :     0.832631

 51 H s       :     0.818526  s :     0.818526

 52 H s       :     0.836065  s :     0.836065



                     *******************************
                     * LOEWDIN POPULATION ANALYSIS *
                     *******************************

----------------------
LOEWDIN ATOMIC CHARGES
----------------------
   0 C :   -0.265628
   1 N :    0.021592
   2 C :   -0.086694
   3 C :   -0.189991
   4 C :   -0.049631
   5 C :    0.060393
   6 N :   -0.271216
   7 C :   -0.151947
   8 C :   -0.050064
   9 C :   -0.121876
  10 C :   -0.140160
  11 C :    0.088081
  12 O :   -0.160041
  13 C :    0.364853
  14 F :   -0.107105
  15 F :   -0.086655
  16 F :   -0.104676
  17 C :   -0.156878
  18 C :   -0.115119
  19 S :    1.271107
  20 O :   -0.558329
  21 O :   -0.572177
  22 C :   -0.172319
  23 C :   -0.094368
  24 C :   -0.084533
  25 C :   -0.038746
  26 C :    0.180119
  27 O :   -0.261091
  28 O :   -0.336944
  29 C :   -0.104124
  30 C :   -0.106505
  31 N :   -0.146433
  32 C :   -0.091331
  33 C :   -0.124440
  34 Cl:    0.040821
  35 C :    0.013367
  36 H :    0.141283
  37 H :    0.146407
  38 H :    0.145273
  39 H :    0.140695
  40 H :    0.146140
  41 H :    0.143597
  42 H :    0.147521
  43 H :    0.137758
  44 H :    0.144684
  45 H :    0.143275
  46 H :    0.141781
  47 H :    0.166616
  48 H :    0.159940
  49 H :    0.348852
  50 H :    0.151845
  51 H :    0.157839
  52 H :    0.145183

-------------------------------
LOEWDIN REDUCED ORBITAL CHARGES
-------------------------------
  0 C s       :     2.971480  s :     2.971480
      pz      :     1.134511  p :     3.201240
      px      :     1.128898
      py      :     0.937831
      dz2     :     0.013367  d :     0.092907
      dxz     :     0.019548
      dyz     :     0.014928
      dx2y2   :     0.019027
      dxy     :     0.026036

  1 N s       :     3.045868  s :     3.045868
      pz      :     1.218106  p :     3.817729
      px      :     1.400467
      py      :     1.199156
      dz2     :     0.027507  d :     0.114811
      dxz     :     0.018538
      dyz     :     0.033250
      dx2y2   :     0.017519
      dxy     :     0.017997

  2 C s       :     2.903234  s :     2.903234
      pz      :     0.970853  p :     3.061045
      px      :     1.042570
      py      :     1.047623
      dz2     :     0.031862  d :     0.122415
      dxz     :     0.021893
      dyz     :     0.035694
      dx2y2   :     0.012858
      dxy     :     0.020108

  3 C s       :     2.902769  s :     2.902769
      pz      :     1.062016  p :     3.199819
      px      :     1.074669
      py      :     1.063134
      dz2     :     0.023467  d :     0.087404
      dxz     :     0.012105
      dyz     :     0.024142
      dx2y2   :     0.015420
      dxy     :     0.012269

  4 C s       :     2.839526  s :     2.839526
      pz      :     1.042572  p :     3.089928
      px      :     1.028878
      py      :     1.018478
      dz2     :     0.025955  d :     0.120176
      dxz     :     0.021837
      dyz     :     0.036514
      dx2y2   :     0.018445
      dxy     :     0.017425

  5 C s       :     2.841471  s :     2.841471
      pz      :     0.973882  p :     2.921485
      px      :     0.990477
      py      :     0.957127
      dz2     :     0.048542  d :     0.176651
      dxz     :     0.026006
      dyz     :     0.056498
      dx2y2   :     0.027042
      dxy     :     0.018563

  6 N s       :     3.179876  s :     3.179876
      pz      :     1.575845  p :     4.008417
      px      :     1.157832
      py      :     1.274740
      dz2     :     0.009940  d :     0.082923
      dxz     :     0.011542
      dyz     :     0.011465
      dx2y2   :     0.024118
      dxy     :     0.025858

  7 C s       :     2.922268  s :     2.922268
      pz      :     1.084916  p :     3.112649
      px      :     0.991859
      py      :     1.035873
      dz2     :     0.023218  d :     0.117030
      dxz     :     0.015772
      dyz     :     0.027355
      dx2y2   :     0.014430
      dxy     :     0.036255

  8 C s       :     2.878957  s :     2.878957
      pz      :     1.040616  p :     3.070720
      px      :     0.986714
      py      :     1.043390
      dz2     :     0.025201  d :     0.100387
      dxz     :     0.011653
      dyz     :     0.034818
      dx2y2   :     0.014882
      dxy     :     0.013833

  9 C s       :     2.917693  s :     2.917693
      pz      :     1.066806  p :     3.118795
      px      :     0.992910
      py      :     1.059078
      dz2     :     0.021491  d :     0.085388
      dxz     :     0.006755
      dyz     :     0.028230
      dx2y2   :     0.014505
      dxy     :     0.014408

 10 C s       :     2.916267  s :     2.916267
      pz      :     1.044807  p :     3.142450
      px      :     1.017415
      py      :     1.080228
      dz2     :     0.026756  d :     0.081442
      dxz     :     0.013646
      dyz     :     0.023019
      dx2y2   :     0.012287
      dxy     :     0.005734

 11 C s       :     2.858485  s :     2.858485
      pz      :     0.942306  p :     2.898283
      px      :     0.990005
      py      :     0.965971
      dz2     :     0.035789  d :     0.155152
      dxz     :     0.020404
      dyz     :     0.055101
      dx2y2   :     0.021870
      dxy     :     0.021987

 12 O s       :     3.472250  s :     3.472250
      pz      :     1.262342  p :     4.630736
      px      :     1.761126
      py      :     1.607267
      dz2     :     0.019256  d :     0.057055
      dxz     :     0.009957
      dyz     :     0.015933
      dx2y2   :     0.006498
      dxy     :     0.005411

 13 C s       :     2.821380  s :     2.821380
      pz      :     0.843063  p :     2.438734
      px      :     0.803720
      py      :     0.791951
      dz2     :     0.085040  d :     0.375033
      dxz     :     0.061310
      dyz     :     0.070055
      dx2y2   :     0.076409
      dxy     :     0.082219

 14 F s       :     3.766395  s :     3.766395
      pz      :     1.906696  p :     5.309632
      px      :     1.570111
      py      :     1.832825
      dz2     :     0.004929  d :     0.031078
      dxz     :     0.005147
      dyz     :     0.001316
      dx2y2   :     0.009285
      dxy     :     0.010401

 15 F s       :     3.760982  s :     3.760982
      pz      :     1.804757  p :     5.295069
      px      :     1.904179
      py      :     1.586133
      dz2     :     0.003560  d :     0.030605
      dxz     :     0.001402
      dyz     :     0.011401
      dx2y2   :     0.009674
      dxy     :     0.004569

 16 F s       :     3.767047  s :     3.767047
      pz      :     1.834259  p :     5.306509
      px      :     1.711077
      py      :     1.761173
      dz2     :     0.003887  d :     0.031120
      dxz     :     0.006800
      dyz     :     0.005566
      dx2y2   :     0.004706
      dxy     :     0.010160

 17 C s       :     2.918924  s :     2.918924
      pz      :     1.082976  p :     3.156295
      px      :     1.023412
      py      :     1.049906
      dz2     :     0.022221  d :     0.081660
      dxz     :     0.006443
      dyz     :     0.024391
      dx2y2   :     0.015240
      dxy     :     0.013365

 18 C s       :     2.915915  s :     2.915915
      pz      :     1.052905  p :     3.114005
      px      :     0.984785
      py      :     1.076314
      dz2     :     0.026234  d :     0.085199
      dxz     :     0.013951
      dyz     :     0.026349
      dx2y2   :     0.012267
      dxy     :     0.006398

 19 S s       :     5.104691  s :     5.104691
      pz      :     2.982459  p :     8.947496
      px      :     2.959246
      py      :     3.005792
      dz2     :     0.153168  d :     0.676706
      dxz     :     0.112907
      dyz     :     0.164175
      dx2y2   :     0.136505
      dxy     :     0.109951

 20 O s       :     3.712737  s :     3.712737
      pz      :     1.726197  p :     4.789267
      px      :     1.505714
      py      :     1.557357
      dz2     :     0.007536  d :     0.056324
      dxz     :     0.007584
      dyz     :     0.007818
      dx2y2   :     0.010880
      dxy     :     0.022506

 21 O s       :     3.709809  s :     3.709809
      pz      :     1.394877  p :     4.806809
      px      :     1.683399
      py      :     1.728534
      dz2     :     0.028264  d :     0.055560
      dxz     :     0.012363
      dyz     :     0.012721
      dx2y2   :     0.001087
      dxy     :     0.001125

 22 C s       :     2.933247  s :     2.933247
      pz      :     1.072465  p :     3.141465
      px      :     1.032558
      py      :     1.036442
      dz2     :     0.024738  d :     0.097606
      dxz     :     0.012085
      dyz     :     0.038854
      dx2y2   :     0.013032
      dxy     :     0.008899

 23 C s       :     2.919972  s :     2.919972
      pz      :     1.054950  p :     3.090001
      px      :     0.938655
      py      :     1.096395
[...]
      dxy     :     0.012223

 25 C s       :     2.880567  s :     2.880567
      pz      :     1.049212  p :     3.058726
      px      :     0.980108
      py      :     1.029407
      dz2     :     0.027406  d :     0.099452
      dxz     :     0.011856
      dyz     :     0.038001
      dx2y2   :     0.013122
      dxy     :     0.009067

 26 C s       :     2.864125  s :     2.864125
      pz      :     0.992239  p :     2.703816
      px      :     0.802483
      py      :     0.909093
      dz2     :     0.063789  d :     0.251940
      dxz     :     0.037399
      dyz     :     0.104287
      dx2y2   :     0.023792
      dxy     :     0.022673

 27 O s       :     3.593377  s :     3.593377
      pz      :     1.435099  p :     4.617894
      px      :     1.402478
      py      :     1.780318
      dz2     :     0.026054  d :     0.049820
      dxz     :     0.012712
      dyz     :     0.010588
      dx2y2   :     0.000259
      dxy     :     0.000208

 28 O s       :     3.540634  s :     3.540634
      pz      :     1.689702  p :     4.754604
      px      :     1.787491
      py      :     1.277410
      dz2     :     0.003817  d :     0.041706
      dxz     :     0.002904
      dyz     :     0.021538
      dx2y2   :     0.008999
      dxy     :     0.004448

 29 C s       :     2.920385  s :     2.920385
      pz      :     1.061797  p :     3.100469
      px      :     0.959110
      py      :     1.079561
      dz2     :     0.025052  d :     0.083271
      dxz     :     0.011277
      dyz     :     0.030928
      dx2y2   :     0.010563
      dxy     :     0.005450

 30 C s       :     2.919899  s :     2.919899
      pz      :     1.096253  p :     3.101593
      px      :     0.957102
      py      :     1.048239
      dz2     :     0.025816  d :     0.085013
      dxz     :     0.003891
      dyz     :     0.026234
      dx2y2   :     0.015545
      dxy     :     0.013525

 31 N s       :     3.243935  s :     3.243935
      pz      :     1.169397  p :     3.824720
      px      :     1.267545
      py      :     1.387777
      dz2     :     0.022113  d :     0.077779
      dxz     :     0.017533
      dyz     :     0.017309
      dx2y2   :     0.011722
      dxy     :     0.009100

 32 C s       :     2.916170  s :     2.916170
      pz      :     1.049725  p :     3.053954
      px      :     1.006852
      py      :     0.997377
      dz2     :     0.030805  d :     0.121207
      dxz     :     0.012160
      dyz     :     0.030474
      dx2y2   :     0.023145
      dxy     :     0.024623

 33 C s       :     2.920172  s :     2.920172
      pz      :     1.029723  p :     3.093251
      px      :     1.081738
      py      :     0.981790
      dz2     :     0.027266  d :     0.111017
      dxz     :     0.016747
      dyz     :     0.031887
      dx2y2   :     0.018340
      dxy     :     0.016778

 34 Cls       :     5.801876  s :     5.801876
      pz      :     3.694897  p :    11.123286
      px      :     3.924490
      py      :     3.503898
      dz2     :     0.003622  d :     0.034017
      dxz     :     0.002926
      dyz     :     0.014950
      dx2y2   :     0.007998
      dxy     :     0.004522

 35 C s       :     2.825441  s :     2.825441
      pz      :     1.021312  p :     3.010218
      px      :     0.996812
      py      :     0.992093
      dz2     :     0.031756  d :     0.150974
      dxz     :     0.024625
      dyz     :     0.043917
      dx2y2   :     0.025463
      dxy     :     0.025213

 36 H s       :     0.858717  s :     0.858717

 37 H s       :     0.853593  s :     0.853593

 38 H s       :     0.854727  s :     0.854727

 39 H s       :     0.859305  s :     0.859305

 40 H s       :     0.853860  s :     0.853860

 41 H s       :     0.856403  s :     0.856403

 42 H s       :     0.852479  s :     0.852479

 43 H s       :     0.862242  s :     0.862242

 44 H s       :     0.855316  s :     0.855316

 45 H s       :     0.856725  s :     0.856725

 46 H s       :     0.858219  s :     0.858219

 47 H s       :     0.833384  s :     0.833384

 48 H s       :     0.840060  s :     0.840060

 49 H s       :     0.651148  s :     0.651148

 50 H s       :     0.848155  s :     0.848155

 51 H s       :     0.842161  s :     0.842161

 52 H s       :     0.854817  s :     0.854817



                      *****************************
                      * MAYER POPULATION ANALYSIS *
                      *****************************

  NA   - Mulliken gross atomic population
  ZA   - Total nuclear charge
  QA   - Mulliken gross atomic charge
  VA   - Mayer's total valence
  BVA  - Mayer's bonded valence
  FA   - Mayer's free valence

  ATOM       NA         ZA         QA         VA         BVA        FA
  0 C      6.3332     6.0000    -0.3332     3.7729     3.7729    -0.0000
  1 N      7.4249     7.0000    -0.4249     3.3042     3.3042    -0.0000
  2 C      5.9852     6.0000     0.0148     3.7970     3.7970    -0.0000
  3 C      6.2438     6.0000    -0.2438     3.8946     3.8946    -0.0000
  4 C      5.8770     6.0000     0.1230     4.0564     4.0564    -0.0000
  5 C      5.6489     6.0000     0.3511     3.7808     3.7808    -0.0000
  6 N      7.6092     7.0000    -0.6092     2.7885     2.7885    -0.0000
  7 C      6.2741     6.0000    -0.2741     3.8123     3.8123    -0.0000
  8 C      5.8475     6.0000     0.1525     3.8857     3.8857    -0.0000
  9 C      6.1694     6.0000    -0.1694     3.9561     3.9561    -0.0000
 10 C      6.1684     6.0000    -0.1684     3.9190     3.9190    -0.0000
 11 C      5.6427     6.0000     0.3573     3.8130     3.8130    -0.0000
 12 O      8.5468     8.0000    -0.5468     1.9599     1.9599     0.0000
 13 C      4.9099     6.0000     1.0901     3.9876     3.9876    -0.0000
 14 F      9.2928     9.0000    -0.2928     1.0635     1.0635    -0.0000
 15 F      9.2782     9.0000    -0.2782     1.0891     1.0891     0.0000
 16 F      9.2898     9.0000    -0.2898     1.0672     1.0672    -0.0000
 17 C      6.1932     6.0000    -0.1932     3.9107     3.9107    -0.0000
 18 C      6.1565     6.0000    -0.1565     3.9346     3.9346    -0.0000
 19 S     14.7911    16.0000     1.2089     5.0689     5.0689     0.0000
 20 O      8.5301     8.0000    -0.5301     1.8985     1.8985    -0.0000
 21 O      8.5390     8.0000    -0.5390     1.9009     1.9009    -0.0000
 22 C      6.1322     6.0000    -0.1322     3.8453     3.8453     0.0000
 23 C      6.1333     6.0000    -0.1333     3.8897     3.8897    -0.0000
 24 C      6.1406     6.0000    -0.1406     3.8982     3.8982    -0.0000
 25 C      5.9140     6.0000     0.0860     3.9260     3.9260     0.0000
 26 C      5.4722     6.0000     0.5278     3.9522     3.9522    -0.0000
 27 O      8.4451     8.0000    -0.4451     2.0668     2.0668     0.0000
 28 O      8.6259     8.0000    -0.6259     1.8654     1.8654    -0.0000
 29 C      6.1488     6.0000    -0.1488     3.8682     3.8682     0.0000
 30 C      6.1501     6.0000    -0.1501     3.9217     3.9217     0.0000
 31 N      7.4110     7.0000    -0.4110     2.9809     2.9809     0.0000
 32 C      6.0028     6.0000    -0.0028     3.9078     3.9078    -0.0000
 33 C      6.1446     6.0000    -0.1446     3.8305     3.8305     0.0000
 34 Cl    17.0064    17.0000    -0.0064     1.1174     1.1174     0.0000
 35 C      5.6778     6.0000     0.3222     3.7942     3.7942    -0.0000
 36 H      0.8269     1.0000     0.1731     0.9331     0.9331    -0.0000
 37 H      0.8055     1.0000     0.1945     0.9218     0.9218    -0.0000
 38 H      0.8085     1.0000     0.1915     0.9236     0.9236     0.0000
 39 H      0.8415     1.0000     0.1585     0.9359     0.9359    -0.0000
 40 H      0.8471     1.0000     0.1529     0.9407     0.9407    -0.0000
 41 H      0.8148     1.0000     0.1852     0.9337     0.9337     0.0000
 42 H      0.8181     1.0000     0.1819     0.9317     0.9317    -0.0000
 43 H      0.8591     1.0000     0.1409     0.9410     0.9410     0.0000
 44 H      0.8521     1.0000     0.1479     0.9380     0.9380     0.0000
 45 H      0.8449     1.0000     0.1551     0.9486     0.9486     0.0000
 46 H      0.8526     1.0000     0.1474     0.9440     0.9440     0.0000
 47 H      0.7981     1.0000     0.2019     0.9442     0.9442     0.0000
 48 H      0.8203     1.0000     0.1797     0.9399     0.9399    -0.0000
 49 H      0.5671     1.0000     0.4329     0.7966     0.7966     0.0000
 50 H      0.8326     1.0000     0.1674     0.9376     0.9376    -0.0000
 51 H      0.8185     1.0000     0.1815     0.9387     0.9387     0.0000
 52 H      0.8361     1.0000     0.1639     0.9345     0.9345     0.0000

  Mayer bond orders larger than 0.100000
B(  0-C ,  1-N ) :   0.9337 B(  0-C , 36-H ) :   0.9386 B(  0-C , 37-H ) :   0.9293 
B(  0-C , 38-H ) :   0.9303 B(  1-N ,  2-C ) :   1.1492 B(  1-N , 35-C ) :   1.0735 
B(  2-C ,  3-C ) :   1.5425 B(  2-C , 39-H ) :   0.9256 B(  3-C ,  4-C ) :   1.3075 
B(  3-C , 40-H ) :   0.9213 B(  4-C ,  5-C ) :   1.2646 B(  4-C , 35-C ) :   1.2906 
B(  5-C ,  6-N ) :   0.9021 B(  5-C , 31-N ) :   1.3666 B(  6-N ,  7-C ) :   0.9248 
B(  6-N , 19-S ) :   0.7829 B(  7-C ,  8-C ) :   0.9437 B(  7-C , 41-H ) :   0.9192 
B(  7-C , 42-H ) :   0.9145 B(  8-C ,  9-C ) :   1.4383 B(  8-C , 18-C ) :   1.4182 
B(  9-C , 10-C ) :   1.4294 B(  9-C , 43-H ) :   0.9196 B( 10-C , 11-C ) :   1.4244 
B( 10-C , 44-H ) :   0.9174 B( 11-C , 12-O ) :   0.8261 B( 11-C , 17-C ) :   1.3821 
B( 12-O , 13-C ) :   0.9853 B( 13-C , 14-F ) :   0.9645 B( 13-C , 15-F ) :   1.0085 
B( 13-C , 16-F ) :   0.9700 B( 17-C , 18-C ) :   1.4439 B( 17-C , 45-H ) :   0.9089 
B( 18-C , 46-H ) :   0.9163 B( 19-S , 20-O ) :   1.6597 B( 19-S , 21-O ) :   1.6423 
B( 19-S , 22-C ) :   0.8145 B( 22-C , 23-C ) :   1.3834 B( 22-C , 30-C ) :   1.3967 
B( 23-C , 24-C ) :   1.4240 B( 23-C , 47-H ) :   0.8877 B( 24-C , 25-C ) :   1.3952 
B( 24-C , 48-H ) :   0.9099 B( 25-C , 26-C ) :   1.0090 B( 25-C , 29-C ) :   1.3841 
B( 26-C , 27-O ) :   1.8620 B( 26-C , 28-O ) :   1.0213 B( 28-O , 49-H ) :   0.7426 
B( 29-C , 30-C ) :   1.4094 B( 29-C , 50-H ) :   0.9161 B( 30-C , 51-H ) :   0.9098 
B( 31-N , 32-C ) :   1.3725 B( 32-C , 33-C ) :   1.4085 B( 32-C , 52-H ) :   0.9247 
B( 33-C , 34-Cl) :   1.0135 B( 33-C , 35-C ) :   1.2792 

-------
TIMINGS
-------

Total SCF time: 0 days 0 hours 11 min 45 sec 

Total time                  ....     705.990 sec
Sum of individual times     ....     705.700 sec  (100.0%)

SCF preparation             ....       0.359 sec  (  0.1%)
Fock matrix formation       ....     702.773 sec  ( 99.5%)
  Startup                   ....       0.089 sec  (  0.0% of F)
  Split-RI-J                ....      93.065 sec  ( 13.2% of F)
  Chain of spheres X        ....     554.096 sec  ( 78.8% of F)
  XC integration            ....      54.693 sec  (  7.8% of F)
    XC Preparation          ....       0.000 sec  (  0.0% of XC)
    Basis function eval.    ....      20.998 sec  ( 38.4% of XC)
    Density eval.           ....      14.453 sec  ( 26.4% of XC)
    XC-Functional eval.     ....       2.508 sec  (  4.6% of XC)
    XC-Potential eval.      ....      14.720 sec  ( 26.9% of XC)
Diagonalization             ....       0.000 sec  (  0.0%)
Density matrix formation    ....       0.363 sec  (  0.1%)
Total Energy calculation    ....       0.070 sec  (  0.0%)
Population analysis         ....       0.078 sec  (  0.0%)
Orbital Transformation      ....       0.330 sec  (  0.0%)
Orbital Orthonormalization  ....       0.000 sec  (  0.0%)
DIIS solution               ....       1.020 sec  (  0.1%)
SOSCF solution              ....       0.705 sec  (  0.1%)
Finished LeanSCF after 706.1 sec

Maximum memory used throughout the entire LEANSCF-calculation: 98.9 MB

-------------------------   --------------------
FINAL SINGLE POINT ENERGY     -2583.780367533633
-------------------------   --------------------


------------------------------------------------------------------------------
                              ORCA PROPERTY CALCULATIONS
------------------------------------------------------------------------------

GBWName                                 ... /home/nmrbox/aojoawo/Documents/ERDOS/inputs/CHEMBL3687382.gbw
Number of atoms                         ...     53
Number of basis functions               ...    546
Max core memory                         ...   1024 MB

Electric properties:
Dipole moment                           ... YES
Quadrupole moment                       ...  NO
Static polarizability (Dipole/Dipole)   ...  NO
Static polarizability (Dipole/Quad.)    ...  NO
Static polarizability (Quad./Quad.)     ...  NO
Static polarizability (Velocity)        ...  NO

Atomic electric properties:
Dipole moment                           ...  NO
Quadrupole moment                       ...  NO
Static polarizability                   ...  NO

Choice of electric origin               ... Center of mass
Position of electric origin             ...     0.225902    -0.244465    -0.805729

General magnetic properties:
Magnetizability                         ...  NO

EPR properties:
g-Tensor (aka g-matrix)                 ...  NO
Zero-Field splitting spin-orbit         ...  NO
Zero-field splitting spin-spin          ...  NO
Hyperfine couplings                     ...  NO (   0 nuclei)
Quadrupole couplings                    ...  NO (   0 nuclei)
Contact density                         ...  NO (   0 nuclei)

NMR properties:
Chemical shifts                         ...  NO (   0 nuclei)
Spin-rotation constants                 ...  NO (   0 nuclei)
Spin-spin couplings                     ...  NO (   0 nuclei,    0 pairs)

Choice of magnetic origin               ... GIAO
Position of magnetic origin             ...     0.000000     0.000000     0.000000

Properties with geometric perturbations:
SCF Hessian                             ...  NO
IR spectrum                             ...  NO
VCD spectrum                            ...  NO
X-ray spectroscopy properties:
SCF XES/XAS/RIXS spectra                ...  NO


-------------
DIPOLE MOMENT
-------------

Method             : SCF
Type of density    : Electron Density
Multiplicity       :   1
Irrep              :   0
Energy             : -2583.7803675336331253 Eh
Relativity type    : 
Basis              : AO
                                X                 Y                 Z
Electronic contribution:     -3.226870154     -11.878895351     -25.548191021
Nuclear contribution   :      0.980613642      12.479475211      26.149826953
                        -----------------------------------------
Total Dipole Moment    :     -2.246256512       0.600579860       0.601635932
                        -----------------------------------------
Magnitude (a.u.)       :      2.401734848
Magnitude (Debye)      :      6.104724832



--------------------
Rotational spectrum 
--------------------
 
Rotational constants in cm-1:             0.005106             0.002022             0.001728 
Rotational constants in MHz :           153.078361            60.616574            51.804649 

Dipole components along the rotational axes: 
x,y,z [a.u.] :    -0.971887    -1.248362     1.807030 
x,y,z [Debye]:    -2.470341    -3.173085     4.593105 

 

Dipole moment calculation done in   0.0 sec 

Maximum memory used throughout the entire PROP-calculation: 49.1 MB

--------------------------------
SUGGESTED CITATIONS FOR THIS RUN
--------------------------------

Below you find a list of papers that are relevant to this ORCA run
We neither can nor want to force you to cite these papers, but we appreciate if you do
You receive ORCA, which is the product of decades of hard work by many enthusiastic individuals, for free
The only thing we kindly ask in return is that you cite our papers,
We deeply appreciate it, if you show your appreciation for ORCA by not just citing the generic ORCA reference.

Please note that relegating all ORCA citations to the supporting information does *not* help us.
SI sections are not indexed - citations you put there will not count into any citation statistics
But we need these citations in order to attract the funding resources that allow us to do what we are doing

Therefore, if you are a happy ORCA user, please consider citing a few of the papers listed below in the main body of your paper

In addition to the list printed below, the program has created the file /home/nmrbox/aojoawo/Documents/ERDOS/inputs/CHEMBL3687382.bibtex that contains the list in bibtex format
You can import this file easily into all common literature databanks and citation aid programs


List of essential papers. We consider these as the minimum necessary citations

  1. Neese,F.
     Software update: the ORCA program system, version 5.0
     WIRES Comput. Molec. Sci., 2022 12(1)e1606
     doi.org/10.1002/wcms.1606

List of papers to cite with high priority. The work reported in these papers was absolutely
necessary for this run to complete.
Our perspective: the developers of density functionals and basis sets usually get cited in chemistry papers
Good! But without the algorithms to do something with them, the functionals or basis sets would not do anything.
Hence, in our opinion, the algorithm design and method developments papers are equally worthy of getting cited

  1. Neese,F.
     An improvement of the resolution of the identity approximation for the formation of the Coulomb matrix
     J. Comp. Chem., 2003 24(14)1740-1747
     doi.org/10.1002/jcc.10318
  2. Neese,F.; Wennmohs,F.; Hansen,A.; Becker,U.
     Efficient, approximate and parallel Hartree-Fock and hybrid DFT calculations. A 'chain-of-spheres' algorithm for the Hartree-Fock exchange
     Chem. Phys., 2009 356(1-3)98-109
     doi.org/10.1016/j.chemphys.2008.10.036
  3. Helmich-Paris,B.; de Souza,B.; Neese,F.; Izsák,R.
     An improved chain of spheres for exchange algorithm
     J. Chem. Phys., 2021 155 104109
     doi.org/doi: 10.1063/5.0058766.
  4. Neese,F.
     The SHARK Integral Generation and Digestion System
     J. Comp. Chem., 2022  1-16
     doi.org/10.1002/jcc.26942

List of suggested additional citations. These are papers that are important in the 'surrounding' of 
of this run, or papers that preceded the highly important papers. If you like your results we are grateful for a citation.

  1. Izsak,R.; Neese,F.
     An overlap fitted chain of spheres exchange method
     J. Chem. Phys., 2011 135 144105
     doi.org/10.1063/1.3646921
  2. Izsak,R.; Hansen,A.; Neese,F.
     The resolution of identity and chain of spheres approximations for the LPNO-CCSD singles Fock term
     Molec. Phys., 2012 110 2413-2417
     doi.org/10.1080/00268976.2012.687466
  3. Neese,F.
     The ORCA program system
     WIRES Comput. Molec. Sci., 2012 2(1)73-78
     doi.org/10.1002/wcms.81
  4. Izsak,R.; Neese,F.; Klopper,W.
     Robust fitting techniques in the chain of spheres approximation to the Fock exchange: The role of the complementary space
     J. Chem. Phys., 2013 139 
     doi.org/10.1063/1.4819264
  5. Neese,F.
     Software update: the ORCA program system, version 4.0
     WIRES Comput. Molec. Sci., 2018 8(1)1-6
     doi.org/10.1002/wcms.1327
  6. Neese,F.; Wennmohs,F.; Becker,U.; Riplinger,C.
     The ORCA quantum chemistry program package
     J. Chem. Phys., 2020 152 Art. No. L224108
     doi.org/10.1063/5.0004608

List of optional additional citations

  1. Neese,F.
     Approximate second-order SCF convergence for spin unrestricted wavefunctions
     Chem. Phys. Lett., 2000 325(1-3)93-98
     doi.org/10.1016/s0009-2614(00)00662-x

Timings for individual modules:

Sum of individual times          ...      731.522 sec (=  12.192 min)
Startup calculation              ...       16.370 sec (=   0.273 min)   2.2 %
SCF iterations                   ...      714.920 sec (=  11.915 min)  97.7 %
Property calculations            ...        0.231 sec (=   0.004 min)   0.0 %
                             ****ORCA TERMINATED NORMALLY****
TOTAL RUN TIME: 0 days 0 hours 12 minutes 12 seconds 198 msec
