
                                 *****************
                                 * O   R   C   A *
                                 *****************

                                            #,                                       
                                            ###                                      
                                            ####                                     
                                            #####                                    
                                            ######                                   
                                           ########,                                 
                                     ,,################,,,,,                         
                               ,,#################################,,                 
                          ,,##########################################,,             
                       ,#########################################, ''#####,          
                    ,#############################################,,   '####,        
                  ,##################################################,,,,####,       
                ,###########''''           ''''###############################       
              ,#####''   ,,,,##########,,,,          '''####'''          '####       
            ,##' ,,,,###########################,,,                        '##       
           ' ,,###''''                  '''############,,,                           
         ,,##''                                '''############,,,,        ,,,,,,###''
      ,#''                                            '''#######################'''  
     '                                                          ''''####''''         
             ,#######,   #######,   ,#######,      ##                                
            ,#'     '#,  ##    ##  ,#'     '#,    #''#        ,####,   ,####,        
            ##       ##  ##   ,#'  ##            #'  '#       #'       #'  '#        
            ##       ##  #######   ##           ,######,      #####,   #    #        
            '#,     ,#'  ##    ##  '#,     ,#' ,#      #,     #,   #   #,  ,#        
             '#######'   ##     ##  '#######'  #'      '#     '####' # '####'        



                #########################################################
                #                        -***-                          #
                #          Department of theory and spectroscopy        #
                #                                                       #
                #                      Frank Neese                      #
                #                                                       #
                #     Directorship, Architecture, Infrastructure        #
                #                    SHARK, DRIVERS                     #
                #        Core code/Algorithms in most modules           #
                #                                                       #
                #        Max Planck Institute fuer Kohlenforschung      #
                #                Kaiser Wilhelm Platz 1                 #
                #                 D-45470 Muelheim/Ruhr                 #
                #                      Germany                          #
                #                                                       #
                #                  All rights reserved                  #
                #                        -***-                          #
                #########################################################


                         Program Version 6.0.0  -   RELEASE  -


 With contributions from (in alphabetic order):
   Daniel Aravena         : Magnetic Suceptibility
   Michael Atanasov       : Ab Initio Ligand Field Theory (pilot matlab implementation)
   Alexander A. Auer      : GIAO ZORA, VPT2 properties, NMR spectrum
   Ute Becker             : All parallelization in ORCA, NUMFREQ, NUMCALC
   Giovanni Bistoni       : ED, misc. LED, open-shell LED, HFLD
   Martin Brehm           : Molecular dynamics
   Dmytro Bykov           : pre 5.0 version of the SCF Hessian
   Marcos Casanova-Páez   : Triplet and SCS-CIS(D). UHF-(DLPNO)-IP/EA/STEOM-CCSD. UHF-CVS-IP/STEOM-CCSD
   Vijay G. Chilkuri      : MRCI spin determinant printing, contributions to CSF-ICE
   Pauline Colinet        : FMM embedding
   Dipayan Datta          : RHF DLPNO-CCSD density
   Achintya Kumar Dutta   : EOM-CC, STEOM-CC
   Nicolas Foglia         : Exact transition moments, OPA infrastructure, MCD improvements
   Dmitry Ganyushin       : Spin-Orbit,Spin-Spin,Magnetic field MRCI
   Miquel Garcia          : C-PCM and meta-GGA Hessian, CCSD/C-PCM, Gaussian charge scheme
   Tiago L. C. Gouveia    : GS-ROHF, GS-ROCIS
   Yang Guo               : DLPNO-NEVPT2, F12-NEVPT2, CIM, IAO-localization
   Andreas Hansen         : Spin unrestricted coupled pair/coupled cluster methods
   Ingolf Harden          : AUTO-CI MPn and infrastructure 
   Benjamin Helmich-Paris : MC-RPA, TRAH-(SCF,CASSCF), AVAS, COSX integrals, SCF dyn. polar.
   Lee Huntington         : MR-EOM, pCC
   Robert Izsak           : Overlap fitted RIJCOSX, COSX-SCS-MP3, EOM
   Riya Kayal             : Wick's Theorem for AUTO-CI, AUTO-CI UHF-CCSDT
   Emily Kempfer          : AUTO-CI, RHF CISDT and CCSDT
   Christian Kollmar      : KDIIS, OOCD, Brueckner-CCSD(T), CCSD density, CASPT2, CASPT2-K, improved NEVPT2
   Axel Koslowski         : Symmetry handling
   Simone Kossmann        : Meta GGA functionals, TD-DFT gradient, OOMP2, (MP2 Hessian; deprecated post 5.0)
   Lucas Lang             : DCDCAS
   Marvin Lechner         : AUTO-CI (C++ implementation), FIC-MRCC
   Spencer Leger          : CASSCF response
   Dagmar Lenk            : GEPOL surface, SMD, ORCA-2-JSON
   Dimitrios Liakos       : Extrapolation schemes; Compound Job, initial MDCI parallelization
   Dimitrios Manganas     : Further ROCIS development; embedding schemes. LFT, Crystal Embedding
   Dimitrios Pantazis     : SARC Basis sets
   Anastasios Papadopoulos: AUTO-CI, single reference methods and gradients
   Taras Petrenko         : pre 6.0 DFT Hessian and TD-DFT gradient, (ASA, deprecated), ECA, 1-Electron XAS/XES, NRVS
   Peter Pinski           : DLPNO-MP2, DLPNO-MP2 Gradient
   Christoph Reimann      : Effective Core Potentials
   Marius Retegan         : Local ZFS, SOC
   Christoph Riplinger    : Optimizer, TS searches, QM/MM, DLPNO-CCSD(T), (RO)-DLPNO pert. Triples
   Michael Roemelt        : Original ROCIS implementation
   Masaaki Saitow         : Open-shell DLPNO-CCSD energy and density
   Barbara Sandhoefer     : DKH picture change effects
   Kantharuban Sivalingam : CASSCF convergence/infrastructure, NEVPT2 and variants, FIC-MRCI
   Bernardo de Souza      : ESD, SOC TD-DFT
   Georgi Stoychev        : AutoAux, RI-MP2 NMR, DLPNO-MP2 response, X2C
   Van Anh Tran           : RI-MP2 g-tensors
   Willem Van den Heuvel  : Paramagnetic NMR
   Zikuan Wang            : NOTCH, Electric field optimization 
   Frank Wennmohs         : Technical directorship and infrastructure
   Hang Xu                : AUTO-CI-Response properties 


 We gratefully acknowledge several colleagues who have allowed us to
 interface, adapt or use parts of their codes:
   Stefan Grimme, W. Hujo, H. Kruse, P. Pracht,  : VdW corrections, initial TS optimization,
                  C. Bannwarth, S. Ehlert,         DFT functionals, gCP, sTDA/sTD-DF
                  L. Wittmann, M. Mueller
   Ed Valeev, F. Pavosevic, A. Kumar             : LibInt (2-el integral package), F12 methods
   Garnet Chan, S. Sharma, J. Yang, R. Olivares  : DMRG
   Ulf Ekstrom                                   : XCFun DFT Library
   Mihaly Kallay                                 : mrcc  (arbitrary order and MRCC methods)
   Frank Weinhold                                : gennbo (NPA and NBO analysis)
   Simon Mueller                                 : openCOSMO-RS
   Christopher J. Cramer and Donald G. Truhlar   : smd solvation model
   Lars Goerigk                                  : TD-DFT with DH, B97 family of functionals
   V. Asgeirsson, H. Jonsson                     : NEB implementation
   FAccTs GmbH                                   : IRC, NEB, NEB-TS, DLPNO-Multilevel, CI-OPT
                                                   MM, QMMM, 2- and 3-layer-ONIOM, Crystal-QMMM,
                                                   LR-CPCM, SF, NACMEs, symmetry and pop. for TD-DFT,
                                                   nearIR, NL-DFT gradient (VV10), updates on ESD,
                                                   ML-optimized integration grids, MBIS, APM,
                                                   GOAT, DOCKER, SOLVATOR, interface openCOSMO-RS
   S Lehtola, MJT Oliveira, MAL Marques          : LibXC Library
   Liviu Ungur et al                             : ANISO software


 Your calculation uses the libint2 library for the computation of 2-el integrals
 For citations please refer to: http://libint.valeyev.net

 Your ORCA version has been built with support for libXC version: 6.2.2
 For citations please refer to: https://libxc.gitlab.io

 This ORCA versions uses:
   CBLAS   interface :  Fast vector & matrix operations
   LAPACKE interface :  Fast linear algebra routines
   SCALAPACK package :  Parallel linear algebra routines
   Shared memory     :  Shared parallel matrices
   BLAS/LAPACK       :  OpenBLAS 0.3.27  USE64BITINT DYNAMIC_ARCH NO_AFFINITY SkylakeX SINGLE_THREADED
        Core in use  :  SkylakeX
   Copyright (c) 2011-2014, The OpenBLAS Project


Warning: RI is on but no J-basis has been assigned. Assigning Def2/J (nothing to worry about!)
================================================================================

----- Orbital basis set information -----
Your calculation utilizes the basis: 6-31G*
   H-He, Li-Ne : W. J. Hehre, R. Ditchfield and J.A. Pople, J. Chem. Phys. 56, 2257 (1972).
                 Note: He and Ne are unpublished basis sets taken from the Gaussian program.
                 Note: Li and B from J. D. Dill and J. A. Pople, J. Chem. Phys. 62, 2921 (1975).
   Na - Ar     : M. M. Francl, W. J. Pietro, W. J. Hehre, J. S. Binkley, M. S. Gordon, 
                 D. J. DeFrees and J. A. Pople, J. Chem. Phys. 77, 3654 (1982).
   K - Zn      : V. A. Rassolov, J. A. Pople, M. A. Ratner, and T. L. Windus, J. Chem. Phys. 109, 1223 (1998).

----- AuxJ basis set information -----
Your calculation utilizes the auxiliary basis: def2/J
   F. Weigend, Phys. Chem. Chem. Phys. 8, 1057 (2006).

================================================================================
                                        WARNINGS
                       Please study these warnings very carefully!
================================================================================


================================================================================
                                       INPUT FILE
================================================================================
NAME = /home/nmrbox/aojoawo/Documents/ERDOS/inputs/CHEMBL3894821.inp
|  1> ! B3LYP 6-31G* SP
|  2> 
|  3> * xyz 0 1
|  4> C 5.1484 -2.7864 -0.8114
|  5> N 5.6279 -1.5349 -0.2183
|  6> C 4.7644 -0.7374 0.6343
|  7> O 3.6094 -1.1383 0.9422
|  8> C 5.2700 0.5655 1.1194
|  9> C 6.4946 1.0255 0.7591
| 10> N 6.7254 2.2583 1.2460
| 11> C 5.5798 2.5205 1.9276
| 12> N 4.6766 1.5083 1.8710
| 13> C 3.3303 1.5062 2.4431
| 14> C 2.2999 1.7292 1.3763
| 15> O 2.5385 2.5429 0.4444
| 16> N 1.0202 1.0855 1.4761
| 17> C 0.0488 1.0535 0.4226
| 18> N -1.2282 0.6682 0.6263
| 19> C -1.9608 0.6763 -0.5237
| 20> C -3.4026 0.3182 -0.5248
| 21> C -4.0779 -0.0038 -1.7129
| 22> C -5.4380 -0.3226 -1.6954
| 23> C -6.1733 -0.3321 -0.4907
| 24> C -7.6781 -0.6733 -0.5188
| 25> C -8.3350 -0.6345 0.8823
| 26> C -8.4203 0.3455 -1.4117
| 27> C -7.8741 -2.0950 -1.0907
| 28> C -5.4805 -0.0205 0.7016
| 29> C -4.1192 0.2957 0.6817
| 30> C -1.2464 1.0674 -1.6618
| 31> S 0.3342 1.4064 -1.1984
| 32> N 7.3493 0.2608 -0.0813
| 33> C 8.6084 0.5993 -0.7037
| 34> C 8.8936 -0.6379 -1.5867
| 35> N 7.7270 -1.5132 -1.4322
| 36> C 6.9135 -0.9795 -0.5885
| 37> H 4.5704 -2.5631 -1.7336
| 38> H 4.4980 -3.3318 -0.0956
| 39> H 5.9997 -3.4555 -1.0657
| 40> H 5.4037 3.4524 2.4504
| 41> H 3.2379 2.3108 3.2040
| 42> H 3.1496 0.5373 2.9560
| 43> H 0.7686 0.6240 2.3789
| 44> H -3.5601 -0.0255 -2.6616
| 45> H -5.9138 -0.5625 -2.6367
| 46> H -9.4173 -0.8813 0.8176
| 47> H -7.8637 -1.3780 1.5613
| 48> H -8.2511 0.3789 1.3314
| 49> H -8.2543 1.3797 -1.0376
| 50> H -8.0719 0.2954 -2.4646
| 51> H -9.5143 0.1459 -1.4142
| 52> H -7.5214 -2.1663 -2.1411
| 53> H -7.3112 -2.8367 -0.4826
| 54> H -8.9495 -2.3787 -1.0823
| 55> H -5.9725 -0.0105 1.6625
| 56> H -3.6304 0.5383 1.6175
| 57> H -1.6285 1.1654 -2.6688
| 58> H 8.4938 1.5146 -1.3234
| 59> H 9.3958 0.7380 0.0692
| 60> H 9.0103 -0.3483 -2.6533
| 61> H 9.8064 -1.1661 -1.2365
| 62> *
| 63> 
| 64>                          ****END OF INPUT****
================================================================================

                       ****************************
                       * Single Point Calculation *
                       ****************************

---------------------------------
CARTESIAN COORDINATES (ANGSTROEM)
---------------------------------
  C      5.148400   -2.786400   -0.811400
  N      5.627900   -1.534900   -0.218300
  C      4.764400   -0.737400    0.634300
  O      3.609400   -1.138300    0.942200
  C      5.270000    0.565500    1.119400
  C      6.494600    1.025500    0.759100
  N      6.725400    2.258300    1.246000
  C      5.579800    2.520500    1.927600
  N      4.676600    1.508300    1.871000
  C      3.330300    1.506200    2.443100
  C      2.299900    1.729200    1.376300
  O      2.538500    2.542900    0.444400
  N      1.020200    1.085500    1.476100
  C      0.048800    1.053500    0.422600
  N     -1.228200    0.668200    0.626300
  C     -1.960800    0.676300   -0.523700
  C     -3.402600    0.318200   -0.524800
  C     -4.077900   -0.003800   -1.712900
  C     -5.438000   -0.322600   -1.695400
  C     -6.173300   -0.332100   -0.490700
  C     -7.678100   -0.673300   -0.518800
  C     -8.335000   -0.634500    0.882300
  C     -8.420300    0.345500   -1.411700
  C     -7.874100   -2.095000   -1.090700
  C     -5.480500   -0.020500    0.701600
  C     -4.119200    0.295700    0.681700
  C     -1.246400    1.067400   -1.661800
  S      0.334200    1.406400   -1.198400
  N      7.349300    0.260800   -0.081300
  C      8.608400    0.599300   -0.703700
  C      8.893600   -0.637900   -1.586700
  N      7.727000   -1.513200   -1.432200
  C      6.913500   -0.979500   -0.588500
  H      4.570400   -2.563100   -1.733600
  H      4.498000   -3.331800   -0.095600
  H      5.999700   -3.455500   -1.065700
  H      5.403700    3.452400    2.450400
  H      3.237900    2.310800    3.204000
  H      3.149600    0.537300    2.956000
  H      0.768600    0.624000    2.378900
  H     -3.560100   -0.025500   -2.661600
  H     -5.913800   -0.562500   -2.636700
  H     -9.417300   -0.881300    0.817600
  H     -7.863700   -1.378000    1.561300
  H     -8.251100    0.378900    1.331400
  H     -8.254300    1.379700   -1.037600
  H     -8.071900    0.295400   -2.464600
  H     -9.514300    0.145900   -1.414200
  H     -7.521400   -2.166300   -2.141100
  H     -7.311200   -2.836700   -0.482600
  H     -8.949500   -2.378700   -1.082300
  H     -5.972500   -0.010500    1.662500
  H     -3.630400    0.538300    1.617500
  H     -1.628500    1.165400   -2.668800
  H      8.493800    1.514600   -1.323400
  H      9.395800    0.738000    0.069200
  H      9.010300   -0.348300   -2.653300
  H      9.806400   -1.166100   -1.236500

----------------------------
CARTESIAN COORDINATES (A.U.)
----------------------------
  NO LB      ZA    FRAG     MASS         X           Y           Z
   0 C     6.0000    0    12.011    9.729066   -5.265533   -1.533324
   1 N     7.0000    0    14.007   10.635190   -2.900541   -0.412527
   2 C     6.0000    0    12.011    9.003411   -1.393484    1.198653
   3 O     8.0000    0    15.999    6.820778   -2.151075    1.780500
   4 C     6.0000    0    12.011    9.958857    1.068640    2.115359
   5 C     6.0000    0    12.011   12.273015    1.937914    1.434491
   6 N     7.0000    0    14.007   12.709164    4.267569    2.354599
   7 C     6.0000    0    12.011   10.544294    4.763055    3.642636
   8 N     7.0000    0    14.007    8.837493    2.850274    3.535678
   9 C     6.0000    0    12.011    6.293355    2.846306    4.616790
  10 C     6.0000    0    12.011    4.346181    3.267714    2.600830
  11 O     8.0000    0    15.999    4.797070    4.805385    0.839794
  12 N     7.0000    0    14.007    1.927899    2.051298    2.789425
  13 C     6.0000    0    12.011    0.092219    1.990826    0.798598
  14 N     7.0000    0    14.007   -2.320962    1.262715    1.183535
  15 C     6.0000    0    12.011   -3.705375    1.278022   -0.989650
  16 C     6.0000    0    12.011   -6.429982    0.601311   -0.991728
  17 C     6.0000    0    12.011   -7.706114   -0.007181   -3.236912
  18 C     6.0000    0    12.011  -10.276331   -0.609626   -3.203842
  19 C     6.0000    0    12.011  -11.665846   -0.627578   -0.927289
  20 C     6.0000    0    12.011  -14.509506   -1.272353   -0.980390
  21 C     6.0000    0    12.011  -15.750867   -1.199031    1.667305
  22 C     6.0000    0    12.011  -15.912061    0.652900   -2.667726
  23 C     6.0000    0    12.011  -14.879893   -3.958976   -2.061124
  24 C     6.0000    0    12.011  -10.356644   -0.038739    1.325832
  25 C     6.0000    0    12.011   -7.784160    0.558792    1.288226
  26 C     6.0000    0    12.011   -2.355355    2.017094   -3.140347
  27 S    16.0000    0    32.060    0.631546    2.657711   -2.264648
  28 N     7.0000    0    14.007   13.888164    0.492841   -0.153635
  29 C     6.0000    0    12.011   16.267518    1.132513   -1.329800
  30 C     6.0000    0    12.011   16.806468   -1.205456   -2.998428
  31 N     7.0000    0    14.007   14.601914   -2.859534   -2.706466
  32 C     6.0000    0    12.011   13.064622   -1.850987   -1.112104
  33 H     1.0000    0     1.008    8.636804   -4.843557   -3.276029
  34 H     1.0000    0     1.008    8.499988   -6.296190   -0.180658
  35 H     1.0000    0     1.008   11.337790   -6.529949   -2.013881
  36 H     1.0000    0     1.008   10.211513    6.524091    4.630585
  37 H     1.0000    0     1.008    6.118744    4.366779    6.054683
  38 H     1.0000    0     1.008    5.951881    1.015350    5.586030
  39 H     1.0000    0     1.008    1.452444    1.179189    4.495469
  40 H     1.0000    0     1.008   -6.727614   -0.048188   -5.029695
  41 H     1.0000    0     1.008  -11.175462   -1.062971   -4.982641
  42 H     1.0000    0     1.008  -17.796118   -1.665416    1.545040
  43 H     1.0000    0     1.008  -14.860239   -2.604043    2.950429
  44 H     1.0000    0     1.008  -15.592319    0.716017    2.515981
  45 H     1.0000    0     1.008  -15.598366    2.607255   -1.960780
  46 H     1.0000    0     1.008  -15.253680    0.558225   -4.657419
  47 H     1.0000    0     1.008  -17.979421    0.275711   -2.672451
  48 H     1.0000    0     1.008  -14.213386   -4.093714   -4.046093
  49 H     1.0000    0     1.008  -13.816166   -5.360586   -0.911982
  50 H     1.0000    0     1.008  -16.912104   -4.495092   -2.045251
  51 H     1.0000    0     1.008  -11.286389   -0.019842    3.141670
  52 H     1.0000    0     1.008   -6.860462    1.017240    3.056632
  53 H     1.0000    0     1.008   -3.077419    2.202287   -5.043301
  54 H     1.0000    0     1.008   16.050956    2.862179   -2.500864
  55 H     1.0000    0     1.008   17.755489    1.394618    0.130769
  56 H     1.0000    0     1.008   17.026999   -0.658192   -5.014010
  57 H     1.0000    0     1.008   18.531410   -2.203610   -2.336646

--------------------------------
INTERNAL COORDINATES (ANGSTROEM)
--------------------------------
 C      0   0   0     0.000000000000     0.00000000     0.00000000
 N      1   0   0     1.465585244877     0.00000000     0.00000000
 C      2   1   0     1.452089962778   120.79968924     0.00000000
 O      3   2   1     1.260772866142   120.89896981     3.87327692
 C      3   2   1     1.479358570462   118.22899531   184.57006674
 C      5   3   2     1.356857122176   121.32976392     1.43734003
 N      6   5   3     1.345412981207   111.67671534   176.43078420
 C      7   6   5     1.358575268434   102.34235991     0.33238334
 N      5   3   2     1.343837028810   130.56972176   177.55842609
 C      9   5   3     1.462814584970   128.61835570     0.45748300
 C     10   9   5     1.499838457968   110.72580414   286.78388768
 O     11  10   9     1.259950499028   119.47244292   321.65412246
 N     11  10   9     1.435946315152   119.74680882   145.90266089
 C     13  11  10     1.433354181631   124.25618059   190.42710043
 N     14  13  11     1.349325305477   122.46625752   192.89772242
 C     15  14  13     1.363549914745   112.30011286   181.91470200
 C     16  15  14     1.485605620614   121.37413001   181.50814222
 C     17  16  15     1.404028382904   121.51347340   196.30223061
 C     18  17  16     1.397072546434   120.66238080   180.76211111
 C     19  18  17     1.411403000564   121.29278312   359.97016127
 C     20  19  18     1.543253086827   119.59964565   179.25914207
 C     21  20  19     1.547935483152   113.06497741   180.20912842
 C     21  20  19     1.544695662582   109.46407531   300.17711952
 C     21  20  19     1.544900158586   109.50617690    60.09562474
 C     20  19  18     1.413734660394   117.58543086   359.36238437
 C     25  20  19     1.397682417433   121.00741667     0.51697924
 C     16  15  14     1.399499260450   114.40961480     0.41410116
 S     27  16  15     1.681653031990   108.18197111     0.00000000
 N      6   5   3     1.421812343455   121.14182508   358.89885336
 C     29   6   5     1.444748012631   130.73135185   172.43383418
 C     30  29   6     1.546509579666   102.66520640   185.81053505
 N     31  30  29     1.466620571245   105.70060081     3.23429242
 C     32  31  30     1.287807295367   108.91418337   357.46085626
 H      1   2   3     1.111035431478   109.54123207    82.64304132
 H      1   2   3     1.110338218742   110.50011619   322.27776679
 H      1   2   3     1.112238728871   110.84334481   203.24321862
 H      8   7   6     1.082944439941   123.05194578   180.77463466
 H     10   9   5     1.111255024736   110.07672681   166.44376560
 H     10   9   5     1.111074304446   109.35818816    48.47587755
 H     13  11  10     1.044668679534   118.21177640    11.59965323
 H     18  17  16     1.081027020939   121.12103381     1.61054123
 H     19  18  17     1.081657681524   117.90123652   179.92908409
 H     22  21  20     1.111966555252   110.78245048   179.75938676
 H     22  21  20     1.111736002835   110.86412553   298.95088728
 H     22  21  20     1.111624747835   110.88547990    60.58550995
 H     23  21  20     1.112239385204   110.31222033   302.33213102
 H     23  21  20     1.110176103148   111.57194043    62.76448617
 H     23  21  20     1.112062232971   110.83013957   182.35815159
 H     24  21  20     1.110324790320   111.65399246   297.27889164
 H     24  21  20     1.112097527198   110.31105935    57.73138600
 H     24  21  20     1.112223633088   110.76930946   177.71664088
 H     25  20  19     1.079579922933   121.96263426   180.22855757
 H     26  25  20     1.083282899339   118.54444718   179.36564016
 H     27  16  15     1.081505159488   127.02539613   181.38259547
 H     30  29   6     1.111276446254   110.08050153   304.13750512
 H     30  29   6     1.112030062543   110.29712515    66.92106747
 H     31  30  29     1.111360702023   111.03070417   122.35301929
 H     31  30  29     1.111233152853   110.59792054   244.60941205

---------------------------
INTERNAL COORDINATES (A.U.)
---------------------------
 C      0   0   0     0.000000000000     0.00000000     0.00000000
 N      1   0   0     2.769554738733     0.00000000     0.00000000
 C      2   1   0     2.744052351466   120.79968924     0.00000000
 O      3   2   1     2.382515434087   120.89896981     3.87327692
 C      3   2   1     2.795582552043   118.22899531   184.57006674
 C      5   3   2     2.564088363773   121.32976392     1.43734003
 N      6   5   3     2.542462071504   111.67671534   176.43078420
 C      7   6   5     2.567335189658   102.34235991     0.33238334
 N      5   3   2     2.539483953073   130.56972176   177.55842609
 C      9   5   3     2.764318950298   128.61835570     0.45748300
 C     10   9   5     2.834283930682   110.72580414   286.78388768
 O     11  10   9     2.380961385460   119.47244292   321.65412246
 N     11  10   9     2.713545278652   119.74680882   145.90266089
 C     13  11  10     2.708646856194   124.25618059   190.42710043
 N     14  13  11     2.549855292921   122.46625752   192.89772242
 C     15  14  13     2.576735908799   112.30011286   181.91470200
 C     16  15  14     2.807387765975   121.37413001   181.50814222
 C     17  16  15     2.653229127941   121.51347340   196.30223061
 C     18  17  16     2.640084501981   120.66238080   180.76211111
 C     19  18  17     2.667165135660   121.29278312   359.97016127
 C     20  19  18     2.916325689431   119.59964565   179.25914207
 C     21  20  19     2.925174136136   113.06497741   180.20912842
 C     21  20  19     2.919051762536   109.46407531   300.17711952
 C     21  20  19     2.919438203980   109.50617690    60.09562474
 C     20  19  18     2.671571334177   117.58543086   359.36238437
 C     25  20  19     2.641236991144   121.00741667     0.51697924
 C     16  15  14     2.644670326876   114.40961480     0.41410116
 S     27  16  15     3.177863682739   108.18197111     0.00000000
 N      6   5   3     2.686835942958   121.14182508   358.89885336
 C     29   6   5     2.730178076399   130.73135185   172.43383418
 C     30  29   6     2.922479569055   102.66520640   185.81053505
 N     31  30  29     2.771511222029   105.70060081     3.23429242
 C     32  31  30     2.433603101509   108.91418337   357.46085626
 H      1   2   3     2.099552690577   109.54123207    82.64304132
 H      1   2   3     2.098235149449   110.50011619   322.27776679
 H      1   2   3     2.101826593106   110.84334481   203.24321862
 H      8   7   6     2.046468409742   123.05194578   180.77463466
 H     10   9   5     2.099967661694   110.07672681   166.44376560
 H     10   9   5     2.099626149840   109.35818816    48.47587755
 H     13  11  10     1.974137705005   118.21177640    11.59965323
 H     18  17  16     2.042845012943   121.12103381     1.61054123
 H     19  18  17     2.044036788733   117.90123652   179.92908409
 H     22  21  20     2.101312259507   110.78245048   179.75938676
 H     22  21  20     2.100876578579   110.86412553   298.95088728
 H     22  21  20     2.100666337098   110.88547990    60.58550995
 H     23  21  20     2.101827833397   110.31222033   302.33213102
 H     23  21  20     2.097928795373   111.57194043    62.76448617
 H     23  21  20     2.101493064192   110.83013957   182.35815159
 H     24  21  20     2.098209773409   111.65399246   297.27889164
 H     24  21  20     2.101559760615   110.31105935    57.73138600
 H     24  21  20     2.101798066212   110.76930946   177.71664088
 H     25  20  19     2.040110394023   121.96263426   180.22855757
 H     26  25  20     2.047108005311   118.54444718   179.36564016
 H     27  16  15     2.043748563856   127.02539613   181.38259547
 H     30  29   6     2.100008142498   110.08050153   304.13750512
 H     30  29   6     2.101432270894   110.29712515    66.92106747
 H     31  30  29     2.100167362825   111.03070417   122.35301929
 H     31  30  29     2.099926329826   110.59792054   244.60941205

---------------------
BASIS SET INFORMATION
---------------------
There are 5 groups of distinct atoms

 Group   1 Type C   : 10s4p1d contracted to 3s2p1d pattern {631/31/1}
 Group   2 Type N   : 10s4p1d contracted to 3s2p1d pattern {631/31/1}
 Group   3 Type O   : 10s4p1d contracted to 3s2p1d pattern {631/31/1}
 Group   4 Type S   : 16s10p1d contracted to 4s3p1d pattern {6631/631/1}
 Group   5 Type H   : 4s contracted to 2s pattern {31}

Atom   0C    basis set group =>   1
Atom   1N    basis set group =>   2
Atom   2C    basis set group =>   1
Atom   3O    basis set group =>   3
Atom   4C    basis set group =>   1
Atom   5C    basis set group =>   1
Atom   6N    basis set group =>   2
Atom   7C    basis set group =>   1
Atom   8N    basis set group =>   2
Atom   9C    basis set group =>   1
Atom  10C    basis set group =>   1
Atom  11O    basis set group =>   3
Atom  12N    basis set group =>   2
Atom  13C    basis set group =>   1
Atom  14N    basis set group =>   2
Atom  15C    basis set group =>   1
Atom  16C    basis set group =>   1
Atom  17C    basis set group =>   1
Atom  18C    basis set group =>   1
Atom  19C    basis set group =>   1
Atom  20C    basis set group =>   1
Atom  21C    basis set group =>   1
Atom  22C    basis set group =>   1
Atom  23C    basis set group =>   1
Atom  24C    basis set group =>   1
Atom  25C    basis set group =>   1
Atom  26C    basis set group =>   1
Atom  27S    basis set group =>   4
Atom  28N    basis set group =>   2
Atom  29C    basis set group =>   1
Atom  30C    basis set group =>   1
Atom  31N    basis set group =>   2
Atom  32C    basis set group =>   1
Atom  33H    basis set group =>   5
Atom  34H    basis set group =>   5
Atom  35H    basis set group =>   5
Atom  36H    basis set group =>   5
Atom  37H    basis set group =>   5
Atom  38H    basis set group =>   5
Atom  39H    basis set group =>   5
Atom  40H    basis set group =>   5
Atom  41H    basis set group =>   5
Atom  42H    basis set group =>   5
Atom  43H    basis set group =>   5
Atom  44H    basis set group =>   5
Atom  45H    basis set group =>   5
Atom  46H    basis set group =>   5
Atom  47H    basis set group =>   5
Atom  48H    basis set group =>   5
Atom  49H    basis set group =>   5
Atom  50H    basis set group =>   5
Atom  51H    basis set group =>   5
Atom  52H    basis set group =>   5
Atom  53H    basis set group =>   5
Atom  54H    basis set group =>   5
Atom  55H    basis set group =>   5
Atom  56H    basis set group =>   5
Atom  57H    basis set group =>   5
---------------------------------
AUXILIARY/J BASIS SET INFORMATION
---------------------------------
There are 5 groups of distinct atoms

 Group   1 Type C   : 12s5p4d2f1g contracted to 6s4p3d1f1g pattern {711111/2111/211/2/1}
 Group   2 Type N   : 12s5p4d2f1g contracted to 6s4p3d1f1g pattern {711111/2111/211/2/1}
 Group   3 Type O   : 12s5p4d2f1g contracted to 6s4p3d1f1g pattern {711111/2111/211/2/1}
 Group   4 Type S   : 14s5p5d2f1g contracted to 8s4p3d1f1g pattern {71111111/2111/311/2/1}
 Group   5 Type H   : 5s2p1d contracted to 3s1p1d pattern {311/2/1}

Atom   0C    basis set group =>   1
Atom   1N    basis set group =>   2
Atom   2C    basis set group =>   1
Atom   3O    basis set group =>   3
Atom   4C    basis set group =>   1
Atom   5C    basis set group =>   1
Atom   6N    basis set group =>   2
Atom   7C    basis set group =>   1
Atom   8N    basis set group =>   2
Atom   9C    basis set group =>   1
Atom  10C    basis set group =>   1
Atom  11O    basis set group =>   3
Atom  12N    basis set group =>   2
Atom  13C    basis set group =>   1
Atom  14N    basis set group =>   2
Atom  15C    basis set group =>   1
Atom  16C    basis set group =>   1
Atom  17C    basis set group =>   1
Atom  18C    basis set group =>   1
Atom  19C    basis set group =>   1
Atom  20C    basis set group =>   1
Atom  21C    basis set group =>   1
Atom  22C    basis set group =>   1
Atom  23C    basis set group =>   1
Atom  24C    basis set group =>   1
Atom  25C    basis set group =>   1
Atom  26C    basis set group =>   1
Atom  27S    basis set group =>   4
Atom  28N    basis set group =>   2
Atom  29C    basis set group =>   1
Atom  30C    basis set group =>   1
Atom  31N    basis set group =>   2
Atom  32C    basis set group =>   1
Atom  33H    basis set group =>   5
Atom  34H    basis set group =>   5
Atom  35H    basis set group =>   5
Atom  36H    basis set group =>   5
Atom  37H    basis set group =>   5
Atom  38H    basis set group =>   5
Atom  39H    basis set group =>   5
Atom  40H    basis set group =>   5
Atom  41H    basis set group =>   5
Atom  42H    basis set group =>   5
Atom  43H    basis set group =>   5
Atom  44H    basis set group =>   5
Atom  45H    basis set group =>   5
Atom  46H    basis set group =>   5
Atom  47H    basis set group =>   5
Atom  48H    basis set group =>   5
Atom  49H    basis set group =>   5
Atom  50H    basis set group =>   5
Atom  51H    basis set group =>   5
Atom  52H    basis set group =>   5
Atom  53H    basis set group =>   5
Atom  54H    basis set group =>   5
Atom  55H    basis set group =>   5
Atom  56H    basis set group =>   5
Atom  57H    basis set group =>   5
------------------------------------------------------------------------------
                             ORCA STARTUP CALCULATIONS
                           -- RI-GTO INTEGRALS CHOSEN --
------------------------------------------------------------------------------
------------------------------------------------------------------------------
                   ___                                                        
                  /   \      - P O W E R E D   B Y -                         
                 /     \                                                     
                 |  |  |   _    _      __       _____    __    __             
                 |  |  |  | |  | |    /  \     |  _  \  |  |  /  |          
                  \  \/   | |  | |   /    \    | | | |  |  | /  /          
                 / \  \   | |__| |  /  /\  \   | |_| |  |  |/  /          
                |  |  |   |  __  | /  /__\  \  |    /   |      \           
                |  |  |   | |  | | |   __   |  |    \   |  |\   \          
                \     /   | |  | | |  |  |  |  | |\  \  |  | \   \       
                 \___/    |_|  |_| |__|  |__|  |_| \__\ |__|  \__/        
                                                                              
                      - O R C A' S   B I G   F R I E N D -                    
                                      &                                       
                       - I N T E G R A L  F E E D E R -                       
                                                                              
 v1 FN, 2020, v2 2021, v3 2022-2024                                           
------------------------------------------------------------------------------


----------------------
SHARK INTEGRAL PACKAGE
----------------------

Number of atoms                             ...     58
Number of basis functions                   ...    516
Number of shells                            ...    250
Maximum angular momentum                    ...      2
Integral batch strategy                     ... SHARK/LIBINT Hybrid
RI-J (if used) integral strategy            ... SPLIT-RIJ (Revised 2003 algorithm where possible)
Printlevel                                  ...      1
Contraction scheme used                     ... SEGMENTED contraction
Prescreening option                         ... SCHWARTZ
   Thresh                                   ... 1.000e-10
   Tcut                                     ... 1.000e-11
   Tpresel                                  ... 1.000e-11 
Coulomb Range Separation                    ... NOT USED
Exchange Range Separation                   ... NOT USED
Multipole approximations                    ... NOT USED
Finite Nucleus Model                        ... NOT USED
CABS basis                                  ... NOT available
Auxiliary Coulomb fitting basis             ... AVAILABLE
   # of basis functions in Aux-J            ...   1894
   # of shells in Aux-J                     ...    622
   Maximum angular momentum in Aux-J        ...      4
Auxiliary J/K fitting basis                 ... NOT available
Auxiliary Correlation fitting basis         ... NOT available
Auxiliary 'external' fitting basis          ... NOT available

Checking pre-screening integrals            ... done (  0.0 sec) Dimension = 250
Check shell pair data                       ... done (  0.0 sec)
Shell pair information
Shell pair cut-off parameter TPreSel        ...   1.0e-11
Total number of shell pairs                 ...     31375
Shell pairs after pre-screening             ...     14544
Total number of primitive shell pairs       ...    185326
Primitive shell pairs kept                  ...     46456
          la=0 lb=0:   4814 shell pairs
          la=1 lb=0:   5043 shell pairs
          la=1 lb=1:   1359 shell pairs
          la=2 lb=0:   1984 shell pairs
          la=2 lb=1:   1116 shell pairs
          la=2 lb=2:    228 shell pairs

Calculating one electron integrals          ... done (  0.2 sec)
Calculating RI/J V-Matrix + Cholesky decomp.... done (  0.6 sec)
Calculating Nuclear repulsion               ... done (  0.0 sec) ENN=   3272.658575084205 Eh

Diagonalization of the overlap matrix:
Smallest eigenvalue                        ... 4.294e-04
Time for diagonalization                   ...    0.035 sec
Threshold for overlap eigenvalues          ... 1.000e-07
Number of eigenvalues below threshold      ... 0
Time for construction of square roots      ...    0.151 sec
Total time needed                          ...    0.251 sec

-------------------
DFT GRID GENERATION
-------------------

General Integration Accuracy     IntAcc      ... 4.388
Radial Grid Type                 RadialGrid  ... OptM3 with GC (2021)
Angular Grid (max. ang.)         AngularGrid ... 4 (Lebedev-302)
Angular grid pruning method      GridPruning ... 4 (adaptive)
Weight generation scheme         WeightScheme... mBecke (2022)
Basis function cutoff            BFCut       ... 1.0000e-10
Integration weight cutoff        WCut        ... 1.0000e-14
Partially contracted basis set               ... off
Rotationally invariant grid construction     ... off
Angular grids for H and He will be reduced by one unit

Total number of grid points                  ...   278316
Total number of batches                      ...     4379
Average number of points per batch           ...       63
Average number of grid points per atom       ...     4799

--------------------
COSX GRID GENERATION
--------------------

GRIDX 1
-------
General Integration Accuracy     IntAcc      ... 3.816
Radial Grid Type                 RadialGrid  ... OptM3 with GC (2021)
Angular Grid (max. ang.)         AngularGrid ... 1 (Lebedev-50)
Angular grid pruning method      GridPruning ... 4 (adaptive)
Weight generation scheme         WeightScheme... mBecke (2022)
Basis function cutoff            BFCut       ... 1.0000e-10
Integration weight cutoff        WCut        ... 1.0000e-14
Partially contracted basis set               ... on
Rotationally invariant grid construction     ... off
Angular grids for H and He will be reduced by one unit

Total number of grid points                  ...    36323
Total number of batches                      ...      317
Average number of points per batch           ...      114
Average number of grid points per atom       ...      626
UseSFitting                                  ... on

GRIDX 2
-------
General Integration Accuracy     IntAcc      ... 4.020
Radial Grid Type                 RadialGrid  ... OptM3 with GC (2021)
Angular Grid (max. ang.)         AngularGrid ... 2 (Lebedev-110)
Angular grid pruning method      GridPruning ... 4 (adaptive)
Weight generation scheme         WeightScheme... mBecke (2022)
Basis function cutoff            BFCut       ... 1.0000e-10
Integration weight cutoff        WCut        ... 1.0000e-14
Partially contracted basis set               ... on
Rotationally invariant grid construction     ... off
Angular grids for H and He will be reduced by one unit

Total number of grid points                  ...    76529
Total number of batches                      ...      630
Average number of points per batch           ...      121
Average number of grid points per atom       ...     1319
UseSFitting                                  ... on

GRIDX 3
-------
General Integration Accuracy     IntAcc      ... 4.338
Radial Grid Type                 RadialGrid  ... OptM3 with GC (2021)
Angular Grid (max. ang.)         AngularGrid ... 3 (Lebedev-194)
Angular grid pruning method      GridPruning ... 4 (adaptive)
Weight generation scheme         WeightScheme... mBecke (2022)
Basis function cutoff            BFCut       ... 1.0000e-10
Integration weight cutoff        WCut        ... 1.0000e-14
Partially contracted basis set               ... on
Rotationally invariant grid construction     ... off
Angular grids for H and He will be reduced by one unit

Total number of grid points                  ...   167809
Total number of batches                      ...     1342
Average number of points per batch           ...      125
Average number of grid points per atom       ...     2893
UseSFitting                                  ... on
Initializing property integral containers    ... done (  0.0 sec)

SHARK setup successfully completed in  11.6 seconds

Maximum memory used throughout the entire STARTUP-calculation: 117.2 MB
-------------------------------------------------------------------------------
                                 ORCA GUESS
                   Start orbitals & Density for SCF / CASSCF
-------------------------------------------------------------------------------

------------
SCF SETTINGS
------------
Hamiltonian:
 Density Functional     Method          .... DFT(GTOs)
 Exchange Functional    Exchange        .... B88
   X-Alpha parameter    XAlpha          ....  0.666667
   Becke's b parameter  XBeta           ....  0.004200
 Correlation Functional Correlation     .... LYP
 LDA part of GGA corr.  LDAOpt          .... VWN-5
 Gradients option       PostSCFGGA      .... off
 Hybrid DFT is turned on
   Fraction HF Exchange ScalHFX         ....  0.200000
   Scaling of DF-GGA-X  ScalDFX         ....  0.720000
   Scaling of DF-GGA-C  ScalDFC         ....  0.810000
   Scaling of DF-LDA-C  ScalLDAC        ....  1.000000
   Perturbative correction              ....  0.000000
   NL short-range parameter             ....  4.800000
 RI-approximation to the Coulomb term is turned on
   Number of AuxJ basis functions       .... 1894
   RIJ-COSX (HFX calculated with COS-X)).... on


General Settings:
 Integral files         IntName         .... /home/nmrbox/aojoawo/Documents/ERDOS/inputs/CHEMBL3894821
 Hartree-Fock type      HFTyp           .... RHF
 Total Charge           Charge          ....    0
 Multiplicity           Mult            ....    1
 Number of Electrons    NEL             ....  244
 Basis Dimension        Dim             ....  516
 Nuclear Repulsion      ENuc            ....   3272.6585750842 Eh

Convergence Acceleration:
 AO-DIIS                CNVDIIS         .... on
   Start iteration      DIISMaxIt       ....    12
   Startup error        DIISStart       ....  0.200000
   # of expansion vecs  DIISMaxEq       ....     5
   Bias factor          DIISBfac        ....   1.050
   Max. coefficient     DIISMaxC        ....  10.000
 MO-DIIS                CNVKDIIS        .... off
 Trust-Rad. Augm. Hess. CNVTRAH         .... auto
   Auto Start mean grad. ratio tolernc. ....  1.125000
   Auto Start start iteration           ....    50
   Auto Start num. interpolation iter.  ....    10
   Max. Number of Micro iterations      ....    24
   Max. Number of Macro iterations      .... Maxiter - #DIIS iter
   Number of Davidson start vectors     ....     2
   Converg. threshold    (grad. norm)   ....   5.000e-05
   Grad. Scal. Fac. for Micro threshold ....   0.100
   Minimum threshold for Micro iter.    ....   1.000e-02
   NR start threshold (gradient norm)   ....   1.000e-04
   Initial trust radius                 ....   0.400
   Minimum AH scaling param. (alpha)    ....   1.000
   Maximum AH scaling param. (alpha)    .... 1000.000
   Quad. conv. algorithm                .... NR
   White noise on init. David. guess    .... on
   Maximum white noise                  ....   0.010
   Pseudo random numbers                .... off
   Inactive MOs                         .... canonical
   Orbital update algorithm             .... Taylor
   Preconditioner                       .... Diag
   Full preconditioner red. dimension   ....   250
 SOSCF                  CNVSOSCF        .... on
   Start iteration      SOSCFMaxIt      ....   150
   Startup grad/error   SOSCFStart      ....  0.003300
   Hessian update       SOSCFHessUp     .... L-BFGS
 Level Shifting         CNVShift        .... on
   Level shift para.    LevelShift      ....    0.2500
   Turn off err/grad.   ShiftErr        ....    0.0010
 Zerner damping         CNVZerner       .... off
 Static damping         CNVDamp         .... on
   Fraction old density DampFac         ....    0.7000
   Max. Damping (<1)    DampMax         ....    0.9800
   Min. Damping (>=0)   DampMin         ....    0.0000
   Turn off err/grad.   DampErr         ....    0.1000

SCF Procedure:
 Maximum # iterations   MaxIter         ....   125
 SCF integral mode      SCFMode         .... Direct
   Integral package                     .... SHARK and LIBINT hybrid scheme
 Reset frequency        DirectResetFreq ....    20
 Integral Threshold     Thresh          ....  1.000e-10 Eh
 Primitive CutOff       TCut            ....  1.000e-11 Eh

Convergence Tolerance:
 Convergence Check Mode ConvCheckMode   .... Total+1el-Energy
 Convergence forced     ConvForced      .... 0
 Energy Change          TolE            ....  1.000e-06 Eh
 1-El. energy change                    ....  1.000e-03 Eh
 Orbital Gradient       TolG            ....  5.000e-05
 Orbital Rotation angle TolX            ....  5.000e-05
 DIIS Error             TolErr          ....  1.000e-06

------------------------------
INITIAL GUESS: MODEL POTENTIAL
------------------------------
Loading Hartree-Fock densities                     ... done
Calculating cut-offs                               ... done
Initializing the effective Hamiltonian             ... done
Setting up the integral package (SHARK)            ... done
Starting the Coulomb interaction                   ... done (   2.2 sec)
Making the grid                                    ... done (   1.3 sec)
Mapping shells                                     ... done
Starting the XC term evaluation                    ... done (   0.8 sec)
  promolecular density results
     # of electrons  =    243.994577522
     EX              =   -213.128620317
     EC              =     -8.456582644
     EX+EC           =   -221.585202960
Transforming the Hamiltonian                       ... done (   0.0 sec)
Diagonalizing the Hamiltonian                      ... done (   0.0 sec)
Back transforming the eigenvectors                 ... done (   0.1 sec)
Now organizing SCF variables                       ... done
                      ------------------
                      INITIAL GUESS DONE (   4.6 sec)
                      ------------------
             **** ENERGY FILE WAS UPDATED (/home/nmrbox/aojoawo/Documents/ERDOS/inputs/CHEMBL3894821.en.tmp) ****
Finished Guess after   5.0 sec
Maximum memory used throughout the entire GUESS-calculation: 61.5 MB

-------------------------------------------------------------------------------------------
                                      ORCA LEAN-SCF
                              memory conserving SCF solver
-------------------------------------------------------------------------------------------

----------------------------------------D-I-I-S--------------------------------------------
Iteration    Energy (Eh)           Delta-E    RMSDP     MaxDP     DIISErr   Damp  Time(sec)
-------------------------------------------------------------------------------------------
               ***  Starting incremental Fock matrix formation  ***
    1    -1821.5619556207416281     0.00e+00  2.26e-03  1.05e-01  2.80e-01  0.700  42.4
    2    -1821.9986022077969210    -4.37e-01  1.47e-03  5.92e-02  9.95e-02  0.700  19.6
                               ***Turning on AO-DIIS***
    3    -1822.1498582052222446    -1.51e-01  5.94e-04  1.94e-02  3.53e-02  0.700  18.4
    4    -1822.2458508275608438    -9.60e-02  9.74e-04  5.30e-02  1.63e-02  0.000  17.3
    5    -1822.4627788319044157    -2.17e-01  2.57e-04  9.86e-03  9.31e-03  0.000  17.9
    6    -1822.4648081078707946    -2.03e-03  8.96e-05  4.28e-03  4.09e-03  0.000  16.3
                              *** Initializing SOSCF ***
---------------------------------------S-O-S-C-F--------------------------------------
Iteration    Energy (Eh)           Delta-E    RMSDP     MaxDP     MaxGrad    Time(sec)
--------------------------------------------------------------------------------------
    7    -1822.4649714942465835    -1.63e-04  3.04e-05  1.42e-03  2.10e-03    14.8
               *** Restarting incremental Fock matrix formation ***
    8    -1822.4649247666752672     4.67e-05  2.75e-05  1.35e-03  1.78e-04    41.8
    9    -1822.4649222637776802     2.50e-06  1.48e-05  8.94e-04  3.37e-04    22.3
   10    -1822.4649308794837452    -8.62e-06  7.29e-06  2.67e-04  6.72e-05    19.2
   11    -1822.4649305194448061     3.60e-07  3.64e-06  1.72e-04  7.10e-05    17.7
                 **** Energy Check signals convergence ****

               *****************************************************
               *                     SUCCESS                       *
               *           SCF CONVERGED AFTER  11 CYCLES          *
               *****************************************************

Recomputing exchange energy using gridx3       ... done (   71.261 sec)
Old exchange energy                            :    -43.164489914 Eh
New exchange energy                            :    -43.164495973 Eh
Exchange energy change after final integration :     -0.000006059 Eh
Total energy after final integration           :  -1822.464936578 Eh
             **** ENERGY FILE WAS UPDATED (/home/nmrbox/aojoawo/Documents/ERDOS/inputs/CHEMBL3894821.en.tmp) ****

----------------
TOTAL SCF ENERGY
----------------

Total Energy       :      -1822.46493657822862 Eh          -49591.79212 eV

Components:
Nuclear Repulsion  :       3272.65857508420549 Eh           89053.56722 eV
Electronic Energy  :      -5095.12350560365030 Eh         -138645.35918 eV
One Electron Energy:      -8994.72348725073425 Eh         -244758.86939 eV
Two Electron Energy:       3899.59998164708395 Eh          106113.51021 eV

Virial components:
Potential Energy   :      -3634.57846373588200 Eh          -98901.90807 eV
Kinetic Energy     :       1812.11352715765338 Eh           49310.11595 eV
Virial Ratio       :          2.00571234046071

DFT components:
N(Alpha)           :      122.000091450719 electrons
N(Beta)            :      122.000091450719 electrons
N(Total)           :      244.000182901438 electrons
E(X)               :     -171.503565580176 Eh       
E(C)               :       -9.936520044197 Eh       
E(XC)              :     -181.440085624373 Eh       

---------------
SCF CONVERGENCE
---------------

  Last Energy change         ...   -3.6004e-07  Tolerance :   1.0000e-06
  Last MAX-Density change    ...    1.7224e-04  Tolerance :   1.0000e-05
  Last RMS-Density change    ...    3.6355e-06  Tolerance :   1.0000e-06
  Last DIIS Error            ...    2.1046e-03  Tolerance :   1.0000e-06
  Last Orbital Gradient      ...    7.0964e-05  Tolerance :   5.0000e-05
  Last Orbital Rotation      ...    1.2585e-04  Tolerance :   5.0000e-05


----------------
ORBITAL ENERGIES
----------------

  NO   OCC          E(Eh)            E(eV) 
   0   2.0000     -88.897898     -2419.0348 
   1   2.0000     -19.141804      -520.8750 
   2   2.0000     -19.120746      -520.3020 
   3   2.0000     -14.419395      -392.3717 
   4   2.0000     -14.398199      -391.7949 
   5   2.0000     -14.387141      -391.4940 
   6   2.0000     -14.374250      -391.1432 
   7   2.0000     -14.330819      -389.9614 
   8   2.0000     -14.326685      -389.8489 
   9   2.0000     -14.291670      -388.8961 
  10   2.0000     -10.321866      -280.8722 
  11   2.0000     -10.306156      -280.4448 
  12   2.0000     -10.288251      -279.9575 
  13   2.0000     -10.285621      -279.8860 
  14   2.0000     -10.269815      -279.4559 
  15   2.0000     -10.259854      -279.1848 
  16   2.0000     -10.254593      -279.0416 
  17   2.0000     -10.221506      -278.1413 
  18   2.0000     -10.220861      -278.1238 
  19   2.0000     -10.218497      -278.0594 
  20   2.0000     -10.213401      -277.9208 
  21   2.0000     -10.207430      -277.7583 
  22   2.0000     -10.200001      -277.5561 
  23   2.0000     -10.194125      -277.3962 
  24   2.0000     -10.187433      -277.2142 
  25   2.0000     -10.184570      -277.1362 
  26   2.0000     -10.178397      -276.9683 
  27   2.0000     -10.175431      -276.8875 
  28   2.0000     -10.173391      -276.8320 
  29   2.0000     -10.172450      -276.8064 
  30   2.0000     -10.166611      -276.6475 
  31   2.0000     -10.165697      -276.6227 
  32   2.0000     -10.165602      -276.6201 
  33   2.0000      -7.974219      -216.9895 
  34   2.0000      -5.937339      -161.5632 
  35   2.0000      -5.933093      -161.4477 
  36   2.0000      -5.931208      -161.3964 
  37   2.0000      -1.059954       -28.8428 
  38   2.0000      -1.039688       -28.2913 
  39   2.0000      -1.021903       -27.8074 
  40   2.0000      -1.002526       -27.2801 
  41   2.0000      -0.974402       -26.5148 
  42   2.0000      -0.924960       -25.1694 
  43   2.0000      -0.917883       -24.9769 
  44   2.0000      -0.913752       -24.8644 
  45   2.0000      -0.868540       -23.6342 
  46   2.0000      -0.850429       -23.1413 
  47   2.0000      -0.810774       -22.0623 
  48   2.0000      -0.801890       -21.8205 
  49   2.0000      -0.794855       -21.6291 
  50   2.0000      -0.769329       -20.9345 
  51   2.0000      -0.753203       -20.4957 
  52   2.0000      -0.742641       -20.2083 
  53   2.0000      -0.736494       -20.0410 
  54   2.0000      -0.707078       -19.2406 
  55   2.0000      -0.704374       -19.1670 
  56   2.0000      -0.675045       -18.3689 
  57   2.0000      -0.674402       -18.3514 
  58   2.0000      -0.652109       -17.7448 
  59   2.0000      -0.643935       -17.5224 
  60   2.0000      -0.626171       -17.0390 
  61   2.0000      -0.618185       -16.8217 
  62   2.0000      -0.602858       -16.4046 
  63   2.0000      -0.598448       -16.2846 
  64   2.0000      -0.592440       -16.1211 
  65   2.0000      -0.578838       -15.7510 
  66   2.0000      -0.571286       -15.5455 
  67   2.0000      -0.558891       -15.2082 
  68   2.0000      -0.539953       -14.6929 
  69   2.0000      -0.532314       -14.4850 
  70   2.0000      -0.530191       -14.4272 
  71   2.0000      -0.508904       -13.8480 
  72   2.0000      -0.499018       -13.5790 
  73   2.0000      -0.495994       -13.4967 
  74   2.0000      -0.489572       -13.3219 
  75   2.0000      -0.477980       -13.0065 
  76   2.0000      -0.465903       -12.6779 
  77   2.0000      -0.459399       -12.5009 
  78   2.0000      -0.454498       -12.3675 
  79   2.0000      -0.451287       -12.2801 
  80   2.0000      -0.447864       -12.1870 
  81   2.0000      -0.447118       -12.1667 
  82   2.0000      -0.444639       -12.0993 
  83   2.0000      -0.442899       -12.0519 
  84   2.0000      -0.430996       -11.7280 
  85   2.0000      -0.428620       -11.6633 
  86   2.0000      -0.424348       -11.5471 
  87   2.0000      -0.418192       -11.3796 
  88   2.0000      -0.415544       -11.3075 
  89   2.0000      -0.413539       -11.2530 
  90   2.0000      -0.409861       -11.1529 
  91   2.0000      -0.407110       -11.0780 
  92   2.0000      -0.391516       -10.6537 
  93   2.0000      -0.388230       -10.5643 
  94   2.0000      -0.387579       -10.5466 
  95   2.0000      -0.384678       -10.4676 
  96   2.0000      -0.383025       -10.4226 
  97   2.0000      -0.379469       -10.3259 
  98   2.0000      -0.379176       -10.3179 
  99   2.0000      -0.369426       -10.0526 
 100   2.0000      -0.362912        -9.8753 
 101   2.0000      -0.358033        -9.7426 
 102   2.0000      -0.351824        -9.5736 
 103   2.0000      -0.350992        -9.5510 
 104   2.0000      -0.341601        -9.2954 
 105   2.0000      -0.325238        -8.8502 
 106   2.0000      -0.314683        -8.5630 
 107   2.0000      -0.313012        -8.5175 
 108   2.0000      -0.308442        -8.3931 
 109   2.0000      -0.304987        -8.2991 
 110   2.0000      -0.298154        -8.1132 
 111   2.0000      -0.286249        -7.7892 
 112   2.0000      -0.274808        -7.4779 
 113   2.0000      -0.270796        -7.3687 
 114   2.0000      -0.268283        -7.3003 
 115   2.0000      -0.262056        -7.1309 
 116   2.0000      -0.253827        -6.9070 
 117   2.0000      -0.245068        -6.6686 
 118   2.0000      -0.243652        -6.6301 
 119   2.0000      -0.239690        -6.5223 
 120   2.0000      -0.202722        -5.5163 
 121   2.0000      -0.193586        -5.2677 
 122   0.0000      -0.043779        -1.1913 
 123   0.0000      -0.029995        -0.8162 
 124   0.0000      -0.017775        -0.4837 
 125   0.0000       0.005218         0.1420 
 126   0.0000       0.017453         0.4749 
 127   0.0000       0.030697         0.8353 
 128   0.0000       0.037135         1.0105 
 129   0.0000       0.051197         1.3932 
 130   0.0000       0.056560         1.5391 
 131   0.0000       0.079666         2.1678 
 132   0.0000       0.083047         2.2598 
*Only the first 10 virtual orbitals were printed.

                    ********************************
                    * MULLIKEN POPULATION ANALYSIS *
                    ********************************

-----------------------
MULLIKEN ATOMIC CHARGES
-----------------------
   0 C :   -0.310694
   1 N :   -0.528588
   2 C :    0.561592
   3 O :   -0.512079
   4 C :    0.195637
   5 C :    0.393242
   6 N :   -0.426138
   7 C :    0.167279
   8 N :   -0.397633
   9 C :   -0.256911
  10 C :    0.585167
  11 O :   -0.446970
  12 N :   -0.640943
  13 C :    0.262944
  14 N :   -0.432201
  15 C :    0.209061
  16 C :    0.124408
  17 C :   -0.181918
  18 C :   -0.188865
  19 C :    0.167802
  20 C :    0.036891
  21 C :   -0.451223
  22 C :   -0.434135
  23 C :   -0.434288
  24 C :   -0.192303
  25 C :   -0.169552
  26 C :   -0.401309
  27 S :    0.317851
  28 N :   -0.552605
  29 C :   -0.139054
  30 C :   -0.165332
  31 N :   -0.454330
  32 C :    0.632468
  33 H :    0.172848
  34 H :    0.184444
  35 H :    0.193116
  36 H :    0.172034
  37 H :    0.199669
  38 H :    0.202761
  39 H :    0.355772
  40 H :    0.121631
  41 H :    0.123694
  42 H :    0.138461
  43 H :    0.141467
  44 H :    0.141379
  45 H :    0.144248
  46 H :    0.137555
  47 H :    0.135177
  48 H :    0.137722
  49 H :    0.144753
  50 H :    0.135041
  51 H :    0.125892
  52 H :    0.143179
  53 H :    0.180862
  54 H :    0.164178
  55 H :    0.162306
  56 H :    0.153505
  57 H :    0.151033
Sum of atomic charges:   -0.0000000

--------------------------------
MULLIKEN REDUCED ORBITAL CHARGES
--------------------------------
  0 C s       :     3.268422  s :     3.268422
      pz      :     1.046136  p :     2.996020
      px      :     1.075807
      py      :     0.874077
      dz2     :     0.007280  d :     0.046251
      dxz     :     0.010823
      dyz     :     0.009876
      dx2y2   :     0.006994
      dxy     :     0.011278

  1 N s       :     3.631964  s :     3.631964
      pz      :     1.438205  p :     3.863132
      px      :     1.192913
      py      :     1.232014
      dz2     :     0.004946  d :     0.033492
      dxz     :     0.005648
      dyz     :     0.006344
      dx2y2   :     0.007223
      dxy     :     0.009331

  2 C s       :     2.989882  s :     2.989882
      pz      :     0.802845  p :     2.348996
      px      :     0.711958
      py      :     0.834193
      dz2     :     0.013321  d :     0.099531
      dxz     :     0.024069
      dyz     :     0.009814
      dx2y2   :     0.022448
      dxy     :     0.029879

  3 O s       :     3.888163  s :     3.888163
      pz      :     1.553496  p :     4.598619
      px      :     1.362087
      py      :     1.683035
      dz2     :     0.003000  d :     0.025298
      dxz     :     0.006847
      dyz     :     0.001547
      dx2y2   :     0.007540
      dxy     :     0.006363

  4 C s       :     3.024578  s :     3.024578
      pz      :     1.020443  p :     2.724834
      px      :     0.875054
      py      :     0.829337
      dz2     :     0.010141  d :     0.054951
      dxz     :     0.007840
      dyz     :     0.010423
      dx2y2   :     0.012466
      dxy     :     0.014081

  5 C s       :     2.999877  s :     2.999877
      pz      :     0.886816  p :     2.528682
      px      :     0.892974
      py      :     0.748892
      dz2     :     0.013597  d :     0.078198
      dxz     :     0.011658
      dyz     :     0.015258
      dx2y2   :     0.016513
      dxy     :     0.021172

  6 N s       :     3.696785  s :     3.696785
      pz      :     1.147637  p :     3.687610
      px      :     1.335760
      py      :     1.204212
      dz2     :     0.006312  d :     0.041743
      dxz     :     0.008493
      dyz     :     0.005912
      dx2y2   :     0.013068
      dxy     :     0.007958

  7 C s       :     3.074560  s :     3.074560
      pz      :     0.967820  p :     2.687123
      px      :     0.842297
      py      :     0.877006
      dz2     :     0.008065  d :     0.071038
      dxz     :     0.012514
      dyz     :     0.011944
      dx2y2   :     0.017689
      dxy     :     0.020827

  8 N s       :     3.580409  s :     3.580409
      pz      :     1.399246  p :     3.769567
      px      :     1.156533
      py      :     1.213788
      dz2     :     0.007815  d :     0.047657
      dxz     :     0.008461
      dyz     :     0.008144
      dx2y2   :     0.011060
      dxy     :     0.012176

  9 C s       :     3.239713  s :     3.239713
      pz      :     1.015345  p :     2.965563
      px      :     0.819067
      py      :     1.131151
      dz2     :     0.005298  d :     0.051634
      dxz     :     0.014523
      dyz     :     0.011505
      dx2y2   :     0.015003
      dxy     :     0.005305

 10 C s       :     3.000675  s :     3.000675
      pz      :     0.790949  p :     2.316010
      px      :     0.759260
      py      :     0.765801
      dz2     :     0.020677  d :     0.098149
      dxz     :     0.022324
      dyz     :     0.014622
      dx2y2   :     0.019093
      dxy     :     0.021433

 11 O s       :     3.901166  s :     3.901166
      pz      :     1.418323  p :     4.519566
      px      :     1.733144
      py      :     1.368100
      dz2     :     0.007355  d :     0.026238
      dxz     :     0.004287
      dyz     :     0.007328
      dx2y2   :     0.004307
      dxy     :     0.002960

 12 N s       :     3.625719  s :     3.625719
      pz      :     1.236509  p :     3.986839
      px      :     1.215578
      py      :     1.534752
      dz2     :     0.006270  d :     0.028385
      dxz     :     0.006731
      dyz     :     0.005677
      dx2y2   :     0.004432
      dxy     :     0.005276

 13 C s       :     3.041166  s :     3.041166
      pz      :     0.781955  p :     2.623224
      px      :     0.807741
      py      :     1.033528
      dz2     :     0.014719  d :     0.072665
      dxz     :     0.024065
      dyz     :     0.010128
      dx2y2   :     0.011406
      dxy     :     0.012347

 14 N s       :     3.700994  s :     3.700994
      pz      :     1.434100  p :     3.692858
      px      :     1.032420
      py      :     1.226338
      dz2     :     0.009782  d :     0.038350
      dxz     :     0.009078
      dyz     :     0.006206
      dx2y2   :     0.005949
      dxy     :     0.007335

 15 C s       :     3.067276  s :     3.067276
      pz      :     0.792387  p :     2.664328
      px      :     0.901104
      py      :     0.970836
      dz2     :     0.015554  d :     0.059335
      dxz     :     0.017887
      dyz     :     0.010034
      dx2y2   :     0.007969
      dxy     :     0.007891

 16 C s       :     3.137021  s :     3.137021
      pz      :     0.830727  p :     2.698573
      px      :     0.893062
      py      :     0.974783
      dz2     :     0.010643  d :     0.039998
      dxz     :     0.010981
      dyz     :     0.006384
      dx2y2   :     0.006147
      dxy     :     0.005843

 17 C s       :     3.194887  s :     3.194887
      pz      :     0.973093  p :     2.950863
      px      :     0.972683
      py      :     1.005086
      dz2     :     0.009476  d :     0.036167
      dxz     :     0.013024
      dyz     :     0.003331
      dx2y2   :     0.005100
      dxy     :     0.005236

 18 C s       :     3.210654  s :     3.210654
      pz      :     0.966402  p :     2.942402
      px      :     0.968864
      py      :     1.007136
      dz2     :     0.009491  d :     0.035809
      dxz     :     0.012224
      dyz     :     0.003874
      dx2y2   :     0.004872
      dxy     :     0.005349

 19 C s       :     3.149639  s :     3.149639
      pz      :     0.846233  p :     2.643333
      px      :     0.862493
      py      :     0.934607
      dz2     :     0.009578  d :     0.039226
      dxz     :     0.012656
      dyz     :     0.006142
      dx2y2   :     0.005520
      dxy     :     0.005330

 20 C s       :     3.183697  s :     3.183697
      pz      :     0.899797  p :     2.730943
      px      :     0.929594
      py      :     0.901552
      dz2     :     0.010045  d :     0.048468
      dxz     :     0.008396
      dyz     :     0.009490
      dx2y2   :     0.012169
      dxy     :     0.008370

 21 C s       :     3.314124  s :     3.314124
      pz      :     1.000788  p :     3.102729
      px      :     1.043905
      py      :     1.058035
      dz2     :     0.006512  d :     0.034370
      dxz     :     0.005163
      dyz     :     0.009827
      dx2y2   :     0.009675
      dxy     :     0.003193

 22 C s       :     3.310584  s :     3.310584
      pz      :     1.028996  p :     3.088889
      px      :     1.033454
      py      :     1.026439
      dz2     :     0.010775  d :     0.034662
      dxz     :     0.003885
      dyz     :     0.005073
      dx2y2   :     0.011668
      dxy     :     0.003262

 23 C s       :     3.310780  s :     3.310780
      pz      :     1.050025  p :     3.088864
      px      :     1.056389
      py      :     0.982450
      dz2     :     0.009232  d :     0.034644
      dxz     :     0.004032
      dyz     :     0.006677
      dx2y2   :     0.008230
      dxy     :     0.006472

 24 C s       :     3.217532  s :     3.217532
      pz      :     0.970343  p :     2.938944
      px      :     0.959297
      py      :     1.009304
      dz2     :     0.009942  d :     0.035826
      dxz     :     0.012568
      dyz     :     0.003176
      dx2y2   :     0.005067
      dxy     :     0.005074

 25 C s       :     3.207556  s :     3.207556
      pz      :     0.993411  p :     2.926072
      px      :     0.951824
      py      :     0.980837
      dz2     :     0.009346  d :     0.035924
      dxz     :     0.012490
      dyz     :     0.004029
      dx2y2   :     0.004753
      dxy     :     0.005305

 26 C s       :     3.270366  s :     3.270366
      pz      :     1.053899  p :     3.097122
      px      :     0.897976
      py      :     1.145247
      dz2     :     0.010699  d :     0.033821
      dxz     :     0.008396
      dyz     :     0.003826
      dx2y2   :     0.005527
      dxy     :     0.005374

 27 S s       :     5.807583  s :     5.807583
      pz      :     3.015217  p :     9.765388
      px      :     3.184254
      py      :     3.565917
      dz2     :     0.035757  d :     0.109178
      dxz     :     0.018611
      dyz     :     0.019432
      dx2y2   :     0.019188
      dxy     :     0.016190

 28 N s       :     3.618089  s :     3.618089
      pz      :     1.443450  p :     3.896394
      px      :     1.230247
      py      :     1.222697
      dz2     :     0.006083  d :     0.038122
      dxz     :     0.008132
      dyz     :     0.006555
      dx2y2   :     0.008509
      dxy     :     0.008844

 29 C s       :     3.211651  s :     3.211651
      pz      :     0.997785  p :     2.873691
      px      :     0.848431
      py      :     1.027475
      dz2     :     0.005393  d :     0.053713
      dxz     :     0.015423
      dyz     :     0.011654
      dx2y2   :     0.015339
      dxy     :     0.005904

 30 C s       :     3.226779  s :     3.226779
      pz      :     1.039424  p :     2.884941
      px      :     0.947179
      py      :     0.898338
      dz2     :     0.012045  d :     0.053612
      dxz     :     0.007066
      dyz     :     0.009612
      dx2y2   :     0.011130
      dxy     :     0.013759

 31 N s       :     3.687176  s :     3.687176
      pz      :     1.274501  p :     3.729893
      px      :     1.027941
      py      :     1.427452
      dz2     :     0.009686  d :     0.037261
      dxz     :     0.005284
      dyz     :     0.006508
      dx2y2   :     0.004258
      dxy     :     0.011526

 32 C s       :     2.888758  s :     2.888758
      pz      :     0.866110  p :     2.384798
      px      :     0.729713
      py      :     0.788974
      dz2     :     0.018790  d :     0.093976
      dxz     :     0.015295
      dyz     :     0.015888
      dx2y2   :     0.025094
      dxy     :     0.018910

 33 H s       :     0.827152  s :     0.827152

 34 H s       :     0.815556  s :     0.815556

 35 H s       :     0.806884  s :     0.806884

 36 H s       :     0.827966  s :     0.827966

 37 H s       :     0.800331  s :     0.800331

 38 H s       :     0.797239  s :     0.797239

 39 H s       :     0.644228  s :     0.644228

 40 H s       :     0.878369  s :     0.878369

 41 H s       :     0.876306  s :     0.876306

 42 H s       :     0.861539  s :     0.861539

 43 H s       :     0.858533  s :     0.858533

 44 H s       :     0.858621  s :     0.858621

 45 H s       :     0.855752  s :     0.855752

 46 H s       :     0.862445  s :     0.862445

 47 H s       :     0.864823  s :     0.864823

 48 H s       :     0.862278  s :     0.862278

 49 H s       :     0.855247  s :     0.855247

 50 H s       :     0.864959  s :     0.864959

 51 H s       :     0.874108  s :     0.874108

 52 H s       :     0.856821  s :     0.856821

 53 H s       :     0.819138  s :     0.819138

 54 H s       :     0.835822  s :     0.835822

 55 H s       :     0.837694  s :     0.837694

 56 H s       :     0.846495  s :     0.846495

 57 H s       :     0.848967  s :     0.848967



                     *******************************
                     * LOEWDIN POPULATION ANALYSIS *
                     *******************************

----------------------
LOEWDIN ATOMIC CHARGES
----------------------
   0 C :   -0.262133
   1 N :   -0.072581
   2 C :    0.143444
   3 O :   -0.305828
   4 C :   -0.092105
   5 C :    0.043204
   6 N :   -0.174338
   7 C :   -0.034475
   8 N :    0.057549
   9 C :   -0.163920
  10 C :    0.143970
  11 O :   -0.253338
  12 N :   -0.191904
  13 C :   -0.080744
  14 N :   -0.183125
  15 C :   -0.003938
  16 C :   -0.024028
  17 C :   -0.126155
  18 C :   -0.131814
  19 C :   -0.002154
  20 C :   -0.035420
  21 C :   -0.347825
  22 C :   -0.342391
  23 C :   -0.342378
  24 C :   -0.139835
  25 C :   -0.116297
  26 C :   -0.349339
  27 S :    0.427777
  28 N :   -0.063746
  29 C :   -0.150975
  30 C :   -0.156176
  31 N :   -0.250819
  32 C :    0.106069
  33 H :    0.135596
  34 H :    0.146509
  35 H :    0.152079
  36 H :    0.146999
  37 H :    0.160838
  38 H :    0.157779
  39 H :    0.276017
  40 H :    0.128920
  41 H :    0.128871
  42 H :    0.123135
  43 H :    0.122025
  44 H :    0.122023
  45 H :    0.124773
  46 H :    0.119678
  47 H :    0.119678
  48 H :    0.119730
  49 H :    0.125020
  50 H :    0.119617
  51 H :    0.133130
  52 H :    0.140982
  53 H :    0.160858
  54 H :    0.130272
  55 H :    0.130313
  56 H :    0.126562
  57 H :    0.124363

-------------------------------
LOEWDIN REDUCED ORBITAL CHARGES
-------------------------------
  0 C s       :     2.970098  s :     2.970098
      pz      :     1.104832  p :     3.200023
      px      :     1.126489
      py      :     0.968702
      dz2     :     0.014130  d :     0.092012
      dxz     :     0.020489
      dyz     :     0.020014
      dx2y2   :     0.015000
      dxy     :     0.022379

  1 N s       :     3.116295  s :     3.116295
      pz      :     1.414791  p :     3.873137
      px      :     1.202569
      py      :     1.255777
      dz2     :     0.010698  d :     0.083149
      dxz     :     0.014240
      dyz     :     0.014825
      dx2y2   :     0.019099
      dxy     :     0.024286

  2 C s       :     2.857368  s :     2.857368
      pz      :     0.873475  p :     2.767812
      px      :     0.946469
      py      :     0.947868
      dz2     :     0.029068  d :     0.231376
      dxz     :     0.056254
      dyz     :     0.020971
      dx2y2   :     0.053302
      dxy     :     0.071780

  3 O s       :     3.585203  s :     3.585203
      pz      :     1.552623  p :     4.670627
      px      :     1.435354
      py      :     1.682650
      dz2     :     0.006451  d :     0.049998
      dxz     :     0.012104
      dyz     :     0.002420
      dx2y2   :     0.015695
      dxy     :     0.013328

  4 C s       :     2.836507  s :     2.836507
      pz      :     1.075931  p :     3.115895
      px      :     1.024912
      py      :     1.015052
      dz2     :     0.022719  d :     0.139703
      dxz     :     0.020300
      dyz     :     0.025881
      dx2y2   :     0.033173
      dxy     :     0.037629

  5 C s       :     2.827492  s :     2.827492
      pz      :     0.961709  p :     2.943473
      px      :     0.993852
      py      :     0.987912
      dz2     :     0.028670  d :     0.185831
      dxz     :     0.026895
      dyz     :     0.036048
      dx2y2   :     0.043508
      dxy     :     0.050711

  6 N s       :     3.266477  s :     3.266477
      pz      :     1.178474  p :     3.821517
      px      :     1.384205
      py      :     1.258839
      dz2     :     0.012890  d :     0.086343
      dxz     :     0.016841
      dyz     :     0.012802
      dx2y2   :     0.027707
      dxy     :     0.016103

  7 C s       :     2.901938  s :     2.901938
      pz      :     1.016263  p :     2.977861
      px      :     0.960607
      py      :     1.000990
      dz2     :     0.016155  d :     0.154676
      dxz     :     0.028356
      dyz     :     0.021922
      dx2y2   :     0.039160
      dxy     :     0.049083

  8 N s       :     3.049927  s :     3.049927
      pz      :     1.361481  p :     3.774226
      px      :     1.179570
      py      :     1.233175
      dz2     :     0.017865  d :     0.118298
      dxz     :     0.018588
      dyz     :     0.019428
      dx2y2   :     0.028829
      dxy     :     0.033588

  9 C s       :     2.926217  s :     2.926217
      pz      :     1.070099  p :     3.128554
      px      :     0.919858
      py      :     1.138597
      dz2     :     0.010664  d :     0.109149
      dxz     :     0.034170
      dyz     :     0.022183
      dx2y2   :     0.031593
      dxy     :     0.010539

 10 C s       :     2.869141  s :     2.869141
      pz      :     0.953311  p :     2.758098
      px      :     0.926831
      py      :     0.877957
      dz2     :     0.048041  d :     0.228791
      dxz     :     0.053274
      dyz     :     0.035483
      dx2y2   :     0.040510
      dxy     :     0.051483

 11 O s       :     3.590634  s :     3.590634
      pz      :     1.477621  p :     4.611360
      px      :     1.728706
      py      :     1.405032
      dz2     :     0.012152  d :     0.051344
      dxz     :     0.007613
      dyz     :     0.018723
      dx2y2   :     0.007448
      dxy     :     0.005409

 12 N s       :     3.150883  s :     3.150883
      pz      :     1.233880  p :     3.971850
      px      :     1.229572
      py      :     1.508397
      dz2     :     0.015638  d :     0.069172
      dxz     :     0.018321
      dyz     :     0.011553
      dx2y2   :     0.010734
      dxy     :     0.012927

 13 C s       :     2.894675  s :     2.894675
      pz      :     0.995840  p :     3.018008
      px      :     0.982227
      py      :     1.039941
      dz2     :     0.037541  d :     0.168061
      dxz     :     0.058449
      dyz     :     0.021229
      dx2y2   :     0.025727
      dxy     :     0.025115

 14 N s       :     3.247408  s :     3.247408
      pz      :     1.469143  p :     3.852016
      px      :     1.152054
      py      :     1.230818
      dz2     :     0.020485  d :     0.083701
      dxz     :     0.021906
      dyz     :     0.008946
      dx2y2   :     0.015139
      dxy     :     0.017225

 15 C s       :     2.862174  s :     2.862174
      pz      :     1.000039  p :     2.998904
      px      :     1.015558
      py      :     0.983306
      dz2     :     0.039828  d :     0.142861
      dxz     :     0.048115
      dyz     :     0.022423
      dx2y2   :     0.017244
      dxy     :     0.015250

 16 C s       :     2.867914  s :     2.867914
      pz      :     1.065517  p :     3.054694
      px      :     1.010053
      py      :     0.979124
      dz2     :     0.030186  d :     0.101419
      dxz     :     0.031056
      dyz     :     0.014337
      dx2y2   :     0.013861
      dxy     :     0.011979

 17 C s       :     2.913801  s :     2.913801
      pz      :     1.062247  p :     3.127997
      px      :     1.065176
      py      :     1.000574
      dz2     :     0.021790  d :     0.084357
      dxz     :     0.031411
      dyz     :     0.006745
      dx2y2   :     0.012641
      dxy     :     0.011771

 18 C s       :     2.916099  s :     2.916099
      pz      :     1.066640  p :     3.131924
      px      :     1.061844
      py      :     1.003440
      dz2     :     0.021753  d :     0.083791
      dxz     :     0.030534
      dyz     :     0.007383
      dx2y2   :     0.012421
      dxy     :     0.011699

 19 C s       :     2.887533  s :     2.887533
      pz      :     1.060200  p :     3.018603
      px      :     1.014023
      py      :     0.944380
      dz2     :     0.027155  d :     0.096018
      dxz     :     0.033104
      dyz     :     0.013588
      dx2y2   :     0.011957
      dxy     :     0.010214

 20 C s       :     2.868074  s :     2.868074
      pz      :     1.023899  p :     3.055278
      px      :     1.008170
      py      :     1.023209
      dz2     :     0.023600  d :     0.112068
      dxz     :     0.019479
      dyz     :     0.021974
      dx2y2   :     0.028586
      dxy     :     0.018430

 21 C s       :     2.990071  s :     2.990071
      pz      :     1.066844  p :     3.292026
      px      :     1.107521
      py      :     1.117661
      dz2     :     0.013503  d :     0.065728
      dxz     :     0.010769
      dyz     :     0.018264
      dx2y2   :     0.017596
      dxy     :     0.005595

 22 C s       :     2.991595  s :     2.991595
      pz      :     1.094235  p :     3.284253
      px      :     1.099022
      py      :     1.090995
      dz2     :     0.019933  d :     0.066544
[...]
      dxy     :     0.011477

 25 C s       :     2.916575  s :     2.916575
      pz      :     1.072268  p :     3.115656
      px      :     1.061387
      py      :     0.982001
      dz2     :     0.021750  d :     0.084067
      dxz     :     0.030777
      dyz     :     0.007717
      dx2y2   :     0.012197
      dxy     :     0.011625

 26 C s       :     2.982742  s :     2.982742
      pz      :     1.108251  p :     3.287506
      px      :     1.034504
      py      :     1.144751
      dz2     :     0.023858  d :     0.079091
      dxz     :     0.021695
      dyz     :     0.007110
      dx2y2   :     0.014120
      dxy     :     0.012308

 27 S s       :     5.529369  s :     5.529369
      pz      :     3.083182  p :     9.913158
      px      :     3.278697
      py      :     3.551280
      dz2     :     0.044556  d :     0.129695
      dxz     :     0.022554
      dyz     :     0.022666
      dx2y2   :     0.022305
      dxy     :     0.017614

 28 N s       :     3.080932  s :     3.080932
      pz      :     1.417526  p :     3.886595
      px      :     1.241934
      py      :     1.227134
      dz2     :     0.013428  d :     0.096219
      dxz     :     0.019042
      dyz     :     0.016264
      dx2y2   :     0.024362
      dxy     :     0.023122

 29 C s       :     2.932926  s :     2.932926
      pz      :     1.062241  p :     3.105945
      px      :     0.951338
      py      :     1.092366
      dz2     :     0.009974  d :     0.112103
      dxz     :     0.031695
      dyz     :     0.025180
      dx2y2   :     0.033310
      dxy     :     0.011944

 30 C s       :     2.938464  s :     2.938464
      pz      :     1.089031  p :     3.107759
      px      :     1.019846
      py      :     0.998881
      dz2     :     0.023996  d :     0.109953
      dxz     :     0.012318
      dyz     :     0.021224
      dx2y2   :     0.023425
      dxy     :     0.028991

 31 N s       :     3.266966  s :     3.266966
      pz      :     1.311585  p :     3.905174
      px      :     1.135891
      py      :     1.457697
      dz2     :     0.016384  d :     0.078679
      dxz     :     0.015238
      dyz     :     0.011792
      dx2y2   :     0.009703
      dxy     :     0.025561

 32 C s       :     2.832972  s :     2.832972
      pz      :     0.968602  p :     2.844369
      px      :     0.943659
      py      :     0.932108
      dz2     :     0.040004  d :     0.216591
      dxz     :     0.037241
      dyz     :     0.036304
      dx2y2   :     0.059578
      dxy     :     0.043464

 33 H s       :     0.864404  s :     0.864404

 34 H s       :     0.853491  s :     0.853491

 35 H s       :     0.847921  s :     0.847921

 36 H s       :     0.853001  s :     0.853001

 37 H s       :     0.839162  s :     0.839162

 38 H s       :     0.842221  s :     0.842221

 39 H s       :     0.723983  s :     0.723983

 40 H s       :     0.871080  s :     0.871080

 41 H s       :     0.871129  s :     0.871129

 42 H s       :     0.876865  s :     0.876865

 43 H s       :     0.877975  s :     0.877975

 44 H s       :     0.877977  s :     0.877977

 45 H s       :     0.875227  s :     0.875227

 46 H s       :     0.880322  s :     0.880322

 47 H s       :     0.880322  s :     0.880322

 48 H s       :     0.880270  s :     0.880270

 49 H s       :     0.874980  s :     0.874980

 50 H s       :     0.880383  s :     0.880383

 51 H s       :     0.866870  s :     0.866870

 52 H s       :     0.859018  s :     0.859018

 53 H s       :     0.839142  s :     0.839142

 54 H s       :     0.869728  s :     0.869728

 55 H s       :     0.869687  s :     0.869687

 56 H s       :     0.873438  s :     0.873438

 57 H s       :     0.875637  s :     0.875637



                      *****************************
                      * MAYER POPULATION ANALYSIS *
                      *****************************

  NA   - Mulliken gross atomic population
  ZA   - Total nuclear charge
  QA   - Mulliken gross atomic charge
  VA   - Mayer's total valence
  BVA  - Mayer's bonded valence
  FA   - Mayer's free valence

  ATOM       NA         ZA         QA         VA         BVA        FA
  0 C      6.3107     6.0000    -0.3107     3.7844     3.7844     0.0000
  1 N      7.5286     7.0000    -0.5286     3.0251     3.0251    -0.0000
  2 C      5.4384     6.0000     0.5616     3.8477     3.8477     0.0000
  3 O      8.5121     8.0000    -0.5121     2.0250     2.0250    -0.0000
  4 C      5.8044     6.0000     0.1956     3.6694     3.6694     0.0000
  5 C      5.6068     6.0000     0.3932     3.8073     3.8073     0.0000
  6 N      7.4261     7.0000    -0.4261     2.9798     2.9798    -0.0000
  7 C      5.8327     6.0000     0.1673     3.8317     3.8317    -0.0000
  8 N      7.3976     7.0000    -0.3976     3.3562     3.3562    -0.0000
  9 C      6.2569     6.0000    -0.2569     3.7607     3.7607    -0.0000
 10 C      5.4148     6.0000     0.5852     3.8402     3.8402    -0.0000
 11 O      8.4470     8.0000    -0.4470     2.0763     2.0763    -0.0000
 12 N      7.6409     7.0000    -0.6409     2.9352     2.9352    -0.0000
 13 C      5.7371     6.0000     0.2629     3.8153     3.8153    -0.0000
 14 N      7.4322     7.0000    -0.4322     2.9688     2.9688    -0.0000
 15 C      5.7909     6.0000     0.2091     4.0008     4.0008     0.0000
 16 C      5.8756     6.0000     0.1244     3.9966     3.9966    -0.0000
 17 C      6.1819     6.0000    -0.1819     3.9114     3.9114     0.0000
 18 C      6.1889     6.0000    -0.1889     3.9209     3.9209    -0.0000
 19 C      5.8322     6.0000     0.1678     3.9088     3.9088    -0.0000
 20 C      5.9631     6.0000     0.0369     3.9439     3.9439    -0.0000
 21 C      6.4512     6.0000    -0.4512     3.8382     3.8382     0.0000
 22 C      6.4341     6.0000    -0.4341     3.8267     3.8267    -0.0000
 23 C      6.4343     6.0000    -0.4343     3.8267     3.8267    -0.0000
 24 C      6.1923     6.0000    -0.1923     3.9068     3.9068    -0.0000
 25 C      6.1696     6.0000    -0.1696     3.8855     3.8855     0.0000
 26 C      6.4013     6.0000    -0.4013     3.7654     3.7654     0.0000
 27 S     15.6821    16.0000     0.3179     2.5560     2.5560     0.0000
 28 N      7.5526     7.0000    -0.5526     3.0845     3.0845     0.0000
 29 C      6.1391     6.0000    -0.1391     3.7852     3.7852    -0.0000
 30 C      6.1653     6.0000    -0.1653     3.8689     3.8689    -0.0000
 31 N      7.4543     7.0000    -0.4543     2.9360     2.9360     0.0000
 32 C      5.3675     6.0000     0.6325     3.8092     3.8092    -0.0000
 33 H      0.8272     1.0000     0.1728     0.9265     0.9265    -0.0000
 34 H      0.8156     1.0000     0.1844     0.9345     0.9345     0.0000
 35 H      0.8069     1.0000     0.1931     0.9348     0.9348     0.0000
 36 H      0.8280     1.0000     0.1720     0.9371     0.9371     0.0000
 37 H      0.8003     1.0000     0.1997     0.9204     0.9204     0.0000
 38 H      0.7972     1.0000     0.2028     0.9324     0.9324     0.0000
 39 H      0.6442     1.0000     0.3558     0.8526     0.8526     0.0000
 40 H      0.8784     1.0000     0.1216     0.9411     0.9411     0.0000
 41 H      0.8763     1.0000     0.1237     0.9431     0.9431    -0.0000
 42 H      0.8615     1.0000     0.1385     0.9407     0.9407     0.0000
 43 H      0.8585     1.0000     0.1415     0.9391     0.9391    -0.0000
 44 H      0.8586     1.0000     0.1414     0.9392     0.9392    -0.0000
 45 H      0.8558     1.0000     0.1442     0.9399     0.9399    -0.0000
 46 H      0.8624     1.0000     0.1376     0.9414     0.9414    -0.0000
 47 H      0.8648     1.0000     0.1352     0.9401     0.9401     0.0000
 48 H      0.8623     1.0000     0.1377     0.9413     0.9413    -0.0000
 49 H      0.8552     1.0000     0.1448     0.9398     0.9398    -0.0000
 50 H      0.8650     1.0000     0.1350     0.9400     0.9400     0.0000
 51 H      0.8741     1.0000     0.1259     0.9440     0.9440     0.0000
 52 H      0.8568     1.0000     0.1432     0.9466     0.9466     0.0000
 53 H      0.8191     1.0000     0.1809     0.9379     0.9379     0.0000
 54 H      0.8358     1.0000     0.1642     0.9268     0.9268    -0.0000
 55 H      0.8377     1.0000     0.1623     0.9277     0.9277    -0.0000
 56 H      0.8465     1.0000     0.1535     0.9279     0.9279    -0.0000
 57 H      0.8490     1.0000     0.1510     0.9270     0.9270     0.0000

  Mayer bond orders larger than 0.100000
B(  0-C ,  1-N ) :   0.9301 B(  0-C , 33-H ) :   0.9385 B(  0-C , 34-H ) :   0.9293 
B(  0-C , 35-H ) :   0.9258 B(  1-N ,  2-C ) :   0.9753 B(  1-N , 32-C ) :   0.9663 
B(  2-C ,  3-O ) :   1.7316 B(  2-C ,  4-C ) :   1.0571 B(  4-C ,  5-C ) :   1.3622 
B(  4-C ,  8-N ) :   1.0325 B(  5-C ,  6-N ) :   1.3405 B(  5-C , 28-N ) :   0.9449 
B(  6-N ,  7-C ) :   1.4824 B(  7-C ,  8-N ) :   1.2301 B(  7-C , 36-H ) :   0.9276 
B(  8-N ,  9-C ) :   0.9678 B(  9-C , 10-C ) :   0.9132 B(  9-C , 37-H ) :   0.9119 
B(  9-C , 38-H ) :   0.9062 B( 10-C , 11-O ) :   1.8444 B( 10-C , 12-N ) :   1.0340 
B( 12-N , 13-C ) :   0.9368 B( 12-N , 39-H ) :   0.8097 B( 13-C , 14-N ) :   1.4835 
B( 13-C , 26-C ) :   0.1120 B( 13-C , 27-S ) :   1.1839 B( 14-N , 15-C ) :   1.2878 
B( 15-C , 16-C ) :   1.0492 B( 15-C , 26-C ) :   1.5142 B( 16-C , 17-C ) :   1.4000 
B( 16-C , 25-C ) :   1.4077 B( 17-C , 18-C ) :   1.4389 B( 17-C , 40-H ) :   0.9209 
B( 18-C , 19-C ) :   1.3918 B( 18-C , 41-H ) :   0.9218 B( 19-C , 20-C ) :   0.9720 
B( 19-C , 24-C ) :   1.4271 B( 20-C , 21-C ) :   0.9996 B( 20-C , 22-C ) :   0.9903 
B( 20-C , 23-C ) :   0.9900 B( 21-C , 42-H ) :   0.9432 B( 21-C , 43-H ) :   0.9409 
B( 21-C , 44-H ) :   0.9409 B( 22-C , 45-H ) :   0.9469 B( 22-C , 46-H ) :   0.9426 
B( 22-C , 47-H ) :   0.9431 B( 23-C , 48-H ) :   0.9426 B( 23-C , 49-H ) :   0.9468 
B( 23-C , 50-H ) :   0.9432 B( 24-C , 25-C ) :   1.4012 B( 24-C , 51-H ) :   0.9192 
B( 25-C , 52-H ) :   0.9150 B( 26-C , 27-S ) :   1.1157 B( 26-C , 53-H ) :   0.9018 
B( 28-N , 29-C ) :   0.9522 B( 28-N , 32-C ) :   1.0256 B( 29-C , 30-C ) :   0.9600 
B( 29-C , 54-H ) :   0.9317 B( 29-C , 55-H ) :   0.9344 B( 30-C , 31-N ) :   1.0199 
B( 30-C , 56-H ) :   0.9342 B( 30-C , 57-H ) :   0.9325 B( 31-N , 32-C ) :   1.7173 


-------
TIMINGS
-------

Total SCF time: 0 days 0 hours 5 min 19 sec 

Total time                  ....     319.769 sec
Sum of individual times     ....     319.026 sec  ( 99.8%)

SCF preparation             ....       0.493 sec  (  0.2%)
Fock matrix formation       ....     315.409 sec  ( 98.6%)
  Startup                   ....       0.200 sec  (  0.1% of F)
  Split-RI-J                ....      44.865 sec  ( 14.2% of F)
  Chain of spheres X        ....     240.467 sec  ( 76.2% of F)
  XC integration            ....      28.661 sec  (  9.1% of F)
    XC Preparation          ....       0.000 sec  (  0.0% of XC)
    Basis function eval.    ....      10.879 sec  ( 38.0% of XC)
    Density eval.           ....       6.367 sec  ( 22.2% of XC)
    XC-Functional eval.     ....       1.349 sec  (  4.7% of XC)
    XC-Potential eval.      ....       8.145 sec  ( 28.4% of XC)
Diagonalization             ....       0.000 sec  (  0.0%)
Density matrix formation    ....       0.745 sec  (  0.2%)
Total Energy calculation    ....       0.114 sec  (  0.0%)
Population analysis         ....       0.093 sec  (  0.0%)
Orbital Transformation      ....       0.177 sec  (  0.1%)
Orbital Orthonormalization  ....       0.000 sec  (  0.0%)
DIIS solution               ....       1.288 sec  (  0.4%)
SOSCF solution              ....       0.707 sec  (  0.2%)
Finished LeanSCF after 319.9 sec

Maximum memory used throughout the entire LEANSCF-calculation: 83.3 MB

-------------------------   --------------------
FINAL SINGLE POINT ENERGY     -1822.464936578229
-------------------------   --------------------


------------------------------------------------------------------------------
                              ORCA PROPERTY CALCULATIONS
------------------------------------------------------------------------------

GBWName                                 ... /home/nmrbox/aojoawo/Documents/ERDOS/inputs/CHEMBL3894821.gbw
Number of atoms                         ...     58
Number of basis functions               ...    516
Max core memory                         ...   1024 MB

Electric properties:
Dipole moment                           ... YES
Quadrupole moment                       ...  NO
Static polarizability (Dipole/Dipole)   ...  NO
Static polarizability (Dipole/Quad.)    ...  NO
Static polarizability (Quad./Quad.)     ...  NO
Static polarizability (Velocity)        ...  NO

Atomic electric properties:
Dipole moment                           ...  NO
Quadrupole moment                       ...  NO
Static polarizability                   ...  NO

Choice of electric origin               ... Center of mass
Position of electric origin             ...     1.800879     0.519922    -0.010548

General magnetic properties:
Magnetizability                         ...  NO

EPR properties:
g-Tensor (aka g-matrix)                 ...  NO
Zero-Field splitting spin-orbit         ...  NO
Zero-field splitting spin-spin          ...  NO
Hyperfine couplings                     ...  NO (   0 nuclei)
Quadrupole couplings                    ...  NO (   0 nuclei)
Contact density                         ...  NO (   0 nuclei)

NMR properties:
Chemical shifts                         ...  NO (   0 nuclei)
Spin-rotation constants                 ...  NO (   0 nuclei)
Spin-spin couplings                     ...  NO (   0 nuclei,    0 pairs)

Choice of magnetic origin               ... GIAO
Position of magnetic origin             ...     0.000000     0.000000     0.000000

Properties with geometric perturbations:
SCF Hessian                             ...  NO
IR spectrum                             ...  NO
VCD spectrum                            ...  NO
X-ray spectroscopy properties:
SCF XES/XAS/RIXS spectra                ...  NO


-------------
DIPOLE MOMENT
-------------

Method             : SCF
Type of density    : Electron Density
Multiplicity       :   1
Irrep              :   0
Energy             : -1822.4649365782286168 Eh
Relativity type    : 
Basis              : AO
                                X                 Y                 Z
Electronic contribution:     51.472544218      14.147235613       6.981651463
Nuclear contribution   :    -51.708879524     -13.996251269      -6.032212833
                        -----------------------------------------
Total Dipole Moment    :     -0.236335306       0.150984344       0.949438630
                        -----------------------------------------
Magnitude (a.u.)       :      0.989992102
Magnitude (Debye)      :      2.516359944



--------------------
Rotational spectrum 
--------------------
 
Rotational constants in cm-1:             0.011744             0.001211             0.001162 
Rotational constants in MHz :           352.089675            36.317114            34.821702 

Dipole components along the rotational axes: 
x,y,z [a.u.] :    -0.181000    -0.718744     0.656300 
x,y,z [Debye]:    -0.460066    -1.826903     1.668182 

 

Dipole moment calculation done in   0.0 sec 

Maximum memory used throughout the entire PROP-calculation: 40.3 MB

--------------------------------
SUGGESTED CITATIONS FOR THIS RUN
--------------------------------

Below you find a list of papers that are relevant to this ORCA run
We neither can nor want to force you to cite these papers, but we appreciate if you do
You receive ORCA, which is the product of decades of hard work by many enthusiastic individuals, for free
The only thing we kindly ask in return is that you cite our papers,
We deeply appreciate it, if you show your appreciation for ORCA by not just citing the generic ORCA reference.

Please note that relegating all ORCA citations to the supporting information does *not* help us.
SI sections are not indexed - citations you put there will not count into any citation statistics
But we need these citations in order to attract the funding resources that allow us to do what we are doing

Therefore, if you are a happy ORCA user, please consider citing a few of the papers listed below in the main body of your paper

In addition to the list printed below, the program has created the file /home/nmrbox/aojoawo/Documents/ERDOS/inputs/CHEMBL3894821.bibtex that contains the list in bibtex format
You can import this file easily into all common literature databanks and citation aid programs


List of essential papers. We consider these as the minimum necessary citations

  1. Neese,F.
     Software update: the ORCA program system, version 5.0
     WIRES Comput. Molec. Sci., 2022 12(1)e1606
     doi.org/10.1002/wcms.1606

List of papers to cite with high priority. The work reported in these papers was absolutely
necessary for this run to complete.
Our perspective: the developers of density functionals and basis sets usually get cited in chemistry papers
Good! But without the algorithms to do something with them, the functionals or basis sets would not do anything.
Hence, in our opinion, the algorithm design and method developments papers are equally worthy of getting cited

  1. Neese,F.
     An improvement of the resolution of the identity approximation for the formation of the Coulomb matrix
     J. Comp. Chem., 2003 24(14)1740-1747
     doi.org/10.1002/jcc.10318
  2. Neese,F.; Wennmohs,F.; Hansen,A.; Becker,U.
     Efficient, approximate and parallel Hartree-Fock and hybrid DFT calculations. A 'chain-of-spheres' algorithm for the Hartree-Fock exchange
     Chem. Phys., 2009 356(1-3)98-109
     doi.org/10.1016/j.chemphys.2008.10.036
  3. Helmich-Paris,B.; de Souza,B.; Neese,F.; Izsák,R.
     An improved chain of spheres for exchange algorithm
     J. Chem. Phys., 2021 155 104109
     doi.org/doi: 10.1063/5.0058766.
  4. Neese,F.
     The SHARK Integral Generation and Digestion System
     J. Comp. Chem., 2022  1-16
     doi.org/10.1002/jcc.26942

List of suggested additional citations. These are papers that are important in the 'surrounding' of 
of this run, or papers that preceded the highly important papers. If you like your results we are grateful for a citation.

  1. Izsak,R.; Neese,F.
     An overlap fitted chain of spheres exchange method
     J. Chem. Phys., 2011 135 144105
     doi.org/10.1063/1.3646921
  2. Izsak,R.; Hansen,A.; Neese,F.
     The resolution of identity and chain of spheres approximations for the LPNO-CCSD singles Fock term
     Molec. Phys., 2012 110 2413-2417
     doi.org/10.1080/00268976.2012.687466
  3. Neese,F.
     The ORCA program system
     WIRES Comput. Molec. Sci., 2012 2(1)73-78
     doi.org/10.1002/wcms.81
  4. Izsak,R.; Neese,F.; Klopper,W.
     Robust fitting techniques in the chain of spheres approximation to the Fock exchange: The role of the complementary space
     J. Chem. Phys., 2013 139 
     doi.org/10.1063/1.4819264
  5. Neese,F.
     Software update: the ORCA program system, version 4.0
     WIRES Comput. Molec. Sci., 2018 8(1)1-6
     doi.org/10.1002/wcms.1327
  6. Neese,F.; Wennmohs,F.; Becker,U.; Riplinger,C.
     The ORCA quantum chemistry program package
     J. Chem. Phys., 2020 152 Art. No. L224108
     doi.org/10.1063/5.0004608

List of optional additional citations

  1. Neese,F.
     Approximate second-order SCF convergence for spin unrestricted wavefunctions
     Chem. Phys. Lett., 2000 325(1-3)93-98
     doi.org/10.1016/s0009-2614(00)00662-x

Timings for individual modules:

Sum of individual times          ...      337.019 sec (=   5.617 min)
Startup calculation              ...       11.847 sec (=   0.197 min)   3.5 %
SCF iterations                   ...      324.964 sec (=   5.416 min)  96.4 %
Property calculations            ...        0.208 sec (=   0.003 min)   0.1 %
                             ****ORCA TERMINATED NORMALLY****
TOTAL RUN TIME: 0 days 0 hours 5 minutes 38 seconds 459 msec
