
                                 *****************
                                 * O   R   C   A *
                                 *****************

                                            #,                                       
                                            ###                                      
                                            ####                                     
                                            #####                                    
                                            ######                                   
                                           ########,                                 
                                     ,,################,,,,,                         
                               ,,#################################,,                 
                          ,,##########################################,,             
                       ,#########################################, ''#####,          
                    ,#############################################,,   '####,        
                  ,##################################################,,,,####,       
                ,###########''''           ''''###############################       
              ,#####''   ,,,,##########,,,,          '''####'''          '####       
            ,##' ,,,,###########################,,,                        '##       
           ' ,,###''''                  '''############,,,                           
         ,,##''                                '''############,,,,        ,,,,,,###''
      ,#''                                            '''#######################'''  
     '                                                          ''''####''''         
             ,#######,   #######,   ,#######,      ##                                
            ,#'     '#,  ##    ##  ,#'     '#,    #''#        ,####,   ,####,        
            ##       ##  ##   ,#'  ##            #'  '#       #'       #'  '#        
            ##       ##  #######   ##           ,######,      #####,   #    #        
            '#,     ,#'  ##    ##  '#,     ,#' ,#      #,     #,   #   #,  ,#        
             '#######'   ##     ##  '#######'  #'      '#     '####' # '####'        



                #########################################################
                #                        -***-                          #
                #          Department of theory and spectroscopy        #
                #                                                       #
                #                      Frank Neese                      #
                #                                                       #
                #     Directorship, Architecture, Infrastructure        #
                #                    SHARK, DRIVERS                     #
                #        Core code/Algorithms in most modules           #
                #                                                       #
                #        Max Planck Institute fuer Kohlenforschung      #
                #                Kaiser Wilhelm Platz 1                 #
                #                 D-45470 Muelheim/Ruhr                 #
                #                      Germany                          #
                #                                                       #
                #                  All rights reserved                  #
                #                        -***-                          #
                #########################################################


                         Program Version 6.0.0  -   RELEASE  -


 With contributions from (in alphabetic order):
   Daniel Aravena         : Magnetic Suceptibility
   Michael Atanasov       : Ab Initio Ligand Field Theory (pilot matlab implementation)
   Alexander A. Auer      : GIAO ZORA, VPT2 properties, NMR spectrum
   Ute Becker             : All parallelization in ORCA, NUMFREQ, NUMCALC
   Giovanni Bistoni       : ED, misc. LED, open-shell LED, HFLD
   Martin Brehm           : Molecular dynamics
   Dmytro Bykov           : pre 5.0 version of the SCF Hessian
   Marcos Casanova-Páez   : Triplet and SCS-CIS(D). UHF-(DLPNO)-IP/EA/STEOM-CCSD. UHF-CVS-IP/STEOM-CCSD
   Vijay G. Chilkuri      : MRCI spin determinant printing, contributions to CSF-ICE
   Pauline Colinet        : FMM embedding
   Dipayan Datta          : RHF DLPNO-CCSD density
   Achintya Kumar Dutta   : EOM-CC, STEOM-CC
   Nicolas Foglia         : Exact transition moments, OPA infrastructure, MCD improvements
   Dmitry Ganyushin       : Spin-Orbit,Spin-Spin,Magnetic field MRCI
   Miquel Garcia          : C-PCM and meta-GGA Hessian, CCSD/C-PCM, Gaussian charge scheme
   Tiago L. C. Gouveia    : GS-ROHF, GS-ROCIS
   Yang Guo               : DLPNO-NEVPT2, F12-NEVPT2, CIM, IAO-localization
   Andreas Hansen         : Spin unrestricted coupled pair/coupled cluster methods
   Ingolf Harden          : AUTO-CI MPn and infrastructure 
   Benjamin Helmich-Paris : MC-RPA, TRAH-(SCF,CASSCF), AVAS, COSX integrals, SCF dyn. polar.
   Lee Huntington         : MR-EOM, pCC
   Robert Izsak           : Overlap fitted RIJCOSX, COSX-SCS-MP3, EOM
   Riya Kayal             : Wick's Theorem for AUTO-CI, AUTO-CI UHF-CCSDT
   Emily Kempfer          : AUTO-CI, RHF CISDT and CCSDT
   Christian Kollmar      : KDIIS, OOCD, Brueckner-CCSD(T), CCSD density, CASPT2, CASPT2-K, improved NEVPT2
   Axel Koslowski         : Symmetry handling
   Simone Kossmann        : Meta GGA functionals, TD-DFT gradient, OOMP2, (MP2 Hessian; deprecated post 5.0)
   Lucas Lang             : DCDCAS
   Marvin Lechner         : AUTO-CI (C++ implementation), FIC-MRCC
   Spencer Leger          : CASSCF response
   Dagmar Lenk            : GEPOL surface, SMD, ORCA-2-JSON
   Dimitrios Liakos       : Extrapolation schemes; Compound Job, initial MDCI parallelization
   Dimitrios Manganas     : Further ROCIS development; embedding schemes. LFT, Crystal Embedding
   Dimitrios Pantazis     : SARC Basis sets
   Anastasios Papadopoulos: AUTO-CI, single reference methods and gradients
   Taras Petrenko         : pre 6.0 DFT Hessian and TD-DFT gradient, (ASA, deprecated), ECA, 1-Electron XAS/XES, NRVS
   Peter Pinski           : DLPNO-MP2, DLPNO-MP2 Gradient
   Christoph Reimann      : Effective Core Potentials
   Marius Retegan         : Local ZFS, SOC
   Christoph Riplinger    : Optimizer, TS searches, QM/MM, DLPNO-CCSD(T), (RO)-DLPNO pert. Triples
   Michael Roemelt        : Original ROCIS implementation
   Masaaki Saitow         : Open-shell DLPNO-CCSD energy and density
   Barbara Sandhoefer     : DKH picture change effects
   Kantharuban Sivalingam : CASSCF convergence/infrastructure, NEVPT2 and variants, FIC-MRCI
   Bernardo de Souza      : ESD, SOC TD-DFT
   Georgi Stoychev        : AutoAux, RI-MP2 NMR, DLPNO-MP2 response, X2C
   Van Anh Tran           : RI-MP2 g-tensors
   Willem Van den Heuvel  : Paramagnetic NMR
   Zikuan Wang            : NOTCH, Electric field optimization 
   Frank Wennmohs         : Technical directorship and infrastructure
   Hang Xu                : AUTO-CI-Response properties 


 We gratefully acknowledge several colleagues who have allowed us to
 interface, adapt or use parts of their codes:
   Stefan Grimme, W. Hujo, H. Kruse, P. Pracht,  : VdW corrections, initial TS optimization,
                  C. Bannwarth, S. Ehlert,         DFT functionals, gCP, sTDA/sTD-DF
                  L. Wittmann, M. Mueller
   Ed Valeev, F. Pavosevic, A. Kumar             : LibInt (2-el integral package), F12 methods
   Garnet Chan, S. Sharma, J. Yang, R. Olivares  : DMRG
   Ulf Ekstrom                                   : XCFun DFT Library
   Mihaly Kallay                                 : mrcc  (arbitrary order and MRCC methods)
   Frank Weinhold                                : gennbo (NPA and NBO analysis)
   Simon Mueller                                 : openCOSMO-RS
   Christopher J. Cramer and Donald G. Truhlar   : smd solvation model
   Lars Goerigk                                  : TD-DFT with DH, B97 family of functionals
   V. Asgeirsson, H. Jonsson                     : NEB implementation
   FAccTs GmbH                                   : IRC, NEB, NEB-TS, DLPNO-Multilevel, CI-OPT
                                                   MM, QMMM, 2- and 3-layer-ONIOM, Crystal-QMMM,
                                                   LR-CPCM, SF, NACMEs, symmetry and pop. for TD-DFT,
                                                   nearIR, NL-DFT gradient (VV10), updates on ESD,
                                                   ML-optimized integration grids, MBIS, APM,
                                                   GOAT, DOCKER, SOLVATOR, interface openCOSMO-RS
   S Lehtola, MJT Oliveira, MAL Marques          : LibXC Library
   Liviu Ungur et al                             : ANISO software


 Your calculation uses the libint2 library for the computation of 2-el integrals
 For citations please refer to: http://libint.valeyev.net

 Your ORCA version has been built with support for libXC version: 6.2.2
 For citations please refer to: https://libxc.gitlab.io

 This ORCA versions uses:
   CBLAS   interface :  Fast vector & matrix operations
   LAPACKE interface :  Fast linear algebra routines
   SCALAPACK package :  Parallel linear algebra routines
   Shared memory     :  Shared parallel matrices
   BLAS/LAPACK       :  OpenBLAS 0.3.27  USE64BITINT DYNAMIC_ARCH NO_AFFINITY SkylakeX SINGLE_THREADED
        Core in use  :  SkylakeX
   Copyright (c) 2011-2014, The OpenBLAS Project


Warning: RI is on but no J-basis has been assigned. Assigning Def2/J (nothing to worry about!)
================================================================================

----- Orbital basis set information -----
Your calculation utilizes the basis: 6-31G*
   H-He, Li-Ne : W. J. Hehre, R. Ditchfield and J.A. Pople, J. Chem. Phys. 56, 2257 (1972).
                 Note: He and Ne are unpublished basis sets taken from the Gaussian program.
                 Note: Li and B from J. D. Dill and J. A. Pople, J. Chem. Phys. 62, 2921 (1975).
   Na - Ar     : M. M. Francl, W. J. Pietro, W. J. Hehre, J. S. Binkley, M. S. Gordon, 
                 D. J. DeFrees and J. A. Pople, J. Chem. Phys. 77, 3654 (1982).
   K - Zn      : V. A. Rassolov, J. A. Pople, M. A. Ratner, and T. L. Windus, J. Chem. Phys. 109, 1223 (1998).

----- AuxJ basis set information -----
Your calculation utilizes the auxiliary basis: def2/J
   F. Weigend, Phys. Chem. Chem. Phys. 8, 1057 (2006).

================================================================================
                                        WARNINGS
                       Please study these warnings very carefully!
================================================================================


================================================================================
                                       INPUT FILE
================================================================================
NAME = /home/nmrbox/aojoawo/Documents/ERDOS/inputs/CHEMBL3682579.inp
|  1> ! B3LYP 6-31G* SP
|  2> 
|  3> * xyz 0 1
|  4> C -1.8011 -0.5584 -1.2706
|  5> C -2.2439 -1.2663 -0.0105
|  6> C -1.5662 -1.0594 1.2167
|  7> N -0.4984 -0.1089 1.3358
|  8> C 0.8561 -0.5938 1.6280
|  9> C 1.6107 -0.9831 0.3373
| 10> C 2.8813 -1.8061 0.6905
| 11> C 4.0717 -1.4904 -0.2216
| 12> N 4.3659 -0.0495 -0.1783
| 13> C 5.7277 0.4230 -0.2570
| 14> C 6.1333 1.5562 0.4726
| 15> C 7.4521 2.0144 0.3959
| 16> C 8.3783 1.3509 -0.4106
| 17> C 7.9867 0.2293 -1.1463
| 18> C 6.6693 -0.2344 -1.0703
| 19> C 3.2580 0.9186 -0.1418
| 20> C 1.9314 0.2581 -0.5350
| 21> S -0.9265 1.5199 1.7685
| 22> O -1.3119 1.5656 3.2209
| 23> O 0.2465 2.4369 1.5552
| 24> C -2.2768 2.0676 0.7795
| 25> C -2.0465 2.7899 -0.3980
| 26> C -3.1189 3.1772 -1.2074
| 27> C -4.4379 2.8456 -0.8509
| 28> C -5.5690 3.2481 -1.7149
| 29> O -6.7558 2.9974 -1.3695
| 30> O -5.3343 3.9092 -2.9176
| 31> C -4.6623 2.1195 0.3331
| 32> C -3.5884 1.7329 1.1399
| 33> N -1.9506 -1.7395 2.3278
| 34> C -2.9884 -2.6097 2.3292
| 35> C -3.7205 -2.8302 1.1612
| 36> C -4.8230 -3.6991 1.1716
| 37> C -5.5612 -3.9074 0.0068
| 38> C -5.1954 -3.2672 -1.1775
| 39> C -4.0988 -2.4010 -1.2014
| 40> C -3.3466 -2.1603 -0.0299
| 41> H -2.6417 0.0418 -1.6824
| 42> H -1.4851 -1.3061 -2.0276
| 43> H -0.9515 0.1287 -1.1041
| 44> H 1.4348 0.1785 2.1799
| 45> H 0.7900 -1.4768 2.3038
| 46> H 0.9414 -1.6428 -0.2580
| 47> H 2.6506 -2.8917 0.6317
| 48> H 3.2022 -1.5986 1.7366
| 49> H 3.8448 -1.7957 -1.2658
| 50> H 4.9470 -2.0760 0.1333
| 51> H 5.4353 2.0790 1.1124
| 52> H 7.7570 2.8836 0.9648
| 53> H 9.3987 1.7084 -0.4678
| 54> H 8.7050 -0.2798 -1.7759
| 55> H 6.3809 -1.0960 -1.6583
| 56> H 3.4608 1.7503 -0.8530
| 57> H 3.1714 1.3463 0.8809
| 58> H 2.0022 -0.0594 -1.5986
| 59> H 1.1207 1.0119 -0.4835
| 60> H -1.0371 3.0385 -0.7009
| 61> H -2.9135 3.7300 -2.1150
| 62> H -6.1032 4.1852 -3.5164
| 63> H -5.6653 1.8385 0.6306
| 64> H -3.7788 1.1562 2.0361
| 65> H -3.2561 -3.1069 3.2546
| 66> H -5.1212 -4.2053 2.0829
| 67> H -6.4139 -4.5742 0.0196
| 68> H -5.7692 -3.4356 -2.0797
| 69> H -3.8529 -1.9275 -2.1420
| 70> *
| 71> 
| 72>                          ****END OF INPUT****
================================================================================

                       ****************************
                       * Single Point Calculation *
                       ****************************

---------------------------------
CARTESIAN COORDINATES (ANGSTROEM)
---------------------------------
  C     -1.801100   -0.558400   -1.270600
  C     -2.243900   -1.266300   -0.010500
  C     -1.566200   -1.059400    1.216700
  N     -0.498400   -0.108900    1.335800
  C      0.856100   -0.593800    1.628000
  C      1.610700   -0.983100    0.337300
  C      2.881300   -1.806100    0.690500
  C      4.071700   -1.490400   -0.221600
  N      4.365900   -0.049500   -0.178300
  C      5.727700    0.423000   -0.257000
  C      6.133300    1.556200    0.472600
  C      7.452100    2.014400    0.395900
  C      8.378300    1.350900   -0.410600
  C      7.986700    0.229300   -1.146300
  C      6.669300   -0.234400   -1.070300
  C      3.258000    0.918600   -0.141800
  C      1.931400    0.258100   -0.535000
  S     -0.926500    1.519900    1.768500
  O     -1.311900    1.565600    3.220900
  O      0.246500    2.436900    1.555200
  C     -2.276800    2.067600    0.779500
  C     -2.046500    2.789900   -0.398000
  C     -3.118900    3.177200   -1.207400
  C     -4.437900    2.845600   -0.850900
  C     -5.569000    3.248100   -1.714900
  O     -6.755800    2.997400   -1.369500
  O     -5.334300    3.909200   -2.917600
  C     -4.662300    2.119500    0.333100
  C     -3.588400    1.732900    1.139900
  N     -1.950600   -1.739500    2.327800
  C     -2.988400   -2.609700    2.329200
  C     -3.720500   -2.830200    1.161200
  C     -4.823000   -3.699100    1.171600
  C     -5.561200   -3.907400    0.006800
  C     -5.195400   -3.267200   -1.177500
  C     -4.098800   -2.401000   -1.201400
  C     -3.346600   -2.160300   -0.029900
  H     -2.641700    0.041800   -1.682400
  H     -1.485100   -1.306100   -2.027600
  H     -0.951500    0.128700   -1.104100
  H      1.434800    0.178500    2.179900
  H      0.790000   -1.476800    2.303800
  H      0.941400   -1.642800   -0.258000
  H      2.650600   -2.891700    0.631700
  H      3.202200   -1.598600    1.736600
  H      3.844800   -1.795700   -1.265800
  H      4.947000   -2.076000    0.133300
  H      5.435300    2.079000    1.112400
  H      7.757000    2.883600    0.964800
  H      9.398700    1.708400   -0.467800
  H      8.705000   -0.279800   -1.775900
  H      6.380900   -1.096000   -1.658300
  H      3.460800    1.750300   -0.853000
  H      3.171400    1.346300    0.880900
  H      2.002200   -0.059400   -1.598600
  H      1.120700    1.011900   -0.483500
  H     -1.037100    3.038500   -0.700900
  H     -2.913500    3.730000   -2.115000
  H     -6.103200    4.185200   -3.516400
  H     -5.665300    1.838500    0.630600
  H     -3.778800    1.156200    2.036100
  H     -3.256100   -3.106900    3.254600
  H     -5.121200   -4.205300    2.082900
  H     -6.413900   -4.574200    0.019600
  H     -5.769200   -3.435600   -2.079700
  H     -3.852900   -1.927500   -2.142000

----------------------------
CARTESIAN COORDINATES (A.U.)
----------------------------
  NO LB      ZA    FRAG     MASS         X           Y           Z
   0 C     6.0000    0    12.011   -3.403586   -1.055223   -2.401086
   1 C     6.0000    0    12.011   -4.240356   -2.392960   -0.019842
   2 C     6.0000    0    12.011   -2.959689   -2.001976    2.299230
   3 N     7.0000    0    14.007   -0.941840   -0.205791    2.524296
   4 C     6.0000    0    12.011    1.617795   -1.122119    3.076474
   5 C     6.0000    0    12.011    3.043782   -1.857790    0.637405
   6 C     6.0000    0    12.011    5.444868   -3.413034    1.304856
   7 C     6.0000    0    12.011    7.694398   -2.816448   -0.418763
   8 N     7.0000    0    14.007    8.250355   -0.093541   -0.336938
   9 C     6.0000    0    12.011   10.823784    0.799354   -0.485660
  10 C     6.0000    0    12.011   11.590257    2.940792    0.893085
  11 C     6.0000    0    12.011   14.082428    3.806664    0.748143
  12 C     6.0000    0    12.011   15.832692    2.552831   -0.775922
  13 C     6.0000    0    12.011   15.092676    0.433314   -2.166193
  14 C     6.0000    0    12.011   12.603151   -0.442952   -2.022574
  15 C     6.0000    0    12.011    6.156728    1.735902   -0.267963
  16 C     6.0000    0    12.011    3.649817    0.487738   -1.011003
  17 S    16.0000    0    32.060   -1.750831    2.872195    3.341981
  18 O     8.0000    0    15.999   -2.479132    2.958555    6.086619
  19 O     8.0000    0    15.999    0.465817    4.605074    2.938902
  20 C     6.0000    0    12.011   -4.302528    3.907198    1.473042
  21 C     6.0000    0    12.011   -3.867325    5.272147   -0.752111
  22 C     6.0000    0    12.011   -5.893867    6.004038   -2.281655
  23 C     6.0000    0    12.011   -8.386416    5.377405   -1.607968
  24 C     6.0000    0    12.011  -10.523885    6.138019   -3.240691
  25 O     8.0000    0    15.999  -12.766612    5.664265   -2.587980
  26 O     8.0000    0    15.999  -10.080366    7.387317   -5.513465
  27 C     6.0000    0    12.011   -8.810470    4.005275    0.629468
  28 C     6.0000    0    12.011   -6.781093    3.274706    2.154099
  29 N     7.0000    0    14.007   -3.686100   -3.287179    4.398904
  30 C     6.0000    0    12.011   -5.647258   -4.931618    4.401550
  31 C     6.0000    0    12.011   -7.030726   -5.348303    2.194350
  32 C     6.0000    0    12.011   -9.114149   -6.990286    2.214003
  33 C     6.0000    0    12.011  -10.509145   -7.383916    0.012850
  34 C     6.0000    0    12.011   -9.817883   -6.174113   -2.225153
  35 C     6.0000    0    12.011   -7.745609   -4.537232   -2.270317
  36 C     6.0000    0    12.011   -6.324157   -4.082375   -0.056503
  37 H     1.0000    0     1.008   -4.992090    0.078991   -3.179275
  38 H     1.0000    0     1.008   -2.806432   -2.468171   -3.831609
  39 H     1.0000    0     1.008   -1.798074    0.243208   -2.086447
  40 H     1.0000    0     1.008    2.711379    0.337316    4.119414
  41 H     1.0000    0     1.008    1.492884   -2.790748    4.353551
  42 H     1.0000    0     1.008    1.778988   -3.104442   -0.487549
  43 H     1.0000    0     1.008    5.008908   -5.464521    1.193740
  44 H     1.0000    0     1.008    6.051281   -3.020916    3.281698
  45 H     1.0000    0     1.008    7.265619   -3.393381   -2.392015
  46 H     1.0000    0     1.008    9.348475   -3.923071    0.251900
  47 H     1.0000    0     1.008   10.271228    3.928741    2.102131
  48 H     1.0000    0     1.008   14.658606    5.449214    1.823208
  49 H     1.0000    0     1.008   17.760969    3.228408   -0.884014
  50 H     1.0000    0     1.008   16.450066   -0.528745   -3.355965
  51 H     1.0000    0     1.008   12.058153   -2.071140   -3.133733
  52 H     1.0000    0     1.008    6.539964    3.307588   -1.611936
  53 H     1.0000    0     1.008    5.993077    2.544138    1.664660
  54 H     1.0000    0     1.008    3.783610   -0.112250   -3.020916
  55 H     1.0000    0     1.008    2.117816    1.912214   -0.913683
  56 H     1.0000    0     1.008   -1.959835    5.741933   -1.324509
  57 H     1.0000    0     1.008   -5.505717    7.048678   -3.996771
  58 H     1.0000    0     1.008  -11.533377    7.908882   -6.645033
  59 H     1.0000    0     1.008  -10.705865    3.474261    1.191661
  60 H     1.0000    0     1.008   -7.140897    2.184901    3.847671
  61 H     1.0000    0     1.008   -6.153137   -5.871190    6.150303
  62 H     1.0000    0     1.008   -9.677665   -7.946865    3.936111
  63 H     1.0000    0     1.008  -12.120514   -8.643985    0.037039
  64 H     1.0000    0     1.008  -10.902208   -6.492343   -3.930063
  65 H     1.0000    0     1.008   -7.280926   -3.642447   -4.047793

--------------------------------
INTERNAL COORDINATES (ANGSTROEM)
--------------------------------
 C      0   0   0     0.000000000000     0.00000000     0.00000000
 C      1   0   0     1.511636947154     0.00000000     0.00000000
 C      2   1   0     1.417076123573   120.89331571     0.00000000
 N      3   2   1     1.434514517180   121.64299504     4.30216262
 C      4   3   2     1.468052826025   118.97689637   245.29811509
 C      5   4   3     1.544953766299   111.56742970    86.41733892
 C      6   5   4     1.554510726885   110.04828766   193.85365179
 C      7   6   5     1.532528975256   112.99205397   216.98339004
 N      8   7   6     1.471265217423   109.84976489    56.25376686
 C      9   8   7     1.443588992754   120.50304381   144.56063473
 C     10   9   8     1.407469274975   120.47197195   215.57511132
 C     11  10   9     1.398235877812   120.47820406   180.03505041
 C     12  11  10     1.395894315484   120.11601718     0.17371056
 C     13  12  11     1.397351641499   119.98460648     0.20595723
 C     14  13  12     1.398690977307   120.09601231   359.64958015
 C      9   8   7     1.471731045402   119.63153072   320.61082142
 C     16   9   8     1.533210373693   111.19896782   344.58665024
 S      4   3   2     1.738818087092   117.26244174    89.56194897
 O     18   4   3     1.503358709690   109.39042224    73.18573705
 O     18   4   3     1.504099361744   110.10842709   192.41575739
 C     18   4   3     1.761081025961   109.89814519   312.73342457
 C     21  18   4     1.400450509658   120.43078015   265.68332114
 C     22  21  18     1.398274440158   120.22779104   177.47824591
 C     23  22  21     1.405991397555   120.49035278   359.91623520
 C     24  23  22     1.479151601426   120.33774651   180.46680556
 O     25  24  23     1.261208107332   120.36589411   182.81298467
 O     25  24  23     1.392344996759   120.32214296     2.74189229
 C     24  23  22     1.406923086029   118.99476443     0.06459486
 C     28  24  23     1.397729233435   120.39541121   359.89533834
 N      3   2   1     1.358249822382   119.99826945   182.25142845
 C     30   3   2     1.354355507243   122.64479817   358.80878772
 C     31  30   3     1.395999520057   120.16381113   359.40747473
 C     32  31  30     1.403781186653   120.22802929   182.05310998
 C     33  32  31     1.394663819707   120.12991790   179.34731921
 C     34  33  32     1.395074252504   120.11076499     0.88667906
 C     35  34  33     1.397642733319   120.30839203   359.19265807
 C     36  35  34     1.412852993060   120.60581157   359.95486653
 H      1   2   3     1.111947678625   109.87978375   237.89860591
 H      1   2   3     1.109937065783   109.66147920   118.05665741
 H      1   2   3     1.105282235449   112.99874939   358.00279961
 H      5   4   3     1.111725950943   110.46485749   208.59948132
 H      5   4   3     1.113895798538   109.13772714   325.10522576
 H      6   5   4     1.112451648387   107.61546382   310.61339327
 H      7   6   5     1.111398798812   109.59999287    94.79326274
 H      7   6   5     1.113713728927   110.50489520   337.17871313
 H      8   7   6     1.111325937788   110.12255415   295.29338891
 H      8   7   6     1.111319692978   108.25072094   176.91338928
 H     11  10   9     1.081604308423   120.65247927     0.90434634
 H     12  11  10     1.082644844813   119.99294188   180.34302528
 H     13  12  11     1.082725380694   119.92735775   179.99401800
 H     14  13  12     1.082374177445   119.85524308   179.60920469
 H     15  14  13     1.082253722562   119.03891659   179.12946445
 H     16   9   8     1.112950210027   109.78838394   224.62461855
 H     16   9   8     1.111909231907   109.54001014   105.78560490
 H     17  16   9     1.112233720942   108.24852902   294.88876809
 H     17  16   9     1.108197265833   109.14868750   179.27140753
 H     22  21  18     1.082792099158   120.45895561   358.60936924
 H     23  22  21     1.082365354213   118.77118003   180.33170884
 H     27  25  24     1.012889258508   120.80236193   179.78044315
 H     28  24  23     1.083271087955   120.84173916   180.69109536
 H     29  28  24     1.082593871219   119.34410001   181.31473054
 H     31  30   3     1.084083156405   118.99839803   181.13643717
 H     33  32  31     1.084264437303   120.74370693     0.20992451
 H     34  33  32     1.082535620661   119.93698414   180.31426500
 H     35  34  33     1.082390798187   119.81448915   179.74003219
 H     36  35  34     1.081386804062   117.68806522   179.99990874

---------------------------
INTERNAL COORDINATES (A.U.)
---------------------------
 C      0   0   0     0.000000000000     0.00000000     0.00000000
 C      1   0   0     2.856579844037     0.00000000     0.00000000
 C      2   1   0     2.677885784471   120.89331571     0.00000000
 N      3   2   1     2.710839572604   121.64299504     4.30216262
 C      4   3   2     2.774217791316   118.97689637   245.29811509
 C      5   4   3     2.919539507874   111.56742970    86.41733892
 C      6   5   4     2.937599546055   110.04828766   193.85365179
 C      7   6   5     2.896060055533   112.99205397   216.98339004
 N      8   7   6     2.780288331294   109.84976489    56.25376686
 C      9   8   7     2.727987846248   120.50304381   144.56063473
 C     10   9   8     2.659731471612   120.47197195   215.57511132
 C     11  10   9     2.642282879687   120.47820406   180.03505041
 C     12  11  10     2.637857968162   120.11601718     0.17371056
 C     13  12  11     2.640611915218   119.98460648     0.20595723
 C     14  13  12     2.643142893097   120.09601231   359.64958015
 C      9   8   7     2.781168618599   119.63153072   320.61082142
 C     16   9   8     2.897347711967   111.19896782   344.58665024
 S      4   3   2     3.285889981314   117.26244174    89.56194897
 O     18   4   3     2.840936242359   109.39042224    73.18573705
 O     18   4   3     2.842335871903   110.10842709   192.41575739
 C     18   4   3     3.327960838711   109.89814519   312.73342457
 C     21  18   4     2.646467927363   120.43078015   265.68332114
 C     22  21  18     2.642355751961   120.22779104   177.47824591
 C     23  22  21     2.656938688029   120.49035278   359.91623520
 C     24  23  22     2.795191437245   120.33774651   180.46680556
 O     25  24  23     2.383337920739   120.36589411   182.81298467
 O     25  24  23     2.631150727810   120.32214296     2.74189229
 C     24  23  22     2.658699324085   118.99476443     0.06459486
 C     28  24  23     2.641325460569   120.39541121   359.89533834
 N      3   2   1     2.566720185749   119.99826945   182.25142845
 C     30   3   2     2.559360996658   122.64479817   358.80878772
 C     31  30   3     2.638056775994   120.16381113   359.40747473
 C     32  31  30     2.652761994725   120.22802929   182.05310998
 C     33  32  31     2.635532668135   120.12991790   179.34731921
 C     34  33  32     2.636308273718   120.11076499     0.88667906
 C     35  34  33     2.641161999038   120.30839203   359.19265807
 C     36  35  34     2.669905224375   120.60581157   359.95486653
 H      1   2   3     2.101276587851   109.87978375   237.89860591
 H      1   2   3     2.097477080219   109.66147920   118.05665741
 H      1   2   3     2.088680725688   112.99874939   358.00279961
 H      5   4   3     2.100857583255   110.46485749   208.59948132
 H      5   4   3     2.104958000962   109.13772714   325.10522576
 H      6   5   4     2.102228952682   107.61546382   310.61339327
 H      7   6   5     2.100239355323   109.59999287    94.79326274
 H      7   6   5     2.104613939260   110.50489520   337.17871313
 H      8   7   6     2.100101667942   110.12255415   295.29338891
 H      8   7   6     2.100089866961   108.25072094   176.91338928
 H     11  10   9     2.043935928189   120.65247927     0.90434634
 H     12  11  10     2.045902256998   119.99294188   180.34302528
 H     13  12  11     2.046054447758   119.92735775   179.99401800
 H     14  13  12     2.045390769800   119.85524308   179.60920469
 H     15  14  13     2.045163143060   119.03891659   179.12946445
 H     16   9   8     2.103171097642   109.78838394   224.62461855
 H     16   9   8     2.101203934083   109.54001014   105.78560490
 H     17  16   9     2.101817129492   108.24852902   294.88876809
 H     17  16   9     2.094189334785   109.14868750   179.27140753
 H     22  21  18     2.046180527383   120.45895561   358.60936924
 H     23  22  21     2.045374096307   118.77118003   180.33170884
 H     27  25  24     1.914083302570   120.80236193   179.78044315
 H     28  24  23     2.047085685031   120.84173916   180.69109536
 H     29  28  24     2.045805930865   119.34410001   181.31473054
 H     31  30   3     2.048620272001   118.99839803   181.13643717
 H     33  32  31     2.048962843253   120.74370693     0.20992451
 H     34  33  32     2.045695853264   119.93698414   180.31426500
 H     35  34  33     2.045422178450   119.81448915   179.74003219
 H     36  35  34     2.043524904514   117.68806522   179.99990874

---------------------
BASIS SET INFORMATION
---------------------
There are 5 groups of distinct atoms

 Group   1 Type C   : 10s4p1d contracted to 3s2p1d pattern {631/31/1}
 Group   2 Type N   : 10s4p1d contracted to 3s2p1d pattern {631/31/1}
 Group   3 Type S   : 16s10p1d contracted to 4s3p1d pattern {6631/631/1}
 Group   4 Type O   : 10s4p1d contracted to 3s2p1d pattern {631/31/1}
 Group   5 Type H   : 4s contracted to 2s pattern {31}

Atom   0C    basis set group =>   1
Atom   1C    basis set group =>   1
Atom   2C    basis set group =>   1
Atom   3N    basis set group =>   2
Atom   4C    basis set group =>   1
Atom   5C    basis set group =>   1
Atom   6C    basis set group =>   1
Atom   7C    basis set group =>   1
Atom   8N    basis set group =>   2
Atom   9C    basis set group =>   1
Atom  10C    basis set group =>   1
Atom  11C    basis set group =>   1
Atom  12C    basis set group =>   1
Atom  13C    basis set group =>   1
Atom  14C    basis set group =>   1
Atom  15C    basis set group =>   1
Atom  16C    basis set group =>   1
Atom  17S    basis set group =>   3
Atom  18O    basis set group =>   4
Atom  19O    basis set group =>   4
Atom  20C    basis set group =>   1
Atom  21C    basis set group =>   1
Atom  22C    basis set group =>   1
Atom  23C    basis set group =>   1
Atom  24C    basis set group =>   1
Atom  25O    basis set group =>   4
Atom  26O    basis set group =>   4
Atom  27C    basis set group =>   1
Atom  28C    basis set group =>   1
Atom  29N    basis set group =>   2
Atom  30C    basis set group =>   1
Atom  31C    basis set group =>   1
Atom  32C    basis set group =>   1
Atom  33C    basis set group =>   1
Atom  34C    basis set group =>   1
Atom  35C    basis set group =>   1
Atom  36C    basis set group =>   1
Atom  37H    basis set group =>   5
Atom  38H    basis set group =>   5
Atom  39H    basis set group =>   5
Atom  40H    basis set group =>   5
Atom  41H    basis set group =>   5
Atom  42H    basis set group =>   5
Atom  43H    basis set group =>   5
Atom  44H    basis set group =>   5
Atom  45H    basis set group =>   5
Atom  46H    basis set group =>   5
Atom  47H    basis set group =>   5
Atom  48H    basis set group =>   5
Atom  49H    basis set group =>   5
Atom  50H    basis set group =>   5
Atom  51H    basis set group =>   5
Atom  52H    basis set group =>   5
Atom  53H    basis set group =>   5
Atom  54H    basis set group =>   5
Atom  55H    basis set group =>   5
Atom  56H    basis set group =>   5
Atom  57H    basis set group =>   5
Atom  58H    basis set group =>   5
Atom  59H    basis set group =>   5
Atom  60H    basis set group =>   5
Atom  61H    basis set group =>   5
Atom  62H    basis set group =>   5
Atom  63H    basis set group =>   5
Atom  64H    basis set group =>   5
Atom  65H    basis set group =>   5
---------------------------------
AUXILIARY/J BASIS SET INFORMATION
---------------------------------
There are 5 groups of distinct atoms

 Group   1 Type C   : 12s5p4d2f1g contracted to 6s4p3d1f1g pattern {711111/2111/211/2/1}
 Group   2 Type N   : 12s5p4d2f1g contracted to 6s4p3d1f1g pattern {711111/2111/211/2/1}
 Group   3 Type S   : 14s5p5d2f1g contracted to 8s4p3d1f1g pattern {71111111/2111/311/2/1}
 Group   4 Type O   : 12s5p4d2f1g contracted to 6s4p3d1f1g pattern {711111/2111/211/2/1}
 Group   5 Type H   : 5s2p1d contracted to 3s1p1d pattern {311/2/1}

Atom   0C    basis set group =>   1
Atom   1C    basis set group =>   1
Atom   2C    basis set group =>   1
Atom   3N    basis set group =>   2
Atom   4C    basis set group =>   1
Atom   5C    basis set group =>   1
Atom   6C    basis set group =>   1
Atom   7C    basis set group =>   1
Atom   8N    basis set group =>   2
Atom   9C    basis set group =>   1
Atom  10C    basis set group =>   1
Atom  11C    basis set group =>   1
Atom  12C    basis set group =>   1
Atom  13C    basis set group =>   1
Atom  14C    basis set group =>   1
Atom  15C    basis set group =>   1
Atom  16C    basis set group =>   1
Atom  17S    basis set group =>   3
Atom  18O    basis set group =>   4
Atom  19O    basis set group =>   4
Atom  20C    basis set group =>   1
Atom  21C    basis set group =>   1
Atom  22C    basis set group =>   1
Atom  23C    basis set group =>   1
Atom  24C    basis set group =>   1
Atom  25O    basis set group =>   4
Atom  26O    basis set group =>   4
Atom  27C    basis set group =>   1
Atom  28C    basis set group =>   1
Atom  29N    basis set group =>   2
Atom  30C    basis set group =>   1
Atom  31C    basis set group =>   1
Atom  32C    basis set group =>   1
Atom  33C    basis set group =>   1
Atom  34C    basis set group =>   1
Atom  35C    basis set group =>   1
Atom  36C    basis set group =>   1
Atom  37H    basis set group =>   5
Atom  38H    basis set group =>   5
Atom  39H    basis set group =>   5
Atom  40H    basis set group =>   5
Atom  41H    basis set group =>   5
Atom  42H    basis set group =>   5
Atom  43H    basis set group =>   5
Atom  44H    basis set group =>   5
Atom  45H    basis set group =>   5
Atom  46H    basis set group =>   5
Atom  47H    basis set group =>   5
Atom  48H    basis set group =>   5
Atom  49H    basis set group =>   5
Atom  50H    basis set group =>   5
Atom  51H    basis set group =>   5
Atom  52H    basis set group =>   5
Atom  53H    basis set group =>   5
Atom  54H    basis set group =>   5
Atom  55H    basis set group =>   5
Atom  56H    basis set group =>   5
Atom  57H    basis set group =>   5
Atom  58H    basis set group =>   5
Atom  59H    basis set group =>   5
Atom  60H    basis set group =>   5
Atom  61H    basis set group =>   5
Atom  62H    basis set group =>   5
Atom  63H    basis set group =>   5
Atom  64H    basis set group =>   5
Atom  65H    basis set group =>   5
------------------------------------------------------------------------------
                             ORCA STARTUP CALCULATIONS
                           -- RI-GTO INTEGRALS CHOSEN --
------------------------------------------------------------------------------
------------------------------------------------------------------------------
                   ___                                                        
                  /   \      - P O W E R E D   B Y -                         
                 /     \                                                     
                 |  |  |   _    _      __       _____    __    __             
                 |  |  |  | |  | |    /  \     |  _  \  |  |  /  |          
                  \  \/   | |  | |   /    \    | | | |  |  | /  /          
                 / \  \   | |__| |  /  /\  \   | |_| |  |  |/  /          
                |  |  |   |  __  | /  /__\  \  |    /   |      \           
                |  |  |   | |  | | |   __   |  |    \   |  |\   \          
                \     /   | |  | | |  |  |  |  | |\  \  |  | \   \       
                 \___/    |_|  |_| |__|  |__|  |_| \__\ |__|  \__/        
                                                                              
                      - O R C A' S   B I G   F R I E N D -                    
                                      &                                       
                       - I N T E G R A L  F E E D E R -                       
                                                                              
 v1 FN, 2020, v2 2021, v3 2022-2024                                           
------------------------------------------------------------------------------


----------------------
SHARK INTEGRAL PACKAGE
----------------------

Number of atoms                             ...     66
Number of basis functions                   ...    580
Number of shells                            ...    282
Maximum angular momentum                    ...      2
Integral batch strategy                     ... SHARK/LIBINT Hybrid
RI-J (if used) integral strategy            ... SPLIT-RIJ (Revised 2003 algorithm where possible)
Printlevel                                  ...      1
Contraction scheme used                     ... SEGMENTED contraction
Prescreening option                         ... SCHWARTZ
   Thresh                                   ... 1.000e-10
   Tcut                                     ... 1.000e-11
   Tpresel                                  ... 1.000e-11 
Coulomb Range Separation                    ... NOT USED
Exchange Range Separation                   ... NOT USED
Multipole approximations                    ... NOT USED
Finite Nucleus Model                        ... NOT USED
CABS basis                                  ... NOT available
Auxiliary Coulomb fitting basis             ... AVAILABLE
   # of basis functions in Aux-J            ...   2134
   # of shells in Aux-J                     ...    702
   Maximum angular momentum in Aux-J        ...      4
Auxiliary J/K fitting basis                 ... NOT available
Auxiliary Correlation fitting basis         ... NOT available
Auxiliary 'external' fitting basis          ... NOT available

Checking pre-screening integrals            ... done (  0.0 sec) Dimension = 282
Check shell pair data                       ... done (  0.0 sec)
Shell pair information
Shell pair cut-off parameter TPreSel        ...   1.0e-11
Total number of shell pairs                 ...     39903
Shell pairs after pre-screening             ...     20979
Total number of primitive shell pairs       ...    234480
Primitive shell pairs kept                  ...     63115
          la=0 lb=0:   7260 shell pairs
          la=1 lb=0:   7353 shell pairs
          la=1 lb=1:   1865 shell pairs
          la=2 lb=0:   2759 shell pairs
          la=2 lb=1:   1475 shell pairs
          la=2 lb=2:    267 shell pairs

Calculating one electron integrals          ... done (  0.3 sec)
Calculating RI/J V-Matrix + Cholesky decomp.... done (  0.5 sec)
Calculating Nuclear repulsion               ... done (  0.0 sec) ENN=   4167.930248458161 Eh

Diagonalization of the overlap matrix:
Smallest eigenvalue                        ... 3.531e-04
Time for diagonalization                   ...    0.069 sec
Threshold for overlap eigenvalues          ... 1.000e-07
Number of eigenvalues below threshold      ... 0
Time for construction of square roots      ...    0.062 sec
Total time needed                          ...    0.141 sec

-------------------
DFT GRID GENERATION
-------------------

General Integration Accuracy     IntAcc      ... 4.388
Radial Grid Type                 RadialGrid  ... OptM3 with GC (2021)
Angular Grid (max. ang.)         AngularGrid ... 4 (Lebedev-302)
Angular grid pruning method      GridPruning ... 4 (adaptive)
Weight generation scheme         WeightScheme... mBecke (2022)
Basis function cutoff            BFCut       ... 1.0000e-10
Integration weight cutoff        WCut        ... 1.0000e-14
Partially contracted basis set               ... off
Rotationally invariant grid construction     ... off
Angular grids for H and He will be reduced by one unit

Total number of grid points                  ...   313152
Total number of batches                      ...     4925
Average number of points per batch           ...       63
Average number of grid points per atom       ...     4745

--------------------
COSX GRID GENERATION
--------------------

GRIDX 1
-------
General Integration Accuracy     IntAcc      ... 3.816
Radial Grid Type                 RadialGrid  ... OptM3 with GC (2021)
Angular Grid (max. ang.)         AngularGrid ... 1 (Lebedev-50)
Angular grid pruning method      GridPruning ... 4 (adaptive)
Weight generation scheme         WeightScheme... mBecke (2022)
Basis function cutoff            BFCut       ... 1.0000e-10
Integration weight cutoff        WCut        ... 1.0000e-14
Partially contracted basis set               ... on
Rotationally invariant grid construction     ... off
Angular grids for H and He will be reduced by one unit

Total number of grid points                  ...    40676
Total number of batches                      ...      353
Average number of points per batch           ...      115
Average number of grid points per atom       ...      616
UseSFitting                                  ... on

GRIDX 2
-------
General Integration Accuracy     IntAcc      ... 4.020
Radial Grid Type                 RadialGrid  ... OptM3 with GC (2021)
Angular Grid (max. ang.)         AngularGrid ... 2 (Lebedev-110)
Angular grid pruning method      GridPruning ... 4 (adaptive)
Weight generation scheme         WeightScheme... mBecke (2022)
Basis function cutoff            BFCut       ... 1.0000e-10
Integration weight cutoff        WCut        ... 1.0000e-14
Partially contracted basis set               ... on
Rotationally invariant grid construction     ... off
Angular grids for H and He will be reduced by one unit

Total number of grid points                  ...    85464
Total number of batches                      ...      704
Average number of points per batch           ...      121
Average number of grid points per atom       ...     1295
UseSFitting                                  ... on

GRIDX 3
-------
General Integration Accuracy     IntAcc      ... 4.338
Radial Grid Type                 RadialGrid  ... OptM3 with GC (2021)
Angular Grid (max. ang.)         AngularGrid ... 3 (Lebedev-194)
Angular grid pruning method      GridPruning ... 4 (adaptive)
Weight generation scheme         WeightScheme... mBecke (2022)
Basis function cutoff            BFCut       ... 1.0000e-10
Integration weight cutoff        WCut        ... 1.0000e-14
Partially contracted basis set               ... on
Rotationally invariant grid construction     ... off
Angular grids for H and He will be reduced by one unit

Total number of grid points                  ...   186667
Total number of batches                      ...     1492
Average number of points per batch           ...      125
Average number of grid points per atom       ...     2828
UseSFitting                                  ... on
Initializing property integral containers    ... done (  0.0 sec)

SHARK setup successfully completed in  15.9 seconds

Maximum memory used throughout the entire STARTUP-calculation: 137.4 MB
-------------------------------------------------------------------------------
                                 ORCA GUESS
                   Start orbitals & Density for SCF / CASSCF
-------------------------------------------------------------------------------

------------
SCF SETTINGS
------------
Hamiltonian:
 Density Functional     Method          .... DFT(GTOs)
 Exchange Functional    Exchange        .... B88
   X-Alpha parameter    XAlpha          ....  0.666667
   Becke's b parameter  XBeta           ....  0.004200
 Correlation Functional Correlation     .... LYP
 LDA part of GGA corr.  LDAOpt          .... VWN-5
 Gradients option       PostSCFGGA      .... off
 Hybrid DFT is turned on
   Fraction HF Exchange ScalHFX         ....  0.200000
   Scaling of DF-GGA-X  ScalDFX         ....  0.720000
   Scaling of DF-GGA-C  ScalDFC         ....  0.810000
   Scaling of DF-LDA-C  ScalLDAC        ....  1.000000
   Perturbative correction              ....  0.000000
   NL short-range parameter             ....  4.800000
 RI-approximation to the Coulomb term is turned on
   Number of AuxJ basis functions       .... 2134
   RIJ-COSX (HFX calculated with COS-X)).... on


General Settings:
 Integral files         IntName         .... /home/nmrbox/aojoawo/Documents/ERDOS/inputs/CHEMBL3682579
 Hartree-Fock type      HFTyp           .... RHF
 Total Charge           Charge          ....    0
 Multiplicity           Mult            ....    1
 Number of Electrons    NEL             ....  272
 Basis Dimension        Dim             ....  580
 Nuclear Repulsion      ENuc            ....   4167.9302484582 Eh

Convergence Acceleration:
 AO-DIIS                CNVDIIS         .... on
   Start iteration      DIISMaxIt       ....    12
   Startup error        DIISStart       ....  0.200000
   # of expansion vecs  DIISMaxEq       ....     5
   Bias factor          DIISBfac        ....   1.050
   Max. coefficient     DIISMaxC        ....  10.000
 MO-DIIS                CNVKDIIS        .... off
 Trust-Rad. Augm. Hess. CNVTRAH         .... auto
   Auto Start mean grad. ratio tolernc. ....  1.125000
   Auto Start start iteration           ....    50
   Auto Start num. interpolation iter.  ....    10
   Max. Number of Micro iterations      ....    24
   Max. Number of Macro iterations      .... Maxiter - #DIIS iter
   Number of Davidson start vectors     ....     2
   Converg. threshold    (grad. norm)   ....   5.000e-05
   Grad. Scal. Fac. for Micro threshold ....   0.100
   Minimum threshold for Micro iter.    ....   1.000e-02
   NR start threshold (gradient norm)   ....   1.000e-04
   Initial trust radius                 ....   0.400
   Minimum AH scaling param. (alpha)    ....   1.000
   Maximum AH scaling param. (alpha)    .... 1000.000
   Quad. conv. algorithm                .... NR
   White noise on init. David. guess    .... on
   Maximum white noise                  ....   0.010
   Pseudo random numbers                .... off
   Inactive MOs                         .... canonical
   Orbital update algorithm             .... Taylor
   Preconditioner                       .... Diag
   Full preconditioner red. dimension   ....   250
 SOSCF                  CNVSOSCF        .... on
   Start iteration      SOSCFMaxIt      ....   150
   Startup grad/error   SOSCFStart      ....  0.003300
   Hessian update       SOSCFHessUp     .... L-BFGS
 Level Shifting         CNVShift        .... on
   Level shift para.    LevelShift      ....    0.2500
   Turn off err/grad.   ShiftErr        ....    0.0010
 Zerner damping         CNVZerner       .... off
 Static damping         CNVDamp         .... on
   Fraction old density DampFac         ....    0.7000
   Max. Damping (<1)    DampMax         ....    0.9800
   Min. Damping (>=0)   DampMin         ....    0.0000
   Turn off err/grad.   DampErr         ....    0.1000

SCF Procedure:
 Maximum # iterations   MaxIter         ....   125
 SCF integral mode      SCFMode         .... Direct
   Integral package                     .... SHARK and LIBINT hybrid scheme
 Reset frequency        DirectResetFreq ....    20
 Integral Threshold     Thresh          ....  1.000e-10 Eh
 Primitive CutOff       TCut            ....  1.000e-11 Eh

Convergence Tolerance:
 Convergence Check Mode ConvCheckMode   .... Total+1el-Energy
 Convergence forced     ConvForced      .... 0
 Energy Change          TolE            ....  1.000e-06 Eh
 1-El. energy change                    ....  1.000e-03 Eh
 Orbital Gradient       TolG            ....  5.000e-05
 Orbital Rotation angle TolX            ....  5.000e-05
 DIIS Error             TolErr          ....  1.000e-06

------------------------------
INITIAL GUESS: MODEL POTENTIAL
------------------------------
Loading Hartree-Fock densities                     ... done
Calculating cut-offs                               ... done
Initializing the effective Hamiltonian             ... done
Setting up the integral package (SHARK)            ... done
Starting the Coulomb interaction                   ... done (   4.6 sec)
Making the grid                                    ... done (   2.0 sec)
Mapping shells                                     ... done
Starting the XC term evaluation                    ... done (   1.5 sec)
  promolecular density results
     # of electrons  =    271.971185128
     EX              =   -235.272082288
     EC              =     -9.394165048
     EX+EC           =   -244.666247336
Transforming the Hamiltonian                       ... done (   0.0 sec)
Diagonalizing the Hamiltonian                      ... done (   0.1 sec)
Back transforming the eigenvectors                 ... done (   0.0 sec)
Now organizing SCF variables                       ... done
                      ------------------
                      INITIAL GUESS DONE (   8.3 sec)
                      ------------------
             **** ENERGY FILE WAS UPDATED (/home/nmrbox/aojoawo/Documents/ERDOS/inputs/CHEMBL3682579.en.tmp) ****
Finished Guess after   8.6 sec
Maximum memory used throughout the entire GUESS-calculation: 75.1 MB

-------------------------------------------------------------------------------------------
                                      ORCA LEAN-SCF
                              memory conserving SCF solver
-------------------------------------------------------------------------------------------

----------------------------------------D-I-I-S--------------------------------------------
Iteration    Energy (Eh)           Delta-E    RMSDP     MaxDP     DIISErr   Damp  Time(sec)
-------------------------------------------------------------------------------------------
               ***  Starting incremental Fock matrix formation  ***
    1    -1983.6984483556852865     0.00e+00  2.30e-03  1.89e-01  2.97e-01  0.700  78.5
Warning: op=0 Small HOMO/LUMO gap (   0.051) - skipping pre-diagonalization
         Will do a full diagonalization
    2    -1984.1970703845081516    -4.99e-01  1.39e-03  6.85e-02  9.79e-02  0.700  36.7
                               ***Turning on AO-DIIS***
    3    -1984.3813653292891104    -1.84e-01  5.66e-04  1.80e-02  3.43e-02  0.700  35.5
    4    -1984.4946678299320411    -1.13e-01  9.38e-04  2.43e-02  1.49e-02  0.000  32.3
    5    -1984.7461446332436026    -2.51e-01  2.12e-04  8.69e-03  5.85e-03  0.000  34.1
                              *** Initializing SOSCF ***
---------------------------------------S-O-S-C-F--------------------------------------
Iteration    Energy (Eh)           Delta-E    RMSDP     MaxDP     MaxGrad    Time(sec)
--------------------------------------------------------------------------------------
    6    -1984.7476329794953926    -1.49e-03  6.92e-05  3.11e-03  2.46e-03    30.4
               *** Restarting incremental Fock matrix formation ***
    7    -1984.7477424202297698    -1.09e-04  5.76e-05  3.83e-03  4.94e-04    82.6
    8    -1984.7476995099432315     4.29e-05  3.50e-05  2.45e-03  7.54e-04    45.4
    9    -1984.7477669773061280    -6.75e-05  1.17e-05  6.73e-04  1.11e-04    39.0
   10    -1984.7477649150650905     2.06e-06  7.25e-06  4.52e-04  2.16e-04    34.4
   11    -1984.7477681464197303    -3.23e-06  1.89e-06  8.81e-05  2.45e-05    30.2
   12    -1984.7477682200060372    -7.36e-08  1.11e-06  5.76e-05  3.60e-05    23.8
                 **** Energy Check signals convergence ****

               *****************************************************
               *                     SUCCESS                       *
               *           SCF CONVERGED AFTER  12 CYCLES          *
               *****************************************************

Recomputing exchange energy using gridx3       ... done (  143.523 sec)
Old exchange energy                            :    -47.691414089 Eh
New exchange energy                            :    -47.691507103 Eh
Exchange energy change after final integration :     -0.000093014 Eh
Total energy after final integration           :  -1984.747861234 Eh
             **** ENERGY FILE WAS UPDATED (/home/nmrbox/aojoawo/Documents/ERDOS/inputs/CHEMBL3682579.en.tmp) ****

----------------
TOTAL SCF ENERGY
----------------

Total Energy       :      -1984.74786123396234 Eh          -54007.73500 eV

Components:
Nuclear Repulsion  :       4167.93024845816126 Eh          113415.14798 eV
Electronic Energy  :      -6152.67801667816730 Eh         -167422.88045 eV
One Electron Energy:     -11001.19388045876440 Eh         -299357.70454 eV
Two Electron Energy:       4848.51586378059710 Eh          131934.82409 eV

Virial components:
Potential Energy   :      -3958.09608691089034 Eh         -107705.27015 eV
Kinetic Energy     :       1973.34822567692777 Eh           53697.53515 eV
Virial Ratio       :          2.00577679874677

DFT components:
N(Alpha)           :      135.999934504253 electrons
N(Beta)            :      135.999934504253 electrons
N(Total)           :      271.999869008506 electrons
E(X)               :     -189.444745350943 Eh       
E(C)               :      -11.043578637818 Eh       
E(XC)              :     -200.488323988760 Eh       

---------------
SCF CONVERGENCE
---------------

  Last Energy change         ...    7.3586e-08  Tolerance :   1.0000e-06
  Last MAX-Density change    ...    5.7560e-05  Tolerance :   1.0000e-05
  Last RMS-Density change    ...    1.1097e-06  Tolerance :   1.0000e-06
  Last DIIS Error            ...    2.4596e-03  Tolerance :   1.0000e-06
  Last Orbital Gradient      ...    3.5993e-05  Tolerance :   5.0000e-05
  Last Orbital Rotation      ...    5.3502e-05  Tolerance :   5.0000e-05


----------------
ORBITAL ENERGIES
----------------

  NO   OCC          E(Eh)            E(eV) 
   0   2.0000     -89.095301     -2424.4064 
   1   2.0000     -19.201090      -522.4882 
   2   2.0000     -19.142657      -520.8982 
   3   2.0000     -19.127058      -520.4737 
   4   2.0000     -19.116382      -520.1832 
   5   2.0000     -14.366992      -390.9457 
   6   2.0000     -14.334809      -390.0700 
   7   2.0000     -14.315877      -389.5548 
   8   2.0000     -10.340183      -281.3707 
   9   2.0000     -10.262678      -279.2617 
  10   2.0000     -10.246429      -278.8195 
  11   2.0000     -10.237300      -278.5711 
  12   2.0000     -10.229860      -278.3686 
  13   2.0000     -10.224744      -278.2294 
  14   2.0000     -10.224064      -278.2109 
  15   2.0000     -10.221698      -278.1465 
  16   2.0000     -10.221106      -278.1304 
  17   2.0000     -10.219037      -278.0741 
  18   2.0000     -10.216959      -278.0176 
  19   2.0000     -10.212953      -277.9086 
  20   2.0000     -10.206297      -277.7275 
  21   2.0000     -10.205766      -277.7130 
  22   2.0000     -10.205411      -277.7034 
  23   2.0000     -10.204194      -277.6702 
  24   2.0000     -10.203726      -277.6575 
  25   2.0000     -10.202545      -277.6254 
  26   2.0000     -10.201777      -277.6045 
  27   2.0000     -10.199356      -277.5386 
  28   2.0000     -10.190601      -277.3004 
  29   2.0000     -10.187126      -277.2058 
  30   2.0000     -10.179194      -276.9900 
  31   2.0000     -10.175029      -276.8766 
  32   2.0000     -10.167253      -276.6650 
  33   2.0000     -10.166363      -276.6408 
  34   2.0000     -10.162969      -276.5485 
  35   2.0000     -10.161673      -276.5132 
  36   2.0000     -10.159396      -276.4512 
  37   2.0000      -8.131599      -221.2721 
  38   2.0000      -6.096458      -165.8930 
  39   2.0000      -6.094804      -165.8480 
  40   2.0000      -6.094072      -165.8281 
  41   2.0000      -1.085696       -29.5433 
  42   2.0000      -1.081136       -29.4192 
  43   2.0000      -0.999717       -27.2037 
  44   2.0000      -0.964827       -26.2543 
  45   2.0000      -0.957892       -26.0656 
  46   2.0000      -0.914922       -24.8963 
  47   2.0000      -0.911164       -24.7940 
  48   2.0000      -0.894443       -24.3390 
  49   2.0000      -0.869784       -23.6680 
  50   2.0000      -0.829454       -22.5706 
  51   2.0000      -0.815103       -22.1801 
  52   2.0000      -0.811428       -22.0801 
  53   2.0000      -0.796151       -21.6644 
  54   2.0000      -0.780643       -21.2424 
  55   2.0000      -0.779891       -21.2219 
  56   2.0000      -0.749988       -20.4082 
  57   2.0000      -0.748734       -20.3741 
  58   2.0000      -0.731416       -19.9028 
  59   2.0000      -0.725132       -19.7318 
  60   2.0000      -0.715704       -19.4753 
  61   2.0000      -0.704663       -19.1748 
  62   2.0000      -0.681605       -18.5474 
  63   2.0000      -0.655367       -17.8334 
  64   2.0000      -0.650553       -17.7024 
  65   2.0000      -0.642254       -17.4766 
  66   2.0000      -0.634210       -17.2577 
  67   2.0000      -0.629096       -17.1186 
  68   2.0000      -0.614113       -16.7109 
  69   2.0000      -0.602172       -16.3859 
  70   2.0000      -0.593552       -16.1514 
  71   2.0000      -0.582721       -15.8566 
  72   2.0000      -0.571887       -15.5618 
  73   2.0000      -0.565047       -15.3757 
  74   2.0000      -0.546001       -14.8574 
  75   2.0000      -0.538468       -14.6525 
  76   2.0000      -0.521944       -14.2028 
  77   2.0000      -0.514003       -13.9867 
  78   2.0000      -0.510417       -13.8892 
  79   2.0000      -0.506451       -13.7812 
  80   2.0000      -0.493632       -13.4324 
  81   2.0000      -0.489672       -13.3247 
  82   2.0000      -0.478515       -13.0211 
  83   2.0000      -0.477527       -12.9942 
  84   2.0000      -0.472003       -12.8439 
  85   2.0000      -0.469525       -12.7764 
  86   2.0000      -0.464504       -12.6398 
  87   2.0000      -0.456747       -12.4287 
  88   2.0000      -0.454038       -12.3550 
  89   2.0000      -0.452148       -12.3036 
  90   2.0000      -0.447875       -12.1873 
  91   2.0000      -0.444174       -12.0866 
  92   2.0000      -0.439539       -11.9605 
  93   2.0000      -0.436734       -11.8841 
  94   2.0000      -0.434969       -11.8361 
  95   2.0000      -0.426760       -11.6127 
  96   2.0000      -0.421042       -11.4571 
  97   2.0000      -0.417451       -11.3594 
  98   2.0000      -0.413652       -11.2560 
  99   2.0000      -0.409112       -11.1325 
 100   2.0000      -0.407461       -11.0876 
 101   2.0000      -0.404597       -11.0096 
 102   2.0000      -0.402690       -10.9577 
 103   2.0000      -0.400557       -10.8997 
 104   2.0000      -0.391881       -10.6636 
 105   2.0000      -0.391002       -10.6397 
 106   2.0000      -0.389165       -10.5897 
 107   2.0000      -0.380568       -10.3558 
 108   2.0000      -0.375898       -10.2287 
 109   2.0000      -0.372910       -10.1474 
 110   2.0000      -0.372326       -10.1315 
 111   2.0000      -0.359728        -9.7887 
 112   2.0000      -0.357379        -9.7248 
 113   2.0000      -0.355339        -9.6693 
 114   2.0000      -0.346514        -9.4291 
 115   2.0000      -0.339628        -9.2417 
 116   2.0000      -0.331690        -9.0257 
 117   2.0000      -0.327728        -8.9179 
 118   2.0000      -0.325432        -8.8555 
 119   2.0000      -0.321616        -8.7516 
 120   2.0000      -0.318865        -8.6768 
 121   2.0000      -0.309529        -8.4227 
 122   2.0000      -0.305407        -8.3105 
 123   2.0000      -0.299742        -8.1564 
 124   2.0000      -0.294891        -8.0244 
 125   2.0000      -0.286942        -7.8081 
 126   2.0000      -0.282453        -7.6859 
 127   2.0000      -0.279339        -7.6012 
 128   2.0000      -0.277634        -7.5548 
 129   2.0000      -0.267831        -7.2881 
 130   2.0000      -0.255620        -6.9558 
 131   2.0000      -0.250085        -6.8052 
 132   2.0000      -0.242660        -6.6031 
 133   2.0000      -0.231776        -6.3070 
 134   2.0000      -0.227518        -6.1911 
 135   2.0000      -0.174112        -4.7378 
 136   0.0000      -0.088497        -2.4081 
 137   0.0000      -0.067140        -1.8270 
 138   0.0000      -0.038930        -1.0593 
 139   0.0000      -0.033428        -0.9096 
 140   0.0000       0.003729         0.1015 
 141   0.0000       0.013720         0.3733 
 142   0.0000       0.015940         0.4338 
 143   0.0000       0.025630         0.6974 
 144   0.0000       0.035224         0.9585 
 145   0.0000       0.041911         1.1405 
 146   0.0000       0.055978         1.5232 
*Only the first 10 virtual orbitals were printed.

                    ********************************
                    * MULLIKEN POPULATION ANALYSIS *
                    ********************************

-----------------------
MULLIKEN ATOMIC CHARGES
-----------------------
   0 C :   -0.550147
   1 C :    0.103907
   2 C :    0.265252
   3 N :   -0.608465
   4 C :   -0.155257
   5 C :   -0.063092
   6 C :   -0.290145
   7 C :   -0.119891
   8 N :   -0.471884
   9 C :    0.293251
  10 C :   -0.175280
  11 C :   -0.133223
  12 C :   -0.132855
  13 C :   -0.133510
  14 C :   -0.176553
  15 C :   -0.115885
  16 C :   -0.304804
  17 S :    1.210229
  18 O :   -0.525162
  19 O :   -0.561039
  20 C :   -0.140777
  21 C :   -0.142114
  22 C :   -0.150108
  23 C :    0.082246
  24 C :    0.527687
  25 O :   -0.442536
  26 O :   -0.623057
  27 C :   -0.141920
  28 C :   -0.138494
  29 N :   -0.362515
  30 C :   -0.059738
  31 C :    0.135199
  32 C :   -0.201938
  33 C :   -0.126447
  34 C :   -0.119499
  35 C :   -0.198833
  36 C :    0.121466
  37 H :    0.163692
  38 H :    0.162963
  39 H :    0.181440
  40 H :    0.189805
  41 H :    0.174969
  42 H :    0.122760
  43 H :    0.134962
  44 H :    0.145554
  45 H :    0.119796
  46 H :    0.148279
  47 H :    0.129372
  48 H :    0.123477
  49 H :    0.115242
  50 H :    0.120560
  51 H :    0.120913
  52 H :    0.139951
  53 H :    0.147455
  54 H :    0.131497
  55 H :    0.162719
  56 H :    0.186021
  57 H :    0.174054
  58 H :    0.435039
  59 H :    0.182852
  60 H :    0.193865
  61 H :    0.156914
  62 H :    0.142713
  63 H :    0.139161
  64 H :    0.140329
  65 H :    0.139576
Sum of atomic charges:    0.0000000

--------------------------------
MULLIKEN REDUCED ORBITAL CHARGES
--------------------------------
  0 C s       :     3.321041  s :     3.321041
      pz      :     1.040115  p :     3.194804
      px      :     1.085711
      py      :     1.068978
      dz2     :     0.005956  d :     0.034302
      dxz     :     0.005672
      dyz     :     0.010091
      dx2y2   :     0.002377
      dxy     :     0.010206

  1 C s       :     3.185353  s :     3.185353
      pz      :     0.838804  p :     2.670923
      px      :     0.916256
      py      :     0.915864
      dz2     :     0.010047  d :     0.039816
      dxz     :     0.009643
      dyz     :     0.008270
      dx2y2   :     0.005614
      dxy     :     0.006243

  2 C s       :     3.063363  s :     3.063363
      pz      :     0.876781  p :     2.597344
      px      :     0.854865
      py      :     0.865697
      dz2     :     0.019154  d :     0.074041
      dxz     :     0.018068
      dyz     :     0.017453
      dx2y2   :     0.007139
      dxy     :     0.012227

  3 N s       :     3.606819  s :     3.606819
      pz      :     1.722545  p :     3.967898
      px      :     1.153035
      py      :     1.092318
      dz2     :     0.003459  d :     0.033748
      dxz     :     0.005029
      dyz     :     0.004147
      dx2y2   :     0.011178
      dxy     :     0.009935

  4 C s       :     3.236932  s :     3.236932
      pz      :     0.997599  p :     2.864784
      px      :     0.802249
      py      :     1.064937
      dz2     :     0.006612  d :     0.053540
      dxz     :     0.013047
      dyz     :     0.013236
      dx2y2   :     0.010588
      dxy     :     0.010058

  5 C s       :     3.210963  s :     3.210963
      pz      :     0.924808  p :     2.809291
      px      :     0.942950
      py      :     0.941534
      dz2     :     0.006219  d :     0.042838
      dxz     :     0.010007
      dyz     :     0.010413
      dx2y2   :     0.005800
      dxy     :     0.010400

  6 C s       :     3.262947  s :     3.262947
      pz      :     1.019935  p :     2.988501
      px      :     0.945705
      py      :     1.022861
      dz2     :     0.011197  d :     0.038697
      dxz     :     0.008202
      dyz     :     0.002316
      dx2y2   :     0.010384
      dxy     :     0.006597

  7 C s       :     3.209367  s :     3.209367
      pz      :     1.016896  p :     2.855016
      px      :     1.011118
      py      :     0.827003
      dz2     :     0.012694  d :     0.055508
      dxz     :     0.007319
      dyz     :     0.013209
      dx2y2   :     0.011677
      dxy     :     0.010608

  8 N s       :     3.550743  s :     3.550743
      pz      :     1.746605  p :     3.887351
      px      :     1.095220
      py      :     1.045525
      dz2     :     0.003246  d :     0.033790
      dxz     :     0.004483
      dyz     :     0.004285
      dx2y2   :     0.010924
      dxy     :     0.010852

  9 C s       :     3.083403  s :     3.083403
      pz      :     0.892262  p :     2.567143
      px      :     0.764664
      py      :     0.910217
      dz2     :     0.007942  d :     0.056203
      dxz     :     0.016314
      dyz     :     0.006861
      dx2y2   :     0.012962
      dxy     :     0.012124

 10 C s       :     3.187936  s :     3.187936
      pz      :     0.987796  p :     2.952773
      px      :     0.960276
      py      :     1.004700
      dz2     :     0.003527  d :     0.034571
      dxz     :     0.008430
      dyz     :     0.005712
      dx2y2   :     0.007828
      dxy     :     0.009075

 11 C s       :     3.191841  s :     3.191841
      pz      :     0.979642  p :     2.904561
      px      :     0.945392
      py      :     0.979528
      dz2     :     0.004252  d :     0.036821
      dxz     :     0.007716
      dyz     :     0.006411
      dx2y2   :     0.009175
      dxy     :     0.009267

 12 C s       :     3.176846  s :     3.176846
      pz      :     0.988719  p :     2.920149
      px      :     0.964878
      py      :     0.966552
      dz2     :     0.006874  d :     0.035861
      dxz     :     0.005147
      dyz     :     0.005487
      dx2y2   :     0.009702
      dxy     :     0.008651

 13 C s       :     3.191792  s :     3.191792
      pz      :     0.985169  p :     2.904960
      px      :     0.960242
      py      :     0.959548
      dz2     :     0.003840  d :     0.036758
      dxz     :     0.008803
      dyz     :     0.005757
      dx2y2   :     0.008620
      dxy     :     0.009739

 14 C s       :     3.186541  s :     3.186541
      pz      :     0.985431  p :     2.955370
      px      :     0.963954
      py      :     1.005985
      dz2     :     0.003936  d :     0.034642
      dxz     :     0.007730
      dyz     :     0.006109
      dx2y2   :     0.008302
      dxy     :     0.008565

 15 C s       :     3.207074  s :     3.207074
      pz      :     1.061098  p :     2.853836
      px      :     0.861958
      py      :     0.930780
      dz2     :     0.010129  d :     0.054975
      dxz     :     0.007614
      dyz     :     0.015282
      dx2y2   :     0.008044
      dxy     :     0.013906

 16 C s       :     3.265632  s :     3.265632
      pz      :     1.012714  p :     3.000240
      px      :     1.000692
      py      :     0.986834
      dz2     :     0.011963  d :     0.038932
      dxz     :     0.003352
      dyz     :     0.007052
      dx2y2   :     0.004942
      dxy     :     0.011624

 17 S s       :     5.215429  s :     5.215429
      pz      :     3.016155  p :     9.042790
      px      :     3.023990
      py      :     3.002645
      dz2     :     0.116302  d :     0.531552
      dxz     :     0.131952
      dyz     :     0.097411
      dx2y2   :     0.107592
      dxy     :     0.078294

 18 O s       :     3.922899  s :     3.922899
      pz      :     1.220105  p :     4.575568
      px      :     1.674459
      py      :     1.681005
      dz2     :     0.010280  d :     0.026695
      dxz     :     0.007776
      dyz     :     0.007536
      dx2y2   :     0.000595
      dxy     :     0.000509

 19 O s       :     3.928978  s :     3.928978
      pz      :     1.716988  p :     4.605439
      px      :     1.410685
      py      :     1.477766
      dz2     :     0.002911  d :     0.026622
      dxz     :     0.004608
      dyz     :     0.003229
      dx2y2   :     0.007819
      dxy     :     0.008056

 20 C s       :     3.227369  s :     3.227369
      pz      :     0.957050  p :     2.874951
      px      :     0.898348
      py      :     1.019553
      dz2     :     0.007496  d :     0.038456
      dxz     :     0.011882
      dyz     :     0.004862
      dx2y2   :     0.006687
      dxy     :     0.007530

 21 C s       :     3.209071  s :     3.209071
      pz      :     0.920945  p :     2.897049
      px      :     1.031046
      py      :     0.945058
      dz2     :     0.008778  d :     0.035994
      dxz     :     0.008709
      dyz     :     0.005643
      dx2y2   :     0.007917
      dxy     :     0.004947

 22 C s       :     3.212263  s :     3.212263
      pz      :     0.980675  p :     2.902205
      px      :     0.951966
      py      :     0.969564
      dz2     :     0.006998  d :     0.035640
      dxz     :     0.009256
      dyz     :     0.005706
      dx2y2   :     0.006673
      dxy     :     0.007007

 23 C s       :     3.167230  s :     3.167230
      pz      :     0.900387  p :     2.712001
      px      :     0.845092
      py      :     0.966522
      dz2     :     0.007360  d :     0.038523
      dxz     :     0.012153
      dyz     :     0.004925
      dx2y2   :     0.006945
      dxy     :     0.007140

 24 C s       :     2.996849  s :     2.996849
      pz      :     0.735232  p :     2.365311
      px      :     0.850747
      py      :     0.779333
      dz2     :     0.024809  d :     0.110153
      dxz     :     0.031175
      dyz     :     0.015108
      dx2y2   :     0.019697
      dxy     :     0.019363

 25 O s       :     3.878769  s :     3.878769
      pz      :     1.674310  p :     4.538125
      px      :     1.390073
      py      :     1.473742
      dz2     :     0.003023  d :     0.025642
      dxz     :     0.006959
      dyz     :     0.000779
      dx2y2   :     0.006778
      dxy     :     0.008102

 26 O s       :     3.872516  s :     3.872516
      pz      :     1.399361  p :     4.729597
      px      :     1.628941
      py      :     1.701296
      dz2     :     0.003046  d :     0.020944
      dxz     :     0.007689
      dyz     :     0.003357
      dx2y2   :     0.004068
      dxy     :     0.002785

 27 C s       :     3.215585  s :     3.215585
      pz      :     0.952569  p :     2.890784
      px      :     0.986030
      py      :     0.952185
      dz2     :     0.008478  d :     0.035551
      dxz     :     0.008879
      dyz     :     0.005411
      dx2y2   :     0.007360
      dxy     :     0.005423

 28 C s       :     3.208197  s :     3.208197
      pz      :     1.009951  p :     2.894261
      px      :     0.910627
      py      :     0.973683
      dz2     :     0.006970  d :     0.036036
      dxz     :     0.009042
      dyz     :     0.006075
      dx2y2   :     0.006888
      dxy     :     0.007062

 29 N s       :     3.684550  s :     3.684550
      pz      :     1.405505  p :     3.642739
      px      :     1.177825
      py      :     1.059409
      dz2     :     0.008684  d :     0.035226
      dxz     :     0.006248
      dyz     :     0.007369
      dx2y2   :     0.006958
      dxy     :     0.005968

 30 C s       :     3.167616  s :     3.167616
      pz      :     0.982159  p :     2.838104
      px      :     0.926613
      py      :     0.929332
      dz2     :     0.010943  d :     0.054018
      dxz     :     0.013447
      dyz     :     0.012042
      dx2y2   :     0.008702
      dxy     :     0.008884

 31 C s       :     3.139532  s :     3.139532
      pz      :     0.855105  p :     2.683412
      px      :     0.903337
      py      :     0.924970
      dz2     :     0.010060  d :     0.041856
      dxz     :     0.010376
      dyz     :     0.008501
      dx2y2   :     0.006835
      dxy     :     0.006084

 32 C s       :     3.211608  s :     3.211608
      pz      :     0.980203  p :     2.954090
      px      :     0.985042
      py      :     0.988845
      dz2     :     0.009070  d :     0.036240
      dxz     :     0.008071
      dyz     :     0.008168
      dx2y2   :     0.005226
      dxy     :     0.005705

 33 C s       :     3.194580  s :     3.194580
      pz      :     0.934294  p :     2.895485
      px      :     0.985061
      py      :     0.976130
      dz2     :     0.010805  d :     0.036382
      dxz     :     0.008275
      dyz     :     0.007317
      dx2y2   :     0.002788
      dxy     :     0.007198

 34 C s       :     3.197017  s :     3.197017
      pz      :     0.960986  p :     2.885935
      px      :     0.966971
      py      :     0.957978
      dz2     :     0.008812  d :     0.036547
      dxz     :     0.010832
      dyz     :     0.006313
      dx2y2   :     0.005636
      dxy     :     0.004953

 35 C s       :     3.209384  s :     3.209384
      pz      :     0.995985  p :     2.953910
      px      :     0.974617
      py      :     0.983308
      dz2     :     0.009077  d :     0.035538
      dxz     :     0.008273
      dyz     :     0.007824
      dx2y2   :     0.005379
      dxy     :     0.004985

 36 C s       :     3.136945  s :     3.136945
      pz      :     0.858045  p :     2.700183
      px      :     0.911365
      py      :     0.930773
      dz2     :     0.010100  d :     0.041406
      dxz     :     0.009892
      dyz     :     0.008872
      dx2y2   :     0.006385
      dxy     :     0.006157

 37 H s       :     0.836308  s :     0.836308

 38 H s       :     0.837037  s :     0.837037

 39 H s       :     0.818560  s :     0.818560

 40 H s       :     0.810195  s :     0.810195

 41 H s       :     0.825031  s :     0.825031

 42 H s       :     0.877240  s :     0.877240

 43 H s       :     0.865038  s :     0.865038

 44 H s       :     0.854446  s :     0.854446

 45 H s       :     0.880204  s :     0.880204

 46 H s       :     0.851721  s :     0.851721

 47 H s       :     0.870628  s :     0.870628

 48 H s       :     0.876523  s :     0.876523

 49 H s       :     0.884758  s :     0.884758

 50 H s       :     0.879440  s :     0.879440

 51 H s       :     0.879087  s :     0.879087

 52 H s       :     0.860049  s :     0.860049

 53 H s       :     0.852545  s :     0.852545

 54 H s       :     0.868503  s :     0.868503

 55 H s       :     0.837281  s :     0.837281

 56 H s       :     0.813979  s :     0.813979

 57 H s       :     0.825946  s :     0.825946

 58 H s       :     0.564961  s :     0.564961

 59 H s       :     0.817148  s :     0.817148

 60 H s       :     0.806135  s :     0.806135

 61 H s       :     0.843086  s :     0.843086

 62 H s       :     0.857287  s :     0.857287

 63 H s       :     0.860839  s :     0.860839

 64 H s       :     0.859671  s :     0.859671

 65 H s       :     0.860424  s :     0.860424



                     *******************************
                     * LOEWDIN POPULATION ANALYSIS *
                     *******************************

----------------------
LOEWDIN ATOMIC CHARGES
----------------------
   0 C :   -0.364240
   1 C :   -0.014626
   2 C :    0.016084
   3 N :   -0.283303
   4 C :   -0.147212
   5 C :   -0.129356
   6 C :   -0.231785
   7 C :   -0.147722
   8 N :   -0.143028
   9 C :    0.037753
  10 C :   -0.157413
  11 C :   -0.125829
  12 C :   -0.154667
  13 C :   -0.127380
  14 C :   -0.162102
  15 C :   -0.145887
  16 C :   -0.236995
  17 S :    1.258709
  18 O :   -0.568101
  19 O :   -0.581745
  20 C :   -0.171752
  21 C :   -0.099922
  22 C :   -0.102924
  23 C :   -0.038416
  24 C :    0.179535
  25 O :   -0.259051
  26 O :   -0.334055
  27 C :   -0.087500
  28 C :   -0.096653
  29 N :   -0.120782
  30 C :   -0.059128
  31 C :   -0.030149
  32 C :   -0.110923
  33 C :   -0.124573
  34 C :   -0.115589
  35 C :   -0.123764
  36 C :   -0.008859
  37 H :    0.137501
  38 H :    0.137437
  39 H :    0.141820
  40 H :    0.148649
  41 H :    0.136958
  42 H :    0.117392
  43 H :    0.124232
  44 H :    0.124574
  45 H :    0.100234
  46 H :    0.130197
  47 H :    0.133643
  48 H :    0.129392
  49 H :    0.125664
  50 H :    0.128035
  51 H :    0.129342
  52 H :    0.122206
  53 H :    0.112568
  54 H :    0.118018
  55 H :    0.132643
  56 H :    0.159761
  57 H :    0.155257
  58 H :    0.350386
  59 H :    0.161467
  60 H :    0.164108
  61 H :    0.139237
  62 H :    0.138738
  63 H :    0.136931
  64 H :    0.137838
  65 H :    0.139123

-------------------------------
LOEWDIN REDUCED ORBITAL CHARGES
-------------------------------
  0 C s       :     2.972372  s :     2.972372
      pz      :     1.078071  p :     3.325083
      px      :     1.129803
      py      :     1.117208
      dz2     :     0.012340  d :     0.066785
      dxz     :     0.011334
      dyz     :     0.020098
      dx2y2   :     0.003902
      dxy     :     0.019111

  1 C s       :     2.889711  s :     2.889711
      pz      :     1.032498  p :     3.027132
      px      :     1.008587
      py      :     0.986047
      dz2     :     0.026381  d :     0.097783
      dxz     :     0.025011
      dyz     :     0.020009
      dx2y2   :     0.012059
      dxy     :     0.014322

  2 C s       :     2.849319  s :     2.849319
      pz      :     1.032555  p :     2.957267
      px      :     0.961533
      py      :     0.963179
      dz2     :     0.048793  d :     0.177331
      dxz     :     0.042490
      dyz     :     0.041097
      dx2y2   :     0.014811
      dxy     :     0.030138

  3 N s       :     3.180522  s :     3.180522
      pz      :     1.682070  p :     4.018101
      px      :     1.176812
      py      :     1.159219
      dz2     :     0.006727  d :     0.084679
      dxz     :     0.010197
      dyz     :     0.010272
      dx2y2   :     0.030697
      dxy     :     0.026786

  4 C s       :     2.935511  s :     2.935511
      pz      :     1.078959  p :     3.097559
      px      :     0.915851
      py      :     1.102750
      dz2     :     0.014211  d :     0.114142
      dxz     :     0.030042
      dyz     :     0.025881
      dx2y2   :     0.022420
      dxy     :     0.021588

  5 C s       :     2.912560  s :     2.912560
      pz      :     1.042759  p :     3.121396
      px      :     1.034094
      py      :     1.044543
[...]
      pz      :     1.071957  p :     3.109991
      px      :     1.028146
      py      :     1.009889
      dz2     :     0.021097  d :     0.084499
      dxz     :     0.021174
      dyz     :     0.017277
      dx2y2   :     0.011623
      dxy     :     0.013328

 33 C s       :     2.917387  s :     2.917387
      pz      :     1.066529  p :     3.121424
      px      :     1.040311
      py      :     1.014584
      dz2     :     0.028154  d :     0.085762
      dxz     :     0.021483
      dyz     :     0.018186
      dx2y2   :     0.005121
      dxy     :     0.012818

 34 C s       :     2.918568  s :     2.918568
      pz      :     1.069414  p :     3.111142
      px      :     1.034734
      py      :     1.006994
      dz2     :     0.020890  d :     0.085879
      dxz     :     0.024215
      dyz     :     0.015676
      dx2y2   :     0.012220
      dxy     :     0.012878

 35 C s       :     2.917113  s :     2.917113
      pz      :     1.064228  p :     3.124193
      px      :     1.036391
      py      :     1.023574
      dz2     :     0.020926  d :     0.082459
      dxz     :     0.020350
      dyz     :     0.016619
      dx2y2   :     0.011569
      dxy     :     0.012995

 36 C s       :     2.856029  s :     2.856029
      pz      :     1.042651  p :     3.046726
      px      :     1.009611
      py      :     0.994464
      dz2     :     0.028005  d :     0.106104
      dxz     :     0.026460
      dyz     :     0.022207
      dx2y2   :     0.013807
      dxy     :     0.015626

 37 H s       :     0.862499  s :     0.862499

 38 H s       :     0.862563  s :     0.862563

 39 H s       :     0.858180  s :     0.858180

 40 H s       :     0.851351  s :     0.851351

 41 H s       :     0.863042  s :     0.863042

 42 H s       :     0.882608  s :     0.882608

 43 H s       :     0.875768  s :     0.875768

 44 H s       :     0.875426  s :     0.875426

 45 H s       :     0.899766  s :     0.899766

 46 H s       :     0.869803  s :     0.869803

 47 H s       :     0.866357  s :     0.866357

 48 H s       :     0.870608  s :     0.870608

 49 H s       :     0.874336  s :     0.874336

 50 H s       :     0.871965  s :     0.871965

 51 H s       :     0.870658  s :     0.870658

 52 H s       :     0.877794  s :     0.877794

 53 H s       :     0.887432  s :     0.887432

 54 H s       :     0.881982  s :     0.881982

 55 H s       :     0.867357  s :     0.867357

 56 H s       :     0.840239  s :     0.840239

 57 H s       :     0.844743  s :     0.844743

 58 H s       :     0.649614  s :     0.649614

 59 H s       :     0.838533  s :     0.838533

 60 H s       :     0.835892  s :     0.835892

 61 H s       :     0.860763  s :     0.860763

 62 H s       :     0.861262  s :     0.861262

 63 H s       :     0.863069  s :     0.863069

 64 H s       :     0.862162  s :     0.862162

 65 H s       :     0.860877  s :     0.860877



                      *****************************
                      * MAYER POPULATION ANALYSIS *
                      *****************************

  NA   - Mulliken gross atomic population
  ZA   - Total nuclear charge
  QA   - Mulliken gross atomic charge
  VA   - Mayer's total valence
  BVA  - Mayer's bonded valence
  FA   - Mayer's free valence

  ATOM       NA         ZA         QA         VA         BVA        FA
  0 C      6.5501     6.0000    -0.5501     3.8218     3.8218     0.0000
  1 C      5.8961     6.0000     0.1039     3.8585     3.8585     0.0000
  2 C      5.7347     6.0000     0.2653     3.8804     3.8804    -0.0000
  3 N      7.6085     7.0000    -0.6085     2.7955     2.7955     0.0000
  4 C      6.1553     6.0000    -0.1553     3.7901     3.7901    -0.0000
  5 C      6.0631     6.0000    -0.0631     3.8519     3.8519     0.0000
  6 C      6.2901     6.0000    -0.2901     3.8527     3.8527    -0.0000
  7 C      6.1199     6.0000    -0.1199     3.8690     3.8690     0.0000
  8 N      7.4719     7.0000    -0.4719     2.9957     2.9957    -0.0000
  9 C      5.7067     6.0000     0.2933     3.9423     3.9423     0.0000
 10 C      6.1753     6.0000    -0.1753     3.9035     3.9035    -0.0000
 11 C      6.1332     6.0000    -0.1332     3.9575     3.9575     0.0000
 12 C      6.1329     6.0000    -0.1329     3.9440     3.9440    -0.0000
 13 C      6.1335     6.0000    -0.1335     3.9561     3.9561    -0.0000
 14 C      6.1766     6.0000    -0.1766     3.9025     3.9025    -0.0000
 15 C      6.1159     6.0000    -0.1159     3.8437     3.8437    -0.0000
 16 C      6.3048     6.0000    -0.3048     3.8673     3.8673     0.0000
 17 S     14.7898    16.0000     1.2102     5.0639     5.0639     0.0000
 18 O      8.5252     8.0000    -0.5252     1.9219     1.9219     0.0000
 19 O      8.5610     8.0000    -0.5610     1.8602     1.8602    -0.0000
 20 C      6.1408     6.0000    -0.1408     3.8427     3.8427    -0.0000
 21 C      6.1421     6.0000    -0.1421     3.9211     3.9211     0.0000
 22 C      6.1501     6.0000    -0.1501     3.8657     3.8657    -0.0000
 23 C      5.9178     6.0000     0.0822     3.9240     3.9240     0.0000
 24 C      5.4723     6.0000     0.5277     3.9537     3.9537     0.0000
 25 O      8.4425     8.0000    -0.4425     2.0682     2.0682    -0.0000
 26 O      8.6231     8.0000    -0.6231     1.8698     1.8698     0.0000
 27 C      6.1419     6.0000    -0.1419     3.8937     3.8937     0.0000
 28 C      6.1385     6.0000    -0.1385     3.9082     3.9082    -0.0000
 29 N      7.3625     7.0000    -0.3625     2.9653     2.9653     0.0000
 30 C      6.0597     6.0000    -0.0597     3.8600     3.8600     0.0000
 31 C      5.8648     6.0000     0.1352     3.9523     3.9523     0.0000
 32 C      6.2019     6.0000    -0.2019     3.8989     3.8989     0.0000
 33 C      6.1264     6.0000    -0.1264     3.9266     3.9266     0.0000
 34 C      6.1195     6.0000    -0.1195     3.9257     3.9257    -0.0000
 35 C      6.1988     6.0000    -0.1988     3.8743     3.8743     0.0000
 36 C      5.8785     6.0000     0.1215     3.9928     3.9928     0.0000
 37 H      0.8363     1.0000     0.1637     0.9335     0.9335     0.0000
 38 H      0.8370     1.0000     0.1630     0.9301     0.9301     0.0000
 39 H      0.8186     1.0000     0.1814     0.9412     0.9412     0.0000
 40 H      0.8102     1.0000     0.1898     0.9359     0.9359    -0.0000
 41 H      0.8250     1.0000     0.1750     0.9338     0.9338    -0.0000
 42 H      0.8772     1.0000     0.1228     0.9375     0.9375    -0.0000
 43 H      0.8650     1.0000     0.1350     0.9354     0.9354     0.0000
 44 H      0.8544     1.0000     0.1456     0.9355     0.9355     0.0000
 45 H      0.8802     1.0000     0.1198     0.9241     0.9241     0.0000
 46 H      0.8517     1.0000     0.1483     0.9381     0.9381     0.0000
 47 H      0.8706     1.0000     0.1294     0.9401     0.9401     0.0000
 48 H      0.8765     1.0000     0.1235     0.9377     0.9377     0.0000
 49 H      0.8848     1.0000     0.1152     0.9389     0.9389    -0.0000
 50 H      0.8794     1.0000     0.1206     0.9380     0.9380     0.0000
 51 H      0.8791     1.0000     0.1209     0.9405     0.9405     0.0000
 52 H      0.8600     1.0000     0.1400     0.9341     0.9341     0.0000
 53 H      0.8525     1.0000     0.1475     0.9246     0.9246     0.0000
 54 H      0.8685     1.0000     0.1315     0.9319     0.9319    -0.0000
 55 H      0.8373     1.0000     0.1627     0.9445     0.9445     0.0000
 56 H      0.8140     1.0000     0.1860     0.9363     0.9363     0.0000
 57 H      0.8259     1.0000     0.1741     0.9359     0.9359    -0.0000
 58 H      0.5650     1.0000     0.4350     0.7947     0.7947     0.0000
 59 H      0.8171     1.0000     0.1829     0.9380     0.9380     0.0000
 60 H      0.8061     1.0000     0.1939     0.9338     0.9338     0.0000
 61 H      0.8431     1.0000     0.1569     0.9331     0.9331     0.0000
 62 H      0.8573     1.0000     0.1427     0.9364     0.9364    -0.0000
 63 H      0.8608     1.0000     0.1392     0.9362     0.9362     0.0000
 64 H      0.8597     1.0000     0.1403     0.9360     0.9360    -0.0000
 65 H      0.8604     1.0000     0.1396     0.9421     0.9421    -0.0000

  Mayer bond orders larger than 0.100000
B(  0-C ,  1-C ) :   1.0015 B(  0-C , 37-H ) :   0.9226 B(  0-C , 38-H ) :   0.9270 
B(  0-C , 39-H ) :   0.9195 B(  1-C ,  2-C ) :   1.4289 B(  1-C , 36-C ) :   1.2586 
B(  2-C ,  3-N ) :   0.9097 B(  2-C , 29-N ) :   1.2851 B(  3-N ,  4-C ) :   0.9010 
B(  3-N , 17-S ) :   0.8180 B(  4-C ,  5-C ) :   0.9729 B(  4-C , 40-H ) :   0.9107 
B(  4-C , 41-H ) :   0.9201 B(  5-C ,  6-C ) :   0.9787 B(  5-C , 16-C ) :   1.0022 
B(  5-C , 42-H ) :   0.9333 B(  6-C ,  7-C ) :   0.9995 B(  6-C , 43-H ) :   0.9359 
B(  6-C , 44-H ) :   0.9328 B(  7-C ,  8-N ) :   0.9762 B(  7-C , 45-H ) :   0.9231 
B(  7-C , 46-H ) :   0.9292 B(  8-N ,  9-C ) :   0.9860 B(  8-N , 15-C ) :   0.9526 
B(  9-C , 10-C ) :   1.3911 B(  9-C , 14-C ) :   1.3911 B( 10-C , 11-C ) :   1.4489 
B( 10-C , 47-H ) :   0.9210 B( 11-C , 12-C ) :   1.4480 B( 11-C , 48-H ) :   0.9303 
B( 12-C , 13-C ) :   1.4486 B( 12-C , 49-H ) :   0.9320 B( 13-C , 14-C ) :   1.4462 
B( 13-C , 50-H ) :   0.9307 B( 14-C , 51-H ) :   0.9223 B( 15-C , 16-C ) :   1.0066 
B( 15-C , 52-H ) :   0.9281 B( 15-C , 53-H ) :   0.9168 B( 16-C , 54-H ) :   0.9354 
B( 16-C , 55-H ) :   0.9124 B( 17-S , 18-O ) :   1.6837 B( 17-S , 19-O ) :   1.5686 
B( 17-S , 20-C ) :   0.8119 B( 20-C , 21-C ) :   1.3978 B( 20-C , 28-C ) :   1.3836 
B( 21-C , 22-C ) :   1.4130 B( 21-C , 56-H ) :   0.9090 B( 22-C , 23-C ) :   1.3823 
B( 22-C , 57-H ) :   0.9147 B( 23-C , 24-C ) :   1.0073 B( 23-C , 27-C ) :   1.3995 
B( 24-C , 25-O ) :   1.8636 B( 24-C , 26-O ) :   1.0264 B( 26-O , 58-H ) :   0.7413 
B( 27-C , 28-C ) :   1.4184 B( 27-C , 59-H ) :   0.9094 B( 28-C , 60-H ) :   0.9065 
B( 29-N , 30-C ) :   1.5003 B( 30-C , 31-C ) :   1.2319 B( 30-C , 61-H ) :   0.9257 
B( 31-C , 32-C ) :   1.2832 B( 31-C , 36-C ) :   1.2925 B( 32-C , 33-C ) :   1.5123 
B( 32-C , 35-C ) :   0.1059 B( 32-C , 62-H ) :   0.9227 B( 33-C , 34-C ) :   1.3535 
B( 33-C , 63-H ) :   0.9287 B( 34-C , 35-C ) :   1.5076 B( 34-C , 64-H ) :   0.9286 
B( 35-C , 36-C ) :   1.2964 B( 35-C , 65-H ) :   0.9162 

-------
TIMINGS
-------

Total SCF time: 0 days 0 hours 10 min 47 sec 

Total time                  ....     647.322 sec
Sum of individual times     ....     647.042 sec  (100.0%)

SCF preparation             ....       0.542 sec  (  0.1%)
Fock matrix formation       ....     643.214 sec  ( 99.4%)
  Startup                   ....       0.107 sec  (  0.0% of F)
  Split-RI-J                ....      90.386 sec  ( 14.1% of F)
  Chain of spheres X        ....     498.422 sec  ( 77.5% of F)
  XC integration            ....      53.370 sec  (  8.3% of F)
    XC Preparation          ....       0.000 sec  (  0.0% of XC)
    Basis function eval.    ....      20.718 sec  ( 38.8% of XC)
    Density eval.           ....      13.533 sec  ( 25.4% of XC)
    XC-Functional eval.     ....       2.320 sec  (  4.3% of XC)
    XC-Potential eval.      ....      14.565 sec  ( 27.3% of XC)
Diagonalization             ....       0.000 sec  (  0.0%)
Density matrix formation    ....       0.479 sec  (  0.1%)
Total Energy calculation    ....       0.089 sec  (  0.0%)
Population analysis         ....       0.129 sec  (  0.0%)
Orbital Transformation      ....       0.276 sec  (  0.0%)
Orbital Orthonormalization  ....       0.000 sec  (  0.0%)
DIIS solution               ....       1.408 sec  (  0.2%)
SOSCF solution              ....       0.905 sec  (  0.1%)
Finished LeanSCF after 647.5 sec

Maximum memory used throughout the entire LEANSCF-calculation: 108.0 MB

-------------------------   --------------------
FINAL SINGLE POINT ENERGY     -1984.747861233962
-------------------------   --------------------


------------------------------------------------------------------------------
                              ORCA PROPERTY CALCULATIONS
------------------------------------------------------------------------------

GBWName                                 ... /home/nmrbox/aojoawo/Documents/ERDOS/inputs/CHEMBL3682579.gbw
Number of atoms                         ...     66
Number of basis functions               ...    580
Max core memory                         ...   1024 MB

Electric properties:
Dipole moment                           ... YES
Quadrupole moment                       ...  NO
Static polarizability (Dipole/Dipole)   ...  NO
Static polarizability (Dipole/Quad.)    ...  NO
Static polarizability (Quad./Quad.)     ...  NO
Static polarizability (Velocity)        ...  NO

Atomic electric properties:
Dipole moment                           ...  NO
Quadrupole moment                       ...  NO
Static polarizability                   ...  NO

Choice of electric origin               ... Center of mass
Position of electric origin             ...    -0.901748     0.515141     0.394914

General magnetic properties:
Magnetizability                         ...  NO

EPR properties:
g-Tensor (aka g-matrix)                 ...  NO
Zero-Field splitting spin-orbit         ...  NO
Zero-field splitting spin-spin          ...  NO
Hyperfine couplings                     ...  NO (   0 nuclei)
Quadrupole couplings                    ...  NO (   0 nuclei)
Contact density                         ...  NO (   0 nuclei)

NMR properties:
Chemical shifts                         ...  NO (   0 nuclei)
Spin-rotation constants                 ...  NO (   0 nuclei)
Spin-spin couplings                     ...  NO (   0 nuclei,    0 pairs)

Choice of magnetic origin               ... GIAO
Position of magnetic origin             ...     0.000000     0.000000     0.000000

Properties with geometric perturbations:
SCF Hessian                             ...  NO
IR spectrum                             ...  NO
VCD spectrum                            ...  NO
X-ray spectroscopy properties:
SCF XES/XAS/RIXS spectra                ...  NO


-------------
DIPOLE MOMENT
-------------

Method             : SCF
Type of density    : Electron Density
Multiplicity       :   1
Irrep              :   0
Energy             : -1984.7478612339623396 Eh
Relativity type    : 
Basis              : AO
                                X                 Y                 Z
Electronic contribution:    -29.837739311      11.842847201       8.760139241
Nuclear contribution   :     28.096389746     -13.322642176     -11.125854494
                        -----------------------------------------
Total Dipole Moment    :     -1.741349564      -1.479794975      -2.365715253
                        -----------------------------------------
Magnitude (a.u.)       :      3.289179249
Magnitude (Debye)      :      8.360429237



--------------------
Rotational spectrum 
--------------------
 
Rotational constants in cm-1:             0.005087             0.001671             0.001449 
Rotational constants in MHz :           152.511643            50.098836            43.428112 

Dipole components along the rotational axes: 
x,y,z [a.u.] :    -1.814675    -0.859195    -2.605271 
x,y,z [Debye]:    -4.612538    -2.183900    -6.622073 

 

Dipole moment calculation done in   0.0 sec 

Maximum memory used throughout the entire PROP-calculation: 52.5 MB

--------------------------------
SUGGESTED CITATIONS FOR THIS RUN
--------------------------------

Below you find a list of papers that are relevant to this ORCA run
We neither can nor want to force you to cite these papers, but we appreciate if you do
You receive ORCA, which is the product of decades of hard work by many enthusiastic individuals, for free
The only thing we kindly ask in return is that you cite our papers,
We deeply appreciate it, if you show your appreciation for ORCA by not just citing the generic ORCA reference.

Please note that relegating all ORCA citations to the supporting information does *not* help us.
SI sections are not indexed - citations you put there will not count into any citation statistics
But we need these citations in order to attract the funding resources that allow us to do what we are doing

Therefore, if you are a happy ORCA user, please consider citing a few of the papers listed below in the main body of your paper

In addition to the list printed below, the program has created the file /home/nmrbox/aojoawo/Documents/ERDOS/inputs/CHEMBL3682579.bibtex that contains the list in bibtex format
You can import this file easily into all common literature databanks and citation aid programs


List of essential papers. We consider these as the minimum necessary citations

  1. Neese,F.
     Software update: the ORCA program system, version 5.0
     WIRES Comput. Molec. Sci., 2022 12(1)e1606
     doi.org/10.1002/wcms.1606

List of papers to cite with high priority. The work reported in these papers was absolutely
necessary for this run to complete.
Our perspective: the developers of density functionals and basis sets usually get cited in chemistry papers
Good! But without the algorithms to do something with them, the functionals or basis sets would not do anything.
Hence, in our opinion, the algorithm design and method developments papers are equally worthy of getting cited

  1. Neese,F.
     An improvement of the resolution of the identity approximation for the formation of the Coulomb matrix
     J. Comp. Chem., 2003 24(14)1740-1747
     doi.org/10.1002/jcc.10318
  2. Neese,F.; Wennmohs,F.; Hansen,A.; Becker,U.
     Efficient, approximate and parallel Hartree-Fock and hybrid DFT calculations. A 'chain-of-spheres' algorithm for the Hartree-Fock exchange
     Chem. Phys., 2009 356(1-3)98-109
     doi.org/10.1016/j.chemphys.2008.10.036
  3. Helmich-Paris,B.; de Souza,B.; Neese,F.; Izsák,R.
     An improved chain of spheres for exchange algorithm
     J. Chem. Phys., 2021 155 104109
     doi.org/doi: 10.1063/5.0058766.
  4. Neese,F.
     The SHARK Integral Generation and Digestion System
     J. Comp. Chem., 2022  1-16
     doi.org/10.1002/jcc.26942

List of suggested additional citations. These are papers that are important in the 'surrounding' of 
of this run, or papers that preceded the highly important papers. If you like your results we are grateful for a citation.

  1. Izsak,R.; Neese,F.
     An overlap fitted chain of spheres exchange method
     J. Chem. Phys., 2011 135 144105
     doi.org/10.1063/1.3646921
  2. Izsak,R.; Hansen,A.; Neese,F.
     The resolution of identity and chain of spheres approximations for the LPNO-CCSD singles Fock term
     Molec. Phys., 2012 110 2413-2417
     doi.org/10.1080/00268976.2012.687466
  3. Neese,F.
     The ORCA program system
     WIRES Comput. Molec. Sci., 2012 2(1)73-78
     doi.org/10.1002/wcms.81
  4. Izsak,R.; Neese,F.; Klopper,W.
     Robust fitting techniques in the chain of spheres approximation to the Fock exchange: The role of the complementary space
     J. Chem. Phys., 2013 139 
     doi.org/10.1063/1.4819264
  5. Neese,F.
     Software update: the ORCA program system, version 4.0
     WIRES Comput. Molec. Sci., 2018 8(1)1-6
     doi.org/10.1002/wcms.1327
  6. Neese,F.; Wennmohs,F.; Becker,U.; Riplinger,C.
     The ORCA quantum chemistry program package
     J. Chem. Phys., 2020 152 Art. No. L224108
     doi.org/10.1063/5.0004608

List of optional additional citations

  1. Neese,F.
     Approximate second-order SCF convergence for spin unrestricted wavefunctions
     Chem. Phys. Lett., 2000 325(1-3)93-98
     doi.org/10.1016/s0009-2614(00)00662-x

Timings for individual modules:

Sum of individual times          ...      672.415 sec (=  11.207 min)
Startup calculation              ...       15.963 sec (=   0.266 min)   2.4 %
SCF iterations                   ...      656.182 sec (=  10.936 min)  97.6 %
Property calculations            ...        0.269 sec (=   0.004 min)   0.0 %
                             ****ORCA TERMINATED NORMALLY****
TOTAL RUN TIME: 0 days 0 hours 11 minutes 13 seconds 114 msec
