
                                 *****************
                                 * O   R   C   A *
                                 *****************

                                            #,                                       
                                            ###                                      
                                            ####                                     
                                            #####                                    
                                            ######                                   
                                           ########,                                 
                                     ,,################,,,,,                         
                               ,,#################################,,                 
                          ,,##########################################,,             
                       ,#########################################, ''#####,          
                    ,#############################################,,   '####,        
                  ,##################################################,,,,####,       
                ,###########''''           ''''###############################       
              ,#####''   ,,,,##########,,,,          '''####'''          '####       
            ,##' ,,,,###########################,,,                        '##       
           ' ,,###''''                  '''############,,,                           
         ,,##''                                '''############,,,,        ,,,,,,###''
      ,#''                                            '''#######################'''  
     '                                                          ''''####''''         
             ,#######,   #######,   ,#######,      ##                                
            ,#'     '#,  ##    ##  ,#'     '#,    #''#        ,####,   ,####,        
            ##       ##  ##   ,#'  ##            #'  '#       #'       #'  '#        
            ##       ##  #######   ##           ,######,      #####,   #    #        
            '#,     ,#'  ##    ##  '#,     ,#' ,#      #,     #,   #   #,  ,#        
             '#######'   ##     ##  '#######'  #'      '#     '####' # '####'        



                #########################################################
                #                        -***-                          #
                #          Department of theory and spectroscopy        #
                #                                                       #
                #                      Frank Neese                      #
                #                                                       #
                #     Directorship, Architecture, Infrastructure        #
                #                    SHARK, DRIVERS                     #
                #        Core code/Algorithms in most modules           #
                #                                                       #
                #        Max Planck Institute fuer Kohlenforschung      #
                #                Kaiser Wilhelm Platz 1                 #
                #                 D-45470 Muelheim/Ruhr                 #
                #                      Germany                          #
                #                                                       #
                #                  All rights reserved                  #
                #                        -***-                          #
                #########################################################


                         Program Version 6.0.0  -   RELEASE  -


 With contributions from (in alphabetic order):
   Daniel Aravena         : Magnetic Suceptibility
   Michael Atanasov       : Ab Initio Ligand Field Theory (pilot matlab implementation)
   Alexander A. Auer      : GIAO ZORA, VPT2 properties, NMR spectrum
   Ute Becker             : All parallelization in ORCA, NUMFREQ, NUMCALC
   Giovanni Bistoni       : ED, misc. LED, open-shell LED, HFLD
   Martin Brehm           : Molecular dynamics
   Dmytro Bykov           : pre 5.0 version of the SCF Hessian
   Marcos Casanova-Páez   : Triplet and SCS-CIS(D). UHF-(DLPNO)-IP/EA/STEOM-CCSD. UHF-CVS-IP/STEOM-CCSD
   Vijay G. Chilkuri      : MRCI spin determinant printing, contributions to CSF-ICE
   Pauline Colinet        : FMM embedding
   Dipayan Datta          : RHF DLPNO-CCSD density
   Achintya Kumar Dutta   : EOM-CC, STEOM-CC
   Nicolas Foglia         : Exact transition moments, OPA infrastructure, MCD improvements
   Dmitry Ganyushin       : Spin-Orbit,Spin-Spin,Magnetic field MRCI
   Miquel Garcia          : C-PCM and meta-GGA Hessian, CCSD/C-PCM, Gaussian charge scheme
   Tiago L. C. Gouveia    : GS-ROHF, GS-ROCIS
   Yang Guo               : DLPNO-NEVPT2, F12-NEVPT2, CIM, IAO-localization
   Andreas Hansen         : Spin unrestricted coupled pair/coupled cluster methods
   Ingolf Harden          : AUTO-CI MPn and infrastructure 
   Benjamin Helmich-Paris : MC-RPA, TRAH-(SCF,CASSCF), AVAS, COSX integrals, SCF dyn. polar.
   Lee Huntington         : MR-EOM, pCC
   Robert Izsak           : Overlap fitted RIJCOSX, COSX-SCS-MP3, EOM
   Riya Kayal             : Wick's Theorem for AUTO-CI, AUTO-CI UHF-CCSDT
   Emily Kempfer          : AUTO-CI, RHF CISDT and CCSDT
   Christian Kollmar      : KDIIS, OOCD, Brueckner-CCSD(T), CCSD density, CASPT2, CASPT2-K, improved NEVPT2
   Axel Koslowski         : Symmetry handling
   Simone Kossmann        : Meta GGA functionals, TD-DFT gradient, OOMP2, (MP2 Hessian; deprecated post 5.0)
   Lucas Lang             : DCDCAS
   Marvin Lechner         : AUTO-CI (C++ implementation), FIC-MRCC
   Spencer Leger          : CASSCF response
   Dagmar Lenk            : GEPOL surface, SMD, ORCA-2-JSON
   Dimitrios Liakos       : Extrapolation schemes; Compound Job, initial MDCI parallelization
   Dimitrios Manganas     : Further ROCIS development; embedding schemes. LFT, Crystal Embedding
   Dimitrios Pantazis     : SARC Basis sets
   Anastasios Papadopoulos: AUTO-CI, single reference methods and gradients
   Taras Petrenko         : pre 6.0 DFT Hessian and TD-DFT gradient, (ASA, deprecated), ECA, 1-Electron XAS/XES, NRVS
   Peter Pinski           : DLPNO-MP2, DLPNO-MP2 Gradient
   Christoph Reimann      : Effective Core Potentials
   Marius Retegan         : Local ZFS, SOC
   Christoph Riplinger    : Optimizer, TS searches, QM/MM, DLPNO-CCSD(T), (RO)-DLPNO pert. Triples
   Michael Roemelt        : Original ROCIS implementation
   Masaaki Saitow         : Open-shell DLPNO-CCSD energy and density
   Barbara Sandhoefer     : DKH picture change effects
   Kantharuban Sivalingam : CASSCF convergence/infrastructure, NEVPT2 and variants, FIC-MRCI
   Bernardo de Souza      : ESD, SOC TD-DFT
   Georgi Stoychev        : AutoAux, RI-MP2 NMR, DLPNO-MP2 response, X2C
   Van Anh Tran           : RI-MP2 g-tensors
   Willem Van den Heuvel  : Paramagnetic NMR
   Zikuan Wang            : NOTCH, Electric field optimization 
   Frank Wennmohs         : Technical directorship and infrastructure
   Hang Xu                : AUTO-CI-Response properties 


 We gratefully acknowledge several colleagues who have allowed us to
 interface, adapt or use parts of their codes:
   Stefan Grimme, W. Hujo, H. Kruse, P. Pracht,  : VdW corrections, initial TS optimization,
                  C. Bannwarth, S. Ehlert,         DFT functionals, gCP, sTDA/sTD-DF
                  L. Wittmann, M. Mueller
   Ed Valeev, F. Pavosevic, A. Kumar             : LibInt (2-el integral package), F12 methods
   Garnet Chan, S. Sharma, J. Yang, R. Olivares  : DMRG
   Ulf Ekstrom                                   : XCFun DFT Library
   Mihaly Kallay                                 : mrcc  (arbitrary order and MRCC methods)
   Frank Weinhold                                : gennbo (NPA and NBO analysis)
   Simon Mueller                                 : openCOSMO-RS
   Christopher J. Cramer and Donald G. Truhlar   : smd solvation model
   Lars Goerigk                                  : TD-DFT with DH, B97 family of functionals
   V. Asgeirsson, H. Jonsson                     : NEB implementation
   FAccTs GmbH                                   : IRC, NEB, NEB-TS, DLPNO-Multilevel, CI-OPT
                                                   MM, QMMM, 2- and 3-layer-ONIOM, Crystal-QMMM,
                                                   LR-CPCM, SF, NACMEs, symmetry and pop. for TD-DFT,
                                                   nearIR, NL-DFT gradient (VV10), updates on ESD,
                                                   ML-optimized integration grids, MBIS, APM,
                                                   GOAT, DOCKER, SOLVATOR, interface openCOSMO-RS
   S Lehtola, MJT Oliveira, MAL Marques          : LibXC Library
   Liviu Ungur et al                             : ANISO software


 Your calculation uses the libint2 library for the computation of 2-el integrals
 For citations please refer to: http://libint.valeyev.net

 Your ORCA version has been built with support for libXC version: 6.2.2
 For citations please refer to: https://libxc.gitlab.io

 This ORCA versions uses:
   CBLAS   interface :  Fast vector & matrix operations
   LAPACKE interface :  Fast linear algebra routines
   SCALAPACK package :  Parallel linear algebra routines
   Shared memory     :  Shared parallel matrices
   BLAS/LAPACK       :  OpenBLAS 0.3.27  USE64BITINT DYNAMIC_ARCH NO_AFFINITY SkylakeX SINGLE_THREADED
        Core in use  :  SkylakeX
   Copyright (c) 2011-2014, The OpenBLAS Project


Warning: RI is on but no J-basis has been assigned. Assigning Def2/J (nothing to worry about!)
================================================================================

----- Orbital basis set information -----
Your calculation utilizes the basis: 6-31G*
   H-He, Li-Ne : W. J. Hehre, R. Ditchfield and J.A. Pople, J. Chem. Phys. 56, 2257 (1972).
                 Note: He and Ne are unpublished basis sets taken from the Gaussian program.
                 Note: Li and B from J. D. Dill and J. A. Pople, J. Chem. Phys. 62, 2921 (1975).
   Na - Ar     : M. M. Francl, W. J. Pietro, W. J. Hehre, J. S. Binkley, M. S. Gordon, 
                 D. J. DeFrees and J. A. Pople, J. Chem. Phys. 77, 3654 (1982).
   K - Zn      : V. A. Rassolov, J. A. Pople, M. A. Ratner, and T. L. Windus, J. Chem. Phys. 109, 1223 (1998).

----- AuxJ basis set information -----
Your calculation utilizes the auxiliary basis: def2/J
   F. Weigend, Phys. Chem. Chem. Phys. 8, 1057 (2006).

================================================================================
                                        WARNINGS
                       Please study these warnings very carefully!
================================================================================


================================================================================
                                       INPUT FILE
================================================================================
NAME = /home/nmrbox/aojoawo/Documents/ERDOS/inputs/CHEMBL2442037.inp
|  1> ! B3LYP 6-31G* SP
|  2> 
|  3> * xyz 0 1
|  4> C -2.6917 -2.8769 -1.0823
|  5> C -1.1746 -2.7534 -1.1751
|  6> C -0.6655 -1.3245 -0.9093
|  7> N -1.0177 -0.8068 0.4317
|  8> C -0.8120 -1.6143 1.6134
|  9> O -1.6813 -1.5974 2.5279
| 10> C 0.3698 -2.4932 1.7799
| 11> C 0.1834 -3.7724 2.3338
| 12> C 1.2636 -4.6382 2.5049
| 13> C 2.5452 -4.2349 2.1371
| 14> C 2.7533 -2.9609 1.6063
| 15> C 1.6724 -2.0711 1.4294
| 16> O 1.8683 -0.7718 0.9309
| 17> C 3.1178 -0.2761 0.4555
| 18> C 2.9255 1.0856 -0.1428
| 19> C 2.5513 1.2183 -1.4906
| 20> C 2.3582 2.4873 -2.0462
| 21> C 2.5320 3.6291 -1.2594
| 22> C 2.8816 3.5035 0.0890
| 23> C 3.0713 2.2363 0.6496
| 24> C -1.6277 0.5340 0.6018
| 25> C -3.0895 0.5876 0.0797
| 26> C -3.2338 1.3641 -1.2368
| 27> C -2.6762 2.7997 -1.1399
| 28> C -1.5274 2.9595 -0.1148
| 29> N -0.6425 4.0531 -0.5153
| 30> C -0.7301 1.6514 0.0206
| 31> H -2.9985 -3.8963 -1.3984
| 32> H -3.1825 -2.1388 -1.7516
| 33> H -3.0282 -2.7257 -0.0356
| 34> H -0.8636 -3.0463 -2.2015
| 35> H -0.7028 -3.4765 -0.4795
| 36> H -1.0653 -0.6663 -1.7037
| 37> H 0.4352 -1.3203 -1.0319
| 38> H -0.8064 -4.1088 2.6175
| 39> H 1.1059 -5.6243 2.9223
| 40> H 3.3821 -4.9080 2.2706
| 41> H 3.7635 -2.6744 1.3482
| 42> H 3.8451 -0.2270 1.2949
| 43> H 3.5248 -0.9625 -0.3187
| 44> H 2.4048 0.3409 -2.1090
| 45> H 2.0693 2.5850 -3.0843
| 46> H 2.3784 4.6106 -1.6886
| 47> H 2.9951 4.3884 0.7031
| 48> H 3.3297 2.1519 1.6986
| 49> H -1.6901 0.7595 1.6918
| 50> H -3.7257 1.0933 0.8403
| 51> H -3.5074 -0.4300 -0.0401
| 52> H -2.7100 0.8202 -2.0497
| 53> H -4.3083 1.4058 -1.5200
| 54> H -3.4986 3.4936 -0.8597
| 55> H -2.3253 3.1012 -2.1518
| 56> H -1.9702 3.2042 0.8788
| 57> H -1.2143 4.9251 -0.5950
| 58> H 0.0326 4.2282 0.2638
| 59> H -0.3269 1.3744 -0.9749
| 60> H 0.1339 1.8051 0.7022
| 61> *
| 62> 
| 63>                          ****END OF INPUT****
================================================================================

                       ****************************
                       * Single Point Calculation *
                       ****************************

---------------------------------
CARTESIAN COORDINATES (ANGSTROEM)
---------------------------------
  C     -2.691700   -2.876900   -1.082300
  C     -1.174600   -2.753400   -1.175100
  C     -0.665500   -1.324500   -0.909300
  N     -1.017700   -0.806800    0.431700
  C     -0.812000   -1.614300    1.613400
  O     -1.681300   -1.597400    2.527900
  C      0.369800   -2.493200    1.779900
  C      0.183400   -3.772400    2.333800
  C      1.263600   -4.638200    2.504900
  C      2.545200   -4.234900    2.137100
  C      2.753300   -2.960900    1.606300
  C      1.672400   -2.071100    1.429400
  O      1.868300   -0.771800    0.930900
  C      3.117800   -0.276100    0.455500
  C      2.925500    1.085600   -0.142800
  C      2.551300    1.218300   -1.490600
  C      2.358200    2.487300   -2.046200
  C      2.532000    3.629100   -1.259400
  C      2.881600    3.503500    0.089000
  C      3.071300    2.236300    0.649600
  C     -1.627700    0.534000    0.601800
  C     -3.089500    0.587600    0.079700
  C     -3.233800    1.364100   -1.236800
  C     -2.676200    2.799700   -1.139900
  C     -1.527400    2.959500   -0.114800
  N     -0.642500    4.053100   -0.515300
  C     -0.730100    1.651400    0.020600
  H     -2.998500   -3.896300   -1.398400
  H     -3.182500   -2.138800   -1.751600
  H     -3.028200   -2.725700   -0.035600
  H     -0.863600   -3.046300   -2.201500
  H     -0.702800   -3.476500   -0.479500
  H     -1.065300   -0.666300   -1.703700
  H      0.435200   -1.320300   -1.031900
  H     -0.806400   -4.108800    2.617500
  H      1.105900   -5.624300    2.922300
  H      3.382100   -4.908000    2.270600
  H      3.763500   -2.674400    1.348200
  H      3.845100   -0.227000    1.294900
  H      3.524800   -0.962500   -0.318700
  H      2.404800    0.340900   -2.109000
  H      2.069300    2.585000   -3.084300
  H      2.378400    4.610600   -1.688600
  H      2.995100    4.388400    0.703100
  H      3.329700    2.151900    1.698600
  H     -1.690100    0.759500    1.691800
  H     -3.725700    1.093300    0.840300
  H     -3.507400   -0.430000   -0.040100
  H     -2.710000    0.820200   -2.049700
  H     -4.308300    1.405800   -1.520000
  H     -3.498600    3.493600   -0.859700
  H     -2.325300    3.101200   -2.151800
  H     -1.970200    3.204200    0.878800
  H     -1.214300    4.925100   -0.595000
  H      0.032600    4.228200    0.263800
  H     -0.326900    1.374400   -0.974900
  H      0.133900    1.805100    0.702200

----------------------------
CARTESIAN COORDINATES (A.U.)
----------------------------
  NO LB      ZA    FRAG     MASS         X           Y           Z
   0 C     6.0000    0    12.011   -5.086576   -5.436553   -2.045251
   1 C     6.0000    0    12.011   -2.219672   -5.203172   -2.220617
   2 C     6.0000    0    12.011   -1.257613   -2.502942   -1.718328
   3 N     7.0000    0    14.007   -1.923174   -1.524631    0.815795
   4 C     6.0000    0    12.011   -1.534458   -3.050585    3.048884
   5 O     8.0000    0    15.999   -3.177197   -3.018649    4.777039
   6 C     6.0000    0    12.011    0.698821   -4.711465    3.363524
   7 C     6.0000    0    12.011    0.346576   -7.128803    4.410243
   8 C     6.0000    0    12.011    2.387858   -8.764928    4.733575
   9 C     6.0000    0    12.011    4.809731   -8.002801    4.038534
  10 C     6.0000    0    12.011    5.202983   -5.595290    3.035467
  11 C     6.0000    0    12.011    3.160378   -3.913812    2.701175
  12 O     8.0000    0    15.999    3.530575   -1.458491    1.759146
  13 C     6.0000    0    12.011    5.891788   -0.521753    0.860770
  14 C     6.0000    0    12.011    5.528394    2.051487   -0.269853
  15 C     6.0000    0    12.011    4.821258    2.302253   -2.816826
  16 C     6.0000    0    12.011    4.456352    4.700316   -3.866758
  17 C     6.0000    0    12.011    4.784787    6.858005   -2.379921
  18 C     6.0000    0    12.011    5.445435    6.620656    0.168186
  19 C     6.0000    0    12.011    5.803916    4.225995    1.227566
  20 C     6.0000    0    12.011   -3.075907    1.009114    1.137237
  21 C     6.0000    0    12.011   -5.838309    1.110403    0.150611
  22 C     6.0000    0    12.011   -6.110996    2.577775   -2.337213
  23 C     6.0000    0    12.011   -5.057285    5.290666   -2.154099
  24 C     6.0000    0    12.011   -2.886368    5.592644   -0.216941
  25 N     7.0000    0    14.007   -1.214149    7.659249   -0.973776
  26 C     6.0000    0    12.011   -1.379689    3.120694    0.038928
  27 H     1.0000    0     1.008   -5.666344   -7.362940   -2.642593
  28 H     1.0000    0     1.008   -6.014053   -4.041746   -3.310044
  29 H     1.0000    0     1.008   -5.722469   -5.150827   -0.067274
  30 H     1.0000    0     1.008   -1.631967   -5.756673   -4.160232
  31 H     1.0000    0     1.008   -1.328100   -6.569633   -0.906124
  32 H     1.0000    0     1.008   -2.013125   -1.259125   -3.219526
  33 H     1.0000    0     1.008    0.822409   -2.495005   -1.950008
  34 H     1.0000    0     1.008   -1.523875   -7.764507    4.946358
  35 H     1.0000    0     1.008    2.089848  -10.628387    5.522347
  36 H     1.0000    0     1.008    6.391243   -9.274776    4.290812
  37 H     1.0000    0     1.008    7.111984   -5.053884    2.547729
  38 H     1.0000    0     1.008    7.266186   -0.428968    2.447006
  39 H     1.0000    0     1.008    6.660907   -1.818861   -0.602256
  40 H     1.0000    0     1.008    4.544413    0.644208   -3.985432
  41 H     1.0000    0     1.008    3.910410    4.884942   -5.828482
  42 H     1.0000    0     1.008    4.494525    8.712771   -3.190992
  43 H     1.0000    0     1.008    5.659919    8.292874    1.328666
  44 H     1.0000    0     1.008    6.292221    4.066502    3.209889
  45 H     1.0000    0     1.008   -3.193826    1.435247    3.197039
  46 H     1.0000    0     1.008   -7.040553    2.066038    1.587937
  47 H     1.0000    0     1.008   -6.628025   -0.812582   -0.075778
  48 H     1.0000    0     1.008   -5.121158    1.549953   -3.873372
  49 H     1.0000    0     1.008   -8.141507    2.656577   -2.872384
  50 H     1.0000    0     1.008   -6.611396    6.601947   -1.624598
  51 H     1.0000    0     1.008   -4.394180    5.860419   -4.066313
  52 H     1.0000    0     1.008   -3.723138    6.055060    1.660691
  53 H     1.0000    0     1.008   -2.294694    9.307090   -1.124387
  54 H     1.0000    0     1.008    0.061605    7.990140    0.498510
  55 H     1.0000    0     1.008   -0.617751    2.597240   -1.842294
  56 H     1.0000    0     1.008    0.253034    3.411145    1.326966

--------------------------------
INTERNAL COORDINATES (ANGSTROEM)
--------------------------------
 C      0   0   0     0.000000000000     0.00000000     0.00000000
 C      1   0   0     1.524944753098     0.00000000     0.00000000
 C      2   1   0     1.539995993501   113.17403882     0.00000000
 N      3   2   1     1.479979435668   113.72114297    59.91742451
 C      4   3   2     1.445954228183   120.75034711    47.08175377
 O      5   4   3     1.261855122429   119.13029244   219.84193641
 C      5   4   3     1.482173640300   122.43803754    38.24461633
 C      7   5   4     1.406379326498   118.54971227   221.57198967
 C      8   7   5     1.394889561937   120.67962010   179.70962734
 C      9   8   7     1.392991848505   120.02525750     0.58267339
 C     10   9   8     1.395754365925   120.12244564     0.48548196
 C     11  10   9     1.411163512850   120.59801621   359.66675797
 O     12  11  10     1.405368119035   121.37580165   178.22823771
 C     13  12  11     1.425823937238   124.18340968     5.72459517
 C     14  13  12     1.499722997757   109.65228110   173.54667878
 C     15  14  13     1.405062194353   120.17103877   273.50289246
 C     16  15  14     1.398692235626   120.23145282   179.34036745
 C     17  16  15     1.397486286158   120.03083045   359.74247452
 C     18  17  16     1.398634362512   120.03335827   359.13857990
 C     19  18  17     1.398590107930   120.11283939     0.64940916
 C      4   3   2     1.482827923260   121.20731304   228.93847967
 C     21   4   3     1.553164707943   112.32256964    70.40575007
 C     22  21   4     1.535235157883   113.21461241   253.04525762
 C     23  22  21     1.543131468800   112.50285736   304.42145930
 C     24  23  22     1.547936526476   113.94100234    28.68661052
 N     25  24  23     1.462671945448   110.17250251   151.93861420
 C     25  24  23     1.537903137392   110.80883452    29.63381878
 H      1   2   3     1.110505204850   109.38231026   173.47797392
 H      1   2   3     1.110692909854   110.43371362    54.20173762
 H      1   2   3     1.109808352825   110.36542323   292.21915491
 H      2   1   3     1.111759133086   108.24878846   240.15061455
 H      2   1   3     1.108750742954   109.41080167   124.16771944
 H      3   2   1     1.106407989848   107.97487632   296.41841630
 H      3   2   1     1.107514735794   108.23791793   181.96498510
 H      8   7   5     1.083214978663   120.44647473     0.88219885
 H      9   8   7     1.082351726566   119.99800253   180.66827594
 H     10   9   8     1.082260352226   119.92185417   179.99907923
 H     11  10   9     1.081296397848   118.15857095   178.91642770
 H     14  13  12     1.111741183909   109.68863076   294.66896233
 H     14  13  12     1.111836139006   109.77531660    53.51948040
 H     16  15  14     1.083379697982   120.46880984   359.62567341
 H     17  16  15     1.081970475568   119.99407202   180.04883209
 H     18  17  16     1.082195846416   120.00479174   180.25896502
 H     19  18  17     1.083073898679   119.96403666   181.31903434
 H     20  19  18     1.083648891477   119.40153372   180.76909202
 H     21   4   3     1.114829139375   108.54704934   186.79611490
 H     22  21   4     1.113101653040   108.89983199   133.39562430
 H     22  21   4     1.106572279609   111.10599898    16.98753719
 H     23  22  21     1.109504420902   109.63101949    66.33934147
 H     23  22  21     1.111976339676   109.15878301   182.92935304
 H     24  23  22     1.111913220535   109.21645304   267.16852874
 H     24  23  22     1.112643100909   107.99557847   151.07446486
 H     25  24  23     1.114984703931   108.54584899   270.82267200
 H     26  25  24     1.045796983166   108.27049989    57.54847547
 H     26  25  24     1.045665735309   108.16649140   171.61238189
 H     27  25  24     1.109197678505   108.77484944    58.32758171
 H     27  25  24     1.111169766507   109.84424015   175.86125266

---------------------------
INTERNAL COORDINATES (A.U.)
---------------------------
 C      0   0   0     0.000000000000     0.00000000     0.00000000
 C      1   0   0     2.881727952715     0.00000000     0.00000000
 C      2   1   0     2.910170675053   113.17403882     0.00000000
 N      3   2   1     2.796755817248   113.72114297    59.91742451
 C      4   3   2     2.732457493451   120.75034711    47.08175377
 O      5   4   3     2.384560602076   119.13029244   219.84193641
 C      5   4   3     2.800902263084   122.43803754    38.24461633
 C      7   5   4     2.657671767489   118.54971227   221.57198967
 C      8   7   5     2.635959259126   120.67962010   179.70962734
 C      9   8   7     2.632373100458   120.02525750     0.58267339
 C     10   9   8     2.637593501824   120.12244564     0.48548196
 C     11  10   9     2.666712569469   120.59801621   359.66675797
 O     12  11  10     2.655760862320   121.37580165   178.22823771
 C     13  12  11     2.694416756569   124.18340968     5.72459517
 C     14  13  12     2.834065742503   109.65228110   173.54667878
 C     15  14  13     2.655182748454   120.17103877   273.50289246
 C     16  15  14     2.643145270975   120.23145282   179.34036745
 C     17  16  15     2.640866356750   120.03083045   359.74247452
 C     18  17  16     2.643035906640   120.03335827   359.13857990
 C     19  18  17     2.642952277599   120.11283939     0.64940916
 C      4   3   2     2.802138678693   121.20731304   228.93847967
 C     21   4   3     2.935055938884   112.32256964    70.40575007
 C     22  21   4     2.901173999566   113.21461241   253.04525762
 C     23  22  21     2.916095864667   112.50285736   304.42145930
 C     24  23  22     2.925176107734   113.94100234    28.68661052
 N     25  24  23     2.764049400666   110.17250251   151.93861420
 C     25  24  23     2.906215750169   110.80883452    29.63381878
 H      1   2   3     2.098550707462   109.38231026   173.47797392
 H      1   2   3     2.098905418512   110.43371362    54.20173762
 H      1   2   3     2.097233847977   110.36542323   292.21915491
 H      2   1   3     2.100920288418   108.24878846   240.15061455
 H      2   1   3     2.095235254964   109.41080167   124.16771944
 H      3   2   1     2.090808093195   107.97487632   296.41841630
 H      3   2   1     2.092899539932   108.23791793   181.96498510
 H      8   7   5     2.046979653835   120.44647473     0.88219885
 H      9   8   7     2.045348343786   119.99800253   180.66827594
 H     10   9   8     2.045175671308   119.92185417   179.99907923
 H     11  10   9     2.043354061529   118.15857095   178.91642770
 H     14  13  12     2.100886369390   109.68863076   294.66896233
 H     14  13  12     2.101065808518   109.77531660    53.51948040
 H     16  15  14     2.047290928237   120.46880984   359.62567341
 H     17  16  15     2.044627883811   119.99407202   180.04883209
 H     18  17  16     2.045053772993   120.00479174   180.25896502
 H     19  18  17     2.046713051302   119.96403666   181.31903434
 H     20  19  18     2.047799630219   119.40153372   180.76909202
 H     21   4   3     2.106721759534   108.54704934   186.79611490
 H     22  21   4     2.103457283460   108.89983199   133.39562430
 H     22  21   4     2.091118555851   111.10599898    16.98753719
 H     23  22  21     2.096659499879   109.63101949    66.33934147
 H     23  22  21     2.101330749388   109.15878301   182.92935304
 H     24  23  22     2.101211471497   109.21645304   267.16852874
 H     24  23  22     2.102590745515   107.99557847   151.07446486
 H     25  24  23     2.107015733941   108.54584899   270.82267200
 H     26  25  24     1.976269889866   108.27049989    57.54847547
 H     26  25  24     1.976021867360   108.16649140   171.61238189
 H     27  25  24     2.096079840755   108.77484944    58.32758171
 H     27  25  24     2.099806546992   109.84424015   175.86125266

---------------------
BASIS SET INFORMATION
---------------------
There are 4 groups of distinct atoms

 Group   1 Type C   : 10s4p1d contracted to 3s2p1d pattern {631/31/1}
 Group   2 Type N   : 10s4p1d contracted to 3s2p1d pattern {631/31/1}
 Group   3 Type O   : 10s4p1d contracted to 3s2p1d pattern {631/31/1}
 Group   4 Type H   : 4s contracted to 2s pattern {31}

Atom   0C    basis set group =>   1
Atom   1C    basis set group =>   1
Atom   2C    basis set group =>   1
Atom   3N    basis set group =>   2
Atom   4C    basis set group =>   1
Atom   5O    basis set group =>   3
Atom   6C    basis set group =>   1
Atom   7C    basis set group =>   1
Atom   8C    basis set group =>   1
Atom   9C    basis set group =>   1
Atom  10C    basis set group =>   1
Atom  11C    basis set group =>   1
Atom  12O    basis set group =>   3
Atom  13C    basis set group =>   1
Atom  14C    basis set group =>   1
Atom  15C    basis set group =>   1
Atom  16C    basis set group =>   1
Atom  17C    basis set group =>   1
Atom  18C    basis set group =>   1
Atom  19C    basis set group =>   1
Atom  20C    basis set group =>   1
Atom  21C    basis set group =>   1
Atom  22C    basis set group =>   1
Atom  23C    basis set group =>   1
Atom  24C    basis set group =>   1
Atom  25N    basis set group =>   2
Atom  26C    basis set group =>   1
Atom  27H    basis set group =>   4
Atom  28H    basis set group =>   4
Atom  29H    basis set group =>   4
Atom  30H    basis set group =>   4
Atom  31H    basis set group =>   4
Atom  32H    basis set group =>   4
Atom  33H    basis set group =>   4
Atom  34H    basis set group =>   4
Atom  35H    basis set group =>   4
Atom  36H    basis set group =>   4
Atom  37H    basis set group =>   4
Atom  38H    basis set group =>   4
Atom  39H    basis set group =>   4
Atom  40H    basis set group =>   4
Atom  41H    basis set group =>   4
Atom  42H    basis set group =>   4
Atom  43H    basis set group =>   4
Atom  44H    basis set group =>   4
Atom  45H    basis set group =>   4
Atom  46H    basis set group =>   4
Atom  47H    basis set group =>   4
Atom  48H    basis set group =>   4
Atom  49H    basis set group =>   4
Atom  50H    basis set group =>   4
Atom  51H    basis set group =>   4
Atom  52H    basis set group =>   4
Atom  53H    basis set group =>   4
Atom  54H    basis set group =>   4
Atom  55H    basis set group =>   4
Atom  56H    basis set group =>   4
---------------------------------
AUXILIARY/J BASIS SET INFORMATION
---------------------------------
There are 4 groups of distinct atoms

 Group   1 Type C   : 12s5p4d2f1g contracted to 6s4p3d1f1g pattern {711111/2111/211/2/1}
 Group   2 Type N   : 12s5p4d2f1g contracted to 6s4p3d1f1g pattern {711111/2111/211/2/1}
 Group   3 Type O   : 12s5p4d2f1g contracted to 6s4p3d1f1g pattern {711111/2111/211/2/1}
 Group   4 Type H   : 5s2p1d contracted to 3s1p1d pattern {311/2/1}

Atom   0C    basis set group =>   1
Atom   1C    basis set group =>   1
Atom   2C    basis set group =>   1
Atom   3N    basis set group =>   2
Atom   4C    basis set group =>   1
Atom   5O    basis set group =>   3
Atom   6C    basis set group =>   1
Atom   7C    basis set group =>   1
Atom   8C    basis set group =>   1
Atom   9C    basis set group =>   1
Atom  10C    basis set group =>   1
Atom  11C    basis set group =>   1
Atom  12O    basis set group =>   3
Atom  13C    basis set group =>   1
Atom  14C    basis set group =>   1
Atom  15C    basis set group =>   1
Atom  16C    basis set group =>   1
Atom  17C    basis set group =>   1
Atom  18C    basis set group =>   1
Atom  19C    basis set group =>   1
Atom  20C    basis set group =>   1
Atom  21C    basis set group =>   1
Atom  22C    basis set group =>   1
Atom  23C    basis set group =>   1
Atom  24C    basis set group =>   1
Atom  25N    basis set group =>   2
Atom  26C    basis set group =>   1
Atom  27H    basis set group =>   4
Atom  28H    basis set group =>   4
Atom  29H    basis set group =>   4
Atom  30H    basis set group =>   4
Atom  31H    basis set group =>   4
Atom  32H    basis set group =>   4
Atom  33H    basis set group =>   4
Atom  34H    basis set group =>   4
Atom  35H    basis set group =>   4
Atom  36H    basis set group =>   4
Atom  37H    basis set group =>   4
Atom  38H    basis set group =>   4
Atom  39H    basis set group =>   4
Atom  40H    basis set group =>   4
Atom  41H    basis set group =>   4
Atom  42H    basis set group =>   4
Atom  43H    basis set group =>   4
Atom  44H    basis set group =>   4
Atom  45H    basis set group =>   4
Atom  46H    basis set group =>   4
Atom  47H    basis set group =>   4
Atom  48H    basis set group =>   4
Atom  49H    basis set group =>   4
Atom  50H    basis set group =>   4
Atom  51H    basis set group =>   4
Atom  52H    basis set group =>   4
Atom  53H    basis set group =>   4
Atom  54H    basis set group =>   4
Atom  55H    basis set group =>   4
Atom  56H    basis set group =>   4
------------------------------------------------------------------------------
                             ORCA STARTUP CALCULATIONS
                           -- RI-GTO INTEGRALS CHOSEN --
------------------------------------------------------------------------------
------------------------------------------------------------------------------
                   ___                                                        
                  /   \      - P O W E R E D   B Y -                         
                 /     \                                                     
                 |  |  |   _    _      __       _____    __    __             
                 |  |  |  | |  | |    /  \     |  _  \  |  |  /  |          
                  \  \/   | |  | |   /    \    | | | |  |  | /  /          
                 / \  \   | |__| |  /  /\  \   | |_| |  |  |/  /          
                |  |  |   |  __  | /  /__\  \  |    /   |      \           
                |  |  |   | |  | | |   __   |  |    \   |  |\   \          
                \     /   | |  | | |  |  |  |  | |\  \  |  | \   \       
                 \___/    |_|  |_| |__|  |__|  |_| \__\ |__|  \__/        
                                                                              
                      - O R C A' S   B I G   F R I E N D -                    
                                      &                                       
                       - I N T E G R A L  F E E D E R -                       
                                                                              
 v1 FN, 2020, v2 2021, v3 2022-2024                                           
------------------------------------------------------------------------------


----------------------
SHARK INTEGRAL PACKAGE
----------------------

Number of atoms                             ...     57
Number of basis functions                   ...    438
Number of shells                            ...    222
Maximum angular momentum                    ...      2
Integral batch strategy                     ... SHARK/LIBINT Hybrid
RI-J (if used) integral strategy            ... SPLIT-RIJ (Revised 2003 algorithm where possible)
Printlevel                                  ...      1
Contraction scheme used                     ... SEGMENTED contraction
Prescreening option                         ... SCHWARTZ
   Thresh                                   ... 1.000e-10
   Tcut                                     ... 1.000e-11
   Tpresel                                  ... 1.000e-11 
Coulomb Range Separation                    ... NOT USED
Exchange Range Separation                   ... NOT USED
Multipole approximations                    ... NOT USED
Finite Nucleus Model                        ... NOT USED
CABS basis                                  ... NOT available
Auxiliary Coulomb fitting basis             ... AVAILABLE
   # of basis functions in Aux-J            ...   1653
   # of shells in Aux-J                     ...    555
   Maximum angular momentum in Aux-J        ...      4
Auxiliary J/K fitting basis                 ... NOT available
Auxiliary Correlation fitting basis         ... NOT available
Auxiliary 'external' fitting basis          ... NOT available

Checking pre-screening integrals            ... done (  0.0 sec) Dimension = 222
Check shell pair data                       ... done (  0.0 sec)
Shell pair information
Shell pair cut-off parameter TPreSel        ...   1.0e-11
Total number of shell pairs                 ...     24753
Shell pairs after pre-screening             ...     17451
Total number of primitive shell pairs       ...    138732
Primitive shell pairs kept                  ...     51103
          la=0 lb=0:   6688 shell pairs
          la=1 lb=0:   5896 shell pairs
          la=1 lb=1:   1279 shell pairs
          la=2 lb=0:   2301 shell pairs
          la=2 lb=1:   1083 shell pairs
          la=2 lb=2:    204 shell pairs

Calculating one electron integrals          ... done (  0.2 sec)
Calculating RI/J V-Matrix + Cholesky decomp.... done (  0.3 sec)
Calculating Nuclear repulsion               ... done (  0.0 sec) ENN=   2609.730587593356 Eh

Diagonalization of the overlap matrix:
Smallest eigenvalue                        ... 4.460e-04
Time for diagonalization                   ...    0.020 sec
Threshold for overlap eigenvalues          ... 1.000e-07
Number of eigenvalues below threshold      ... 0
Time for construction of square roots      ...    0.022 sec
Total time needed                          ...    0.050 sec

-------------------
DFT GRID GENERATION
-------------------

General Integration Accuracy     IntAcc      ... 4.388
Radial Grid Type                 RadialGrid  ... OptM3 with GC (2021)
Angular Grid (max. ang.)         AngularGrid ... 4 (Lebedev-302)
Angular grid pruning method      GridPruning ... 4 (adaptive)
Weight generation scheme         WeightScheme... mBecke (2022)
Basis function cutoff            BFCut       ... 1.0000e-10
Integration weight cutoff        WCut        ... 1.0000e-14
Partially contracted basis set               ... off
Rotationally invariant grid construction     ... off
Angular grids for H and He will be reduced by one unit

Total number of grid points                  ...   254675
Total number of batches                      ...     4002
Average number of points per batch           ...       63
Average number of grid points per atom       ...     4468

--------------------
COSX GRID GENERATION
--------------------

GRIDX 1
-------
General Integration Accuracy     IntAcc      ... 3.816
Radial Grid Type                 RadialGrid  ... OptM3 with GC (2021)
Angular Grid (max. ang.)         AngularGrid ... 1 (Lebedev-50)
Angular grid pruning method      GridPruning ... 4 (adaptive)
Weight generation scheme         WeightScheme... mBecke (2022)
Basis function cutoff            BFCut       ... 1.0000e-10
Integration weight cutoff        WCut        ... 1.0000e-14
Partially contracted basis set               ... on
Rotationally invariant grid construction     ... off
Angular grids for H and He will be reduced by one unit

Total number of grid points                  ...    32331
Total number of batches                      ...      286
Average number of points per batch           ...      113
Average number of grid points per atom       ...      567
UseSFitting                                  ... on

GRIDX 2
-------
General Integration Accuracy     IntAcc      ... 4.020
Radial Grid Type                 RadialGrid  ... OptM3 with GC (2021)
Angular Grid (max. ang.)         AngularGrid ... 2 (Lebedev-110)
Angular grid pruning method      GridPruning ... 4 (adaptive)
Weight generation scheme         WeightScheme... mBecke (2022)
Basis function cutoff            BFCut       ... 1.0000e-10
Integration weight cutoff        WCut        ... 1.0000e-14
Partially contracted basis set               ... on
Rotationally invariant grid construction     ... off
Angular grids for H and He will be reduced by one unit

Total number of grid points                  ...    68258
Total number of batches                      ...      566
Average number of points per batch           ...      120
Average number of grid points per atom       ...     1198
UseSFitting                                  ... on

GRIDX 3
-------
General Integration Accuracy     IntAcc      ... 4.338
Radial Grid Type                 RadialGrid  ... OptM3 with GC (2021)
Angular Grid (max. ang.)         AngularGrid ... 3 (Lebedev-194)
Angular grid pruning method      GridPruning ... 4 (adaptive)
Weight generation scheme         WeightScheme... mBecke (2022)
Basis function cutoff            BFCut       ... 1.0000e-10
Integration weight cutoff        WCut        ... 1.0000e-14
Partially contracted basis set               ... on
Rotationally invariant grid construction     ... off
Angular grids for H and He will be reduced by one unit

Total number of grid points                  ...   148173
Total number of batches                      ...     1187
Average number of points per batch           ...      124
Average number of grid points per atom       ...     2600
UseSFitting                                  ... on
Initializing property integral containers    ... done (  0.0 sec)

SHARK setup successfully completed in  10.3 seconds

Maximum memory used throughout the entire STARTUP-calculation: 111.7 MB
-------------------------------------------------------------------------------
                                 ORCA GUESS
                   Start orbitals & Density for SCF / CASSCF
-------------------------------------------------------------------------------

------------
SCF SETTINGS
------------
Hamiltonian:
 Density Functional     Method          .... DFT(GTOs)
 Exchange Functional    Exchange        .... B88
   X-Alpha parameter    XAlpha          ....  0.666667
   Becke's b parameter  XBeta           ....  0.004200
 Correlation Functional Correlation     .... LYP
 LDA part of GGA corr.  LDAOpt          .... VWN-5
 Gradients option       PostSCFGGA      .... off
 Hybrid DFT is turned on
   Fraction HF Exchange ScalHFX         ....  0.200000
   Scaling of DF-GGA-X  ScalDFX         ....  0.720000
   Scaling of DF-GGA-C  ScalDFC         ....  0.810000
   Scaling of DF-LDA-C  ScalLDAC        ....  1.000000
   Perturbative correction              ....  0.000000
   NL short-range parameter             ....  4.800000
 RI-approximation to the Coulomb term is turned on
   Number of AuxJ basis functions       .... 1653
   RIJ-COSX (HFX calculated with COS-X)).... on


General Settings:
 Integral files         IntName         .... /home/nmrbox/aojoawo/Documents/ERDOS/inputs/CHEMBL2442037
 Hartree-Fock type      HFTyp           .... RHF
 Total Charge           Charge          ....    0
 Multiplicity           Mult            ....    1
 Number of Electrons    NEL             ....  198
 Basis Dimension        Dim             ....  438
 Nuclear Repulsion      ENuc            ....   2609.7305875934 Eh

Convergence Acceleration:
 AO-DIIS                CNVDIIS         .... on
   Start iteration      DIISMaxIt       ....    12
   Startup error        DIISStart       ....  0.200000
   # of expansion vecs  DIISMaxEq       ....     5
   Bias factor          DIISBfac        ....   1.050
   Max. coefficient     DIISMaxC        ....  10.000
 MO-DIIS                CNVKDIIS        .... off
 Trust-Rad. Augm. Hess. CNVTRAH         .... auto
   Auto Start mean grad. ratio tolernc. ....  1.125000
   Auto Start start iteration           ....    50
   Auto Start num. interpolation iter.  ....    10
   Max. Number of Micro iterations      ....    24
   Max. Number of Macro iterations      .... Maxiter - #DIIS iter
   Number of Davidson start vectors     ....     2
   Converg. threshold    (grad. norm)   ....   5.000e-05
   Grad. Scal. Fac. for Micro threshold ....   0.100
   Minimum threshold for Micro iter.    ....   1.000e-02
   NR start threshold (gradient norm)   ....   1.000e-04
   Initial trust radius                 ....   0.400
   Minimum AH scaling param. (alpha)    ....   1.000
   Maximum AH scaling param. (alpha)    .... 1000.000
   Quad. conv. algorithm                .... NR
   White noise on init. David. guess    .... on
   Maximum white noise                  ....   0.010
   Pseudo random numbers                .... off
   Inactive MOs                         .... canonical
   Orbital update algorithm             .... Taylor
   Preconditioner                       .... Diag
   Full preconditioner red. dimension   ....   250
 SOSCF                  CNVSOSCF        .... on
   Start iteration      SOSCFMaxIt      ....   150
   Startup grad/error   SOSCFStart      ....  0.003300
   Hessian update       SOSCFHessUp     .... L-BFGS
 Level Shifting         CNVShift        .... on
   Level shift para.    LevelShift      ....    0.2500
   Turn off err/grad.   ShiftErr        ....    0.0010
 Zerner damping         CNVZerner       .... off
 Static damping         CNVDamp         .... on
   Fraction old density DampFac         ....    0.7000
   Max. Damping (<1)    DampMax         ....    0.9800
   Min. Damping (>=0)   DampMin         ....    0.0000
   Turn off err/grad.   DampErr         ....    0.1000

SCF Procedure:
 Maximum # iterations   MaxIter         ....   125
 SCF integral mode      SCFMode         .... Direct
   Integral package                     .... SHARK and LIBINT hybrid scheme
 Reset frequency        DirectResetFreq ....    20
 Integral Threshold     Thresh          ....  1.000e-10 Eh
 Primitive CutOff       TCut            ....  1.000e-11 Eh

Convergence Tolerance:
 Convergence Check Mode ConvCheckMode   .... Total+1el-Energy
 Convergence forced     ConvForced      .... 0
 Energy Change          TolE            ....  1.000e-06 Eh
 1-El. energy change                    ....  1.000e-03 Eh
 Orbital Gradient       TolG            ....  5.000e-05
 Orbital Rotation angle TolX            ....  5.000e-05
 DIIS Error             TolErr          ....  1.000e-06

------------------------------
INITIAL GUESS: MODEL POTENTIAL
------------------------------
Loading Hartree-Fock densities                     ... done
Calculating cut-offs                               ... done
Initializing the effective Hamiltonian             ... done
Setting up the integral package (SHARK)            ... done
Starting the Coulomb interaction                   ... done (   2.4 sec)
Making the grid                                    ... done (   1.2 sec)
Mapping shells                                     ... done
Starting the XC term evaluation                    ... done (   0.9 sec)
  promolecular density results
     # of electrons  =    197.976288352
     EX              =   -156.644342978
     EC              =     -6.638966293
     EX+EC           =   -163.283309272
Transforming the Hamiltonian                       ... done (   0.0 sec)
Diagonalizing the Hamiltonian                      ... done (   0.0 sec)
Back transforming the eigenvectors                 ... done (   0.0 sec)
Now organizing SCF variables                       ... done
                      ------------------
                      INITIAL GUESS DONE (   4.6 sec)
                      ------------------
             **** ENERGY FILE WAS UPDATED (/home/nmrbox/aojoawo/Documents/ERDOS/inputs/CHEMBL2442037.en.tmp) ****
Finished Guess after   4.9 sec
Maximum memory used throughout the entire GUESS-calculation: 59.8 MB

-------------------------------------------------------------------------------------------
                                      ORCA LEAN-SCF
                              memory conserving SCF solver
-------------------------------------------------------------------------------------------

----------------------------------------D-I-I-S--------------------------------------------
Iteration    Energy (Eh)           Delta-E    RMSDP     MaxDP     DIISErr   Damp  Time(sec)
-------------------------------------------------------------------------------------------
               ***  Starting incremental Fock matrix formation  ***
    1    -1152.9555515320007544     0.00e+00  2.15e-03  9.95e-02  2.71e-01  0.700  44.2
    2    -1153.2934421848799502    -3.38e-01  1.53e-03  5.45e-02  1.12e-01  0.700  19.6
                               ***Turning on AO-DIIS***
    3    -1153.4273267836520063    -1.34e-01  6.41e-04  1.77e-02  3.45e-02  0.700  19.2
    4    -1153.5071899363997545    -7.99e-02  9.98e-04  2.75e-02  1.64e-02  0.000  17.6
    5    -1153.6818994747632132    -1.75e-01  2.37e-04  8.08e-03  7.96e-03  0.000  18.9
                              *** Initializing SOSCF ***
---------------------------------------S-O-S-C-F--------------------------------------
Iteration    Energy (Eh)           Delta-E    RMSDP     MaxDP     MaxGrad    Time(sec)
--------------------------------------------------------------------------------------
    6    -1153.6830987591661142    -1.20e-03  8.02e-05  3.00e-03  3.01e-03    15.9
               *** Restarting incremental Fock matrix formation ***
    7    -1153.6830963374782186     2.42e-06  5.56e-05  3.92e-03  3.96e-04    43.3
    8    -1153.6830644685142033     3.19e-05  3.39e-05  2.80e-03  1.20e-03    24.0
    9    -1153.6831088119129163    -4.43e-05  8.56e-06  3.46e-04  7.88e-05    19.8
   10    -1153.6831081637374155     6.48e-07  5.04e-06  2.24e-04  1.74e-04    17.0
                 **** Energy Check signals convergence ****

               *****************************************************
               *                     SUCCESS                       *
               *           SCF CONVERGED AFTER  10 CYCLES          *
               *****************************************************

Recomputing exchange energy using gridx3       ... done (   75.899 sec)
Old exchange energy                            :    -31.918331997 Eh
New exchange energy                            :    -31.918388893 Eh
Exchange energy change after final integration :     -0.000056896 Eh
Total energy after final integration           :  -1153.683165059 Eh
             **** ENERGY FILE WAS UPDATED (/home/nmrbox/aojoawo/Documents/ERDOS/inputs/CHEMBL2442037.en.tmp) ****

----------------
TOTAL SCF ENERGY
----------------

Total Energy       :      -1153.68316505948337 Eh          -31393.31493 eV

Components:
Nuclear Repulsion  :       2609.73058759335618 Eh           71014.37959 eV
Electronic Energy  :      -3763.41369575709359 Eh         -102407.69297 eV
One Electron Energy:      -6756.85952946930411 Eh         -183863.49524 eV
Two Electron Energy:       2993.44583371221051 Eh           81455.80227 eV

Virial components:
Potential Energy   :      -2299.88921615070376 Eh          -62583.16724 eV
Kinetic Energy     :       1146.20605109122062 Eh           31189.85231 eV
Virial Ratio       :          2.00652335935685

DFT components:
N(Alpha)           :       99.000086869136 electrons
N(Beta)            :       99.000086869136 electrons
N(Total)           :      198.000173738272 electrons
E(X)               :     -126.671684269929 Eh       
E(C)               :       -7.817672654635 Eh       
E(XC)              :     -134.489356924563 Eh       

---------------
SCF CONVERGENCE
---------------

  Last Energy change         ...   -6.4818e-07  Tolerance :   1.0000e-06
  Last MAX-Density change    ...    2.2355e-04  Tolerance :   1.0000e-05
  Last RMS-Density change    ...    5.0367e-06  Tolerance :   1.0000e-06
  Last DIIS Error            ...    3.0123e-03  Tolerance :   1.0000e-06
  Last Orbital Gradient      ...    1.7358e-04  Tolerance :   5.0000e-05
  Last Orbital Rotation      ...    2.6597e-04  Tolerance :   5.0000e-05


----------------
ORBITAL ENERGIES
----------------

  NO   OCC          E(Eh)            E(eV) 
   0   2.0000     -19.169120      -521.6183 
   1   2.0000     -19.096179      -519.6334 
   2   2.0000     -14.324985      -389.8027 
   3   2.0000     -14.297144      -389.0451 
   4   2.0000     -10.271334      -279.4972 
   5   2.0000     -10.254324      -279.0343 
   6   2.0000     -10.243020      -278.7267 
   7   2.0000     -10.201231      -277.5896 
   8   2.0000     -10.199570      -277.5444 
   9   2.0000     -10.194327      -277.4017 
  10   2.0000     -10.193648      -277.3833 
  11   2.0000     -10.192751      -277.3589 
  12   2.0000     -10.187927      -277.2276 
  13   2.0000     -10.187372      -277.2125 
  14   2.0000     -10.186476      -277.1881 
  15   2.0000     -10.185994      -277.1750 
  16   2.0000     -10.185161      -277.1523 
  17   2.0000     -10.185001      -277.1480 
  18   2.0000     -10.184227      -277.1269 
  19   2.0000     -10.182990      -277.0933 
  20   2.0000     -10.177186      -276.9353 
  21   2.0000     -10.168942      -276.7110 
  22   2.0000     -10.164977      -276.6031 
  23   2.0000     -10.163333      -276.5584 
  24   2.0000     -10.158405      -276.4242 
  25   2.0000     -10.156975      -276.3853 
  26   2.0000     -10.156252      -276.3657 
  27   2.0000      -1.048822       -28.5399 
  28   2.0000      -0.993873       -27.0446 
  29   2.0000      -0.893365       -24.3097 
  30   2.0000      -0.870491       -23.6873 
  31   2.0000      -0.857810       -23.3422 
  32   2.0000      -0.848485       -23.0885 
  33   2.0000      -0.792718       -21.5710 
  34   2.0000      -0.778718       -21.1900 
  35   2.0000      -0.762228       -20.7413 
  36   2.0000      -0.755810       -20.5666 
  37   2.0000      -0.745303       -20.2807 
  38   2.0000      -0.737009       -20.0550 
  39   2.0000      -0.717079       -19.5127 
  40   2.0000      -0.698807       -19.0155 
  41   2.0000      -0.683371       -18.5955 
  42   2.0000      -0.667217       -18.1559 
  43   2.0000      -0.632507       -17.2114 
  44   2.0000      -0.607329       -16.5263 
  45   2.0000      -0.604714       -16.4551 
  46   2.0000      -0.598364       -16.2823 
  47   2.0000      -0.586436       -15.9577 
  48   2.0000      -0.581932       -15.8352 
  49   2.0000      -0.578251       -15.7350 
  50   2.0000      -0.543410       -14.7869 
  51   2.0000      -0.519600       -14.1390 
  52   2.0000      -0.514409       -13.9978 
  53   2.0000      -0.505187       -13.7468 
  54   2.0000      -0.490475       -13.3465 
  55   2.0000      -0.479781       -13.0555 
  56   2.0000      -0.478174       -13.0118 
  57   2.0000      -0.473831       -12.8936 
  58   2.0000      -0.466882       -12.7045 
  59   2.0000      -0.458790       -12.4843 
  60   2.0000      -0.455652       -12.3989 
  61   2.0000      -0.452119       -12.3028 
  62   2.0000      -0.445194       -12.1143 
  63   2.0000      -0.440338       -11.9822 
  64   2.0000      -0.431590       -11.7442 
  65   2.0000      -0.428037       -11.6475 
  66   2.0000      -0.420793       -11.4504 
  67   2.0000      -0.415870       -11.3164 
  68   2.0000      -0.414118       -11.2687 
  69   2.0000      -0.406858       -11.0712 
  70   2.0000      -0.393274       -10.7015 
  71   2.0000      -0.384672       -10.4675 
  72   2.0000      -0.383546       -10.4368 
  73   2.0000      -0.378326       -10.2948 
  74   2.0000      -0.368696       -10.0327 
  75   2.0000      -0.366972        -9.9858 
  76   2.0000      -0.364359        -9.9147 
  77   2.0000      -0.358987        -9.7685 
  78   2.0000      -0.354581        -9.6486 
  79   2.0000      -0.350757        -9.5446 
  80   2.0000      -0.347060        -9.4440 
  81   2.0000      -0.345417        -9.3993 
  82   2.0000      -0.341706        -9.2983 
  83   2.0000      -0.335026        -9.1165 
  84   2.0000      -0.329880        -8.9765 
  85   2.0000      -0.326459        -8.8834 
  86   2.0000      -0.324737        -8.8365 
  87   2.0000      -0.318197        -8.6586 
  88   2.0000      -0.309777        -8.4295 
  89   2.0000      -0.303235        -8.2515 
  90   2.0000      -0.295668        -8.0455 
  91   2.0000      -0.283119        -7.7041 
  92   2.0000      -0.253188        -6.8896 
  93   2.0000      -0.250764        -6.8236 
  94   2.0000      -0.249450        -6.7879 
  95   2.0000      -0.230404        -6.2696 
  96   2.0000      -0.221244        -6.0204 
  97   2.0000      -0.220319        -5.9952 
  98   2.0000      -0.199671        -5.4333 
  99   0.0000      -0.030440        -0.8283 
 100   0.0000      -0.010975        -0.2986 
 101   0.0000      -0.004352        -0.1184 
 102   0.0000       0.006945         0.1890 
 103   0.0000       0.046589         1.2677 
 104   0.0000       0.073735         2.0064 
 105   0.0000       0.082829         2.2539 
 106   0.0000       0.087588         2.3834 
 107   0.0000       0.093649         2.5483 
 108   0.0000       0.107903         2.9362 
 109   0.0000       0.112679         3.0662 
*Only the first 10 virtual orbitals were printed.

                    ********************************
                    * MULLIKEN POPULATION ANALYSIS *
                    ********************************

-----------------------
MULLIKEN ATOMIC CHARGES
-----------------------
   0 C :   -0.439362
   1 C :   -0.266897
   2 C :   -0.138958
   3 N :   -0.412532
   4 C :    0.449524
   5 O :   -0.474654
   6 C :    0.028744
   7 C :   -0.147818
   8 C :   -0.136373
   9 C :   -0.116396
  10 C :   -0.208592
  11 C :    0.336961
  12 O :   -0.506388
  13 C :   -0.110293
  14 C :    0.142840
  15 C :   -0.160935
  16 C :   -0.118141
  17 C :   -0.087677
  18 C :   -0.146050
  19 C :   -0.162706
  20 C :    0.040411
  21 C :   -0.275950
  22 C :   -0.270418
  23 C :   -0.266512
  24 C :    0.041956
  25 N :   -0.714313
  26 C :   -0.270280
  27 H :    0.135224
  28 H :    0.136090
  29 H :    0.171563
  30 H :    0.124381
  31 H :    0.146011
  32 H :    0.147547
  33 H :    0.141077
  34 H :    0.157011
  35 H :    0.129435
  36 H :    0.133610
  37 H :    0.137896
  38 H :    0.137241
  39 H :    0.135779
  40 H :    0.129316
  41 H :    0.132698
  42 H :    0.133839
  43 H :    0.127909
  44 H :    0.131917
  45 H :    0.153126
  46 H :    0.129654
  47 H :    0.154250
  48 H :    0.128782
  49 H :    0.127797
  50 H :    0.121201
  51 H :    0.137754
  52 H :    0.097824
  53 H :    0.281451
  54 H :    0.286775
  55 H :    0.141833
  56 H :    0.141817
Sum of atomic charges:   -0.0000000

--------------------------------
MULLIKEN REDUCED ORBITAL CHARGES
--------------------------------
  0 C s       :     3.305404  s :     3.305404
      pz      :     1.079497  p :     3.099488
      px      :     0.969994
      py      :     1.049998
      dz2     :     0.007754  d :     0.034469
      dxz     :     0.006781
      dyz     :     0.005547
      dx2y2   :     0.008104
      dxy     :     0.006283

  1 C s       :     3.254898  s :     3.254898
      pz      :     1.043308  p :     2.972104
      px      :     0.958450
      py      :     0.970346
      dz2     :     0.008098  d :     0.039895
      dxz     :     0.006773
      dyz     :     0.007534
      dx2y2   :     0.009045
      dxy     :     0.008446

  2 C s       :     3.216916  s :     3.216916
      pz      :     0.851500  p :     2.868533
      px      :     1.050096
      py      :     0.966937
      dz2     :     0.012095  d :     0.053508
      dxz     :     0.009296
      dyz     :     0.014146
      dx2y2   :     0.012509
      dxy     :     0.005462

  3 N s       :     3.549691  s :     3.549691
      pz      :     1.068803  p :     3.830401
      px      :     1.566588
      py      :     1.195010
      dz2     :     0.008357  d :     0.032440
      dxz     :     0.005065
      dyz     :     0.010100
      dx2y2   :     0.004606
      dxy     :     0.004312

  4 C s       :     3.048656  s :     3.048656
      pz      :     0.750840  p :     2.402184
      px      :     0.830549
      py      :     0.820795
      dz2     :     0.026007  d :     0.099636
      dxz     :     0.024751
      dyz     :     0.019818
      dx2y2   :     0.012229
      dxy     :     0.016830

  5 O s       :     3.888946  s :     3.888946
      pz      :     1.520397  p :     4.560595
      px      :     1.489810
      py      :     1.550388
      dz2     :     0.005952  d :     0.025113
      dxz     :     0.007501
      dyz     :     0.004190
      dx2y2   :     0.003546
      dxy     :     0.003924

  6 C s       :     3.156944  s :     3.156944
      pz      :     1.002719  p :     2.776844
      px      :     0.849377
      py      :     0.924748
      dz2     :     0.004429  d :     0.037468
      dxz     :     0.006200
      dyz     :     0.004971
      dx2y2   :     0.010210
      dxy     :     0.011658

  7 C s       :     3.211947  s :     3.211947
      pz      :     0.945670  p :     2.899324
      px      :     0.984634
      py      :     0.969020
      dz2     :     0.004215  d :     0.036547
      dxz     :     0.004516
      dyz     :     0.006080
      dx2y2   :     0.011786
      dxy     :     0.009949

  8 C s       :     3.182453  s :     3.182453
      pz      :     1.009963  p :     2.917981
      px      :     0.925497
      py      :     0.982522
      dz2     :     0.002975  d :     0.035939
      dxz     :     0.006260
      dyz     :     0.004715
      dx2y2   :     0.012264
      dxy     :     0.009724

  9 C s       :     3.188771  s :     3.188771
      pz      :     0.964451  p :     2.890489
      px      :     0.966606
      py      :     0.959432
      dz2     :     0.004972  d :     0.037136
      dxz     :     0.004855
      dyz     :     0.004799
      dx2y2   :     0.009207
      dxy     :     0.013303

 10 C s       :     3.188642  s :     3.188642
      pz      :     1.048518  p :     2.985862
      px      :     0.962073
      py      :     0.975271
      dz2     :     0.003926  d :     0.034088
      dxz     :     0.004189
      dyz     :     0.005147
      dx2y2   :     0.010335
      dxy     :     0.010491

 11 C s       :     3.109145  s :     3.109145
      pz      :     0.912658  p :     2.488152
      px      :     0.892588
      py      :     0.682905
      dz2     :     0.007218  d :     0.065742
      dxz     :     0.008090
      dyz     :     0.013151
      dx2y2   :     0.019913
      dxy     :     0.017371

 12 O s       :     3.886229  s :     3.886229
      pz      :     1.700030  p :     4.593360
      px      :     1.467065
      py      :     1.426265
      dz2     :     0.003929  d :     0.026798
      dxz     :     0.003899
      dyz     :     0.005054
      dx2y2   :     0.009605
      dxy     :     0.004312

 13 C s       :     3.211433  s :     3.211433
      pz      :     1.029294  p :     2.832869
      px      :     0.800054
      py      :     1.003521
      dz2     :     0.006967  d :     0.065991
      dxz     :     0.019977
      dyz     :     0.011178
      dx2y2   :     0.014321
      dxy     :     0.013549

 14 C s       :     3.112729  s :     3.112729
      pz      :     0.880380  p :     2.704930
      px      :     0.966039
      py      :     0.858510
      dz2     :     0.009941  d :     0.039502
      dxz     :     0.005942
      dyz     :     0.012800
      dx2y2   :     0.006309
      dxy     :     0.004510

 15 C s       :     3.200618  s :     3.200618
      pz      :     0.968741  p :     2.924258
      px      :     0.983428
      py      :     0.972089
      dz2     :     0.008066  d :     0.036059
      dxz     :     0.004844
      dyz     :     0.013249
      dx2y2   :     0.005888
      dxy     :     0.004012

 16 C s       :     3.187889  s :     3.187889
      pz      :     0.983831  p :     2.894291
      px      :     0.980539
      py      :     0.929921
      dz2     :     0.010993  d :     0.035961
      dxz     :     0.003272
      dyz     :     0.009814
      dx2y2   :     0.005739
      dxy     :     0.006143

 17 C s       :     3.181684  s :     3.181684
      pz      :     0.937731  p :     2.869742
      px      :     0.955026
      py      :     0.976985
      dz2     :     0.009045  d :     0.036251
      dxz     :     0.005291
      dyz     :     0.011925
      dx2y2   :     0.006561
      dxy     :     0.003430

 18 C s       :     3.194275  s :     3.194275
      pz      :     0.950489  p :     2.915768
      px      :     0.997632
      py      :     0.967647
      dz2     :     0.008005  d :     0.036008
      dxz     :     0.004682
      dyz     :     0.013672
      dx2y2   :     0.005844
      dxy     :     0.003805

 19 C s       :     3.198770  s :     3.198770
      pz      :     0.976703  p :     2.927842
      px      :     0.996544
      py      :     0.954595
      dz2     :     0.011045  d :     0.036095
      dxz     :     0.003080
      dyz     :     0.009873
      dx2y2   :     0.005607
      dxy     :     0.006490

 20 C s       :     3.173985  s :     3.173985
      pz      :     1.043233  p :     2.728461
      px      :     0.896952
      py      :     0.788276
      dz2     :     0.014159  d :     0.057144
      dxz     :     0.005906
      dyz     :     0.005877
      dx2y2   :     0.015888
      dxy     :     0.015314

 21 C s       :     3.262408  s :     3.262408
      pz      :     0.960129  p :     2.974994
      px      :     0.972683
      py      :     1.042181
      dz2     :     0.007552  d :     0.038548
      dxz     :     0.009485
      dyz     :     0.006842
      dx2y2   :     0.007853
      dxy     :     0.006817

 22 C s       :     3.253036  s :     3.253036
      pz      :     0.988794  p :     2.977379
      px      :     1.030936
      py      :     0.957649
      dz2     :     0.007391  d :     0.040004
      dxz     :     0.007006
      dyz     :     0.009962
      dx2y2   :     0.009999
      dxy     :     0.005646

 23 C s       :     3.251382  s :     3.251382
      pz      :     1.005980  p :     2.976874
      px      :     0.994339
      py      :     0.976555
      dz2     :     0.009211  d :     0.038256
      dxz     :     0.007520
      dyz     :     0.005331
      dx2y2   :     0.005525
      dxy     :     0.010668

 24 C s       :     3.159583  s :     3.159583
      pz      :     0.961757  p :     2.738990
      px      :     0.907289
      py      :     0.869944
      dz2     :     0.012030  d :     0.059471
      dxz     :     0.014680
      dyz     :     0.007885
      dx2y2   :     0.010145
      dxy     :     0.014731

 25 N s       :     3.705626  s :     3.705626
      pz      :     1.569623  p :     3.974673
      px      :     1.266450
      py      :     1.138601
      dz2     :     0.006825  d :     0.034013
      dxz     :     0.009010
      dyz     :     0.003809
      dx2y2   :     0.003630
      dxy     :     0.010739

 26 C s       :     3.271888  s :     3.271888
      pz      :     1.052292  p :     2.960272
      px      :     0.984690
      py      :     0.923290
      dz2     :     0.007496  d :     0.038120
      dxz     :     0.010663
      dyz     :     0.005308
      dx2y2   :     0.006038
      dxy     :     0.008614

 27 H s       :     0.864776  s :     0.864776

 28 H s       :     0.863910  s :     0.863910

 29 H s       :     0.828437  s :     0.828437

 30 H s       :     0.875619  s :     0.875619

 31 H s       :     0.853989  s :     0.853989

 32 H s       :     0.852453  s :     0.852453

 33 H s       :     0.858923  s :     0.858923

 34 H s       :     0.842989  s :     0.842989

 35 H s       :     0.870565  s :     0.870565

 36 H s       :     0.866390  s :     0.866390

 37 H s       :     0.862104  s :     0.862104

 38 H s       :     0.862759  s :     0.862759

 39 H s       :     0.864221  s :     0.864221

 40 H s       :     0.870684  s :     0.870684

 41 H s       :     0.867302  s :     0.867302

 42 H s       :     0.866161  s :     0.866161

 43 H s       :     0.872091  s :     0.872091

 44 H s       :     0.868083  s :     0.868083

 45 H s       :     0.846874  s :     0.846874

 46 H s       :     0.870346  s :     0.870346

 47 H s       :     0.845750  s :     0.845750

 48 H s       :     0.871218  s :     0.871218

 49 H s       :     0.872203  s :     0.872203

 50 H s       :     0.878799  s :     0.878799

 51 H s       :     0.862246  s :     0.862246

 52 H s       :     0.902176  s :     0.902176

 53 H s       :     0.718549  s :     0.718549

 54 H s       :     0.713225  s :     0.713225

 55 H s       :     0.858167  s :     0.858167

 56 H s       :     0.858183  s :     0.858183



                     *******************************
                     * LOEWDIN POPULATION ANALYSIS *
                     *******************************

----------------------
LOEWDIN ATOMIC CHARGES
----------------------
   0 C :   -0.363644
   1 C :   -0.243777
   2 C :   -0.157042
   3 N :   -0.108267
   4 C :    0.145542
   5 O :   -0.278740
   6 C :   -0.069710
   7 C :   -0.092393
   8 C :   -0.148306
   9 C :   -0.113323
  10 C :   -0.174941
  11 C :    0.098447
  12 O :   -0.178224
  13 C :   -0.082033
  14 C :   -0.034884
  15 C :   -0.120981
  16 C :   -0.119955
  17 C :   -0.105924
  18 C :   -0.137097
  19 C :   -0.124959
  20 C :   -0.048575
  21 C :   -0.239893
  22 C :   -0.233276
  23 C :   -0.234409
  24 C :   -0.077599
  25 N :   -0.464857
  26 C :   -0.231095
  27 H :    0.121158
  28 H :    0.118496
  29 H :    0.133662
  30 H :    0.117928
  31 H :    0.124949
  32 H :    0.126850
  33 H :    0.115284
  34 H :    0.148893
  35 H :    0.132734
  36 H :    0.134191
  37 H :    0.136168
  38 H :    0.115869
  39 H :    0.115437
  40 H :    0.131567
  41 H :    0.134142
  42 H :    0.135359
  43 H :    0.130432
  44 H :    0.133269
  45 H :    0.136429
  46 H :    0.119185
  47 H :    0.132819
  48 H :    0.109736
  49 H :    0.119755
  50 H :    0.113654
  51 H :    0.123783
  52 H :    0.090510
  53 H :    0.216481
  54 H :    0.218151
  55 H :    0.125024
  56 H :    0.128002

-------------------------------
LOEWDIN REDUCED ORBITAL CHARGES
-------------------------------
  0 C s       :     2.982199  s :     2.982199
      pz      :     1.130510  p :     3.313822
      px      :     1.067788
      py      :     1.115523
      dz2     :     0.014730  d :     0.067624
      dxz     :     0.013212
      dyz     :     0.009727
      dx2y2   :     0.017324
      dxy     :     0.012631

  1 C s       :     2.943332  s :     2.943332
      pz      :     1.099213  p :     3.215940
      px      :     1.059707
      py      :     1.057020
      dz2     :     0.016714  d :     0.084505
      dxz     :     0.013047
      dyz     :     0.014499
      dx2y2   :     0.021995
      dxy     :     0.018249

  2 C s       :     2.930454  s :     2.930454
      pz      :     0.952781  p :     3.114362
      px      :     1.104227
      py      :     1.057354
      dz2     :     0.025866  d :     0.112226
      dxz     :     0.019485
      dyz     :     0.029500
      dx2y2   :     0.026243
      dxy     :     0.011131

  3 N s       :     3.119478  s :     3.119478
      pz      :     1.139722  p :     3.907909
      px      :     1.549303
      py      :     1.218884
      dz2     :     0.022428  d :     0.080881
      dxz     :     0.011837
      dyz     :     0.027777
      dx2y2   :     0.009638
      dxy     :     0.009202

  4 C s       :     2.864791  s :     2.864791
      pz      :     0.918605  p :     2.758375
      px      :     0.962075
      py      :     0.877694
      dz2     :     0.061081  d :     0.231293
      dxz     :     0.059401
      dyz     :     0.045375
      dx2y2   :     0.027874
      dxy     :     0.037563

  5 O s       :     3.590189  s :     3.590189
      pz      :     1.560495  p :     4.638620
      px      :     1.535294
      py      :     1.542832
      dz2     :     0.010877  d :     0.049931
      dxz     :     0.019231
      dyz     :     0.006393
      dx2y2   :     0.007485
      dxy     :     0.005945

  6 C s       :     2.879019  s :     2.879019
      pz      :     1.023716  p :     3.094781
      px      :     1.023312
      py      :     1.047753
      dz2     :     0.009612  d :     0.095910
      dxz     :     0.014114
      dyz     :     0.011549
      dx2y2   :     0.028486
      dxy     :     0.032149

  7 C s       :     2.918660  s :     2.918660
      pz      :     0.962476  p :     3.088442
      px      :     1.084283
      py      :     1.041683
      dz2     :     0.008026  d :     0.085292
      dxz     :     0.009092
      dyz     :     0.014168
      dx2y2   :     0.028366
      dxy     :     0.025640

  8 C s       :     2.913459  s :     2.913459
      pz      :     1.018086  p :     3.149562
      px      :     1.067238
      py      :     1.064239
      dz2     :     0.006099  d :     0.085284
      dxz     :     0.014512
      dyz     :     0.008185
      dx2y2   :     0.030780
      dxy     :     0.025708

  9 C s       :     2.916687  s :     2.916687
      pz      :     0.978992  p :     3.109180
      px      :     1.075191
      py      :     1.054997
      dz2     :     0.009656  d :     0.087456
      dxz     :     0.011104
      dyz     :     0.011255
      dx2y2   :     0.024171
      dxy     :     0.031271

 10 C s       :     2.917338  s :     2.917338
      pz      :     1.051017  p :     3.176430
      px      :     1.063636
      py      :     1.061776
      dz2     :     0.007577  d :     0.081174
      dxz     :     0.008250
      dyz     :     0.012311
      dx2y2   :     0.025927
      dxy     :     0.027109

 11 C s       :     2.862983  s :     2.862983
      pz      :     0.942054  p :     2.883729
      px      :     1.065982
      py      :     0.875693
      dz2     :     0.014966  d :     0.154841
      dxz     :     0.017721
      dyz     :     0.028468
      dx2y2   :     0.049037
      dxy     :     0.044648

 12 O s       :     3.471523  s :     3.471523
      pz      :     1.699820  p :     4.644496
      px      :     1.513069
      py      :     1.431607
      dz2     :     0.007910  d :     0.062206
      dxz     :     0.009036
      dyz     :     0.011324
      dx2y2   :     0.021568
      dxy     :     0.012368

 13 C s       :     2.928163  s :     2.928163
      pz      :     1.073870  p :     3.014462
      px      :     0.898027
      py      :     1.042564
      dz2     :     0.013560  d :     0.139408
      dxz     :     0.041285
      dyz     :     0.022939
      dx2y2   :     0.033313
      dxy     :     0.028313

 14 C s       :     2.875504  s :     2.875504
      pz      :     1.055315  p :     3.060077
      px      :     0.977623
      py      :     1.027139
      dz2     :     0.026641  d :     0.099303
      dxz     :     0.013174
      dyz     :     0.034772
      dx2y2   :     0.014975
      dxy     :     0.009742

 15 C s       :     2.919712  s :     2.919712
      pz      :     1.058000  p :     3.117253
      px      :     0.985808
      py      :     1.073445
      dz2     :     0.020851  d :     0.084016
      dxz     :     0.010351
      dyz     :     0.032096
      dx2y2   :     0.012370
      dxy     :     0.008347

 16 C s       :     2.917852  s :     2.917852
      pz      :     1.068467  p :     3.117664
      px      :     0.979907
      py      :     1.069290
      dz2     :     0.023373  d :     0.084439
      dxz     :     0.005445
      dyz     :     0.026252
      dx2y2   :     0.015705
      dxy     :     0.013663

 17 C s       :     2.919219  s :     2.919219
      pz      :     1.063749  p :     3.101908
      px      :     0.961879
      py      :     1.076279
      dz2     :     0.024093  d :     0.084797
      dxz     :     0.011742
      dyz     :     0.029686
      dx2y2   :     0.012509
      dxy     :     0.006767

 18 C s       :     2.918688  s :     2.918688
      pz      :     1.067629  p :     3.133847
      px      :     0.995259
      py      :     1.070959
      dz2     :     0.021178  d :     0.084563
      dxz     :     0.010187
      dyz     :     0.032991
      dx2y2   :     0.012184
      dxy     :     0.008022

 19 C s       :     2.919815  s :     2.919815
      pz      :     1.065281  p :     3.120918
      px      :     0.991651
      py      :     1.063986
      dz2     :     0.023538  d :     0.084226
      dxz     :     0.005062
      dyz     :     0.026071
      dx2y2   :     0.015355
      dxy     :     0.014199

 20 C s       :     2.895326  s :     2.895326
      pz      :     1.095996  p :     3.028084
      px      :     1.018631
      py      :     0.913457
      dz2     :     0.029085  d :     0.125165
      dxz     :     0.012983
      dyz     :     0.012291
      dx2y2   :     0.035905
      dxy     :     0.034901

 21 C s       :     2.948157  s :     2.948157
      pz      :     1.062832  p :     3.210638
      px      :     1.050106
      py      :     1.097700
      dz2     :     0.016288  d :     0.081098
      dxz     :     0.019890
      dyz     :     0.014917
      dx2y2   :     0.017036
      dxy     :     0.012967

 22 C s       :     2.939507  s :     2.939507
      pz      :     1.070898  p :     3.209849
      px      :     1.090466
      py      :     1.048485
      dz2     :     0.016434  d :     0.083921
      dxz     :     0.013264
      dyz     :     0.021772
      dx2y2   :     0.020670
      dxy     :     0.011782

 23 C s       :     2.948289  s :     2.948289
      pz      :     1.082041  p :     3.206002
      px      :     1.064118
      py      :     1.059843
      dz2     :     0.018317  d :     0.080118
      dxz     :     0.016648
      dyz     :     0.010682
      dx2y2   :     0.012536
      dxy     :     0.021936

 24 C s       :     2.894219  s :     2.894219
      pz      :     1.054312  p :     3.052168
      px      :     1.012736
      py      :     0.985120
      dz2     :     0.025248  d :     0.131212
      dxz     :     0.033095
      dyz     :     0.016195
      dx2y2   :     0.022385
      dxy     :     0.034289

 25 N s       :     3.311520  s :     3.311520
      pz      :     1.593051  p :     4.090327
      px      :     1.311952
      py      :     1.185324
      dz2     :     0.010111  d :     0.063011
      dxz     :     0.015432
      dyz     :     0.006933
      dx2y2   :     0.009330
      dxy     :     0.021205

 26 C s       :     2.949417  s :     2.949417
      pz      :     1.106247  p :     3.200891
      px      :     1.067772
      py      :     1.026872
      dz2     :     0.015222  d :     0.080787
      dxz     :     0.020753
      dyz     :     0.010981
      dx2y2   :     0.013110
      dxy     :     0.020721

 27 H s       :     0.878842  s :     0.878842

 28 H s       :     0.881504  s :     0.881504

 29 H s       :     0.866338  s :     0.866338

 30 H s       :     0.882072  s :     0.882072

 31 H s       :     0.875051  s :     0.875051

 32 H s       :     0.873150  s :     0.873150

 33 H s       :     0.884716  s :     0.884716

 34 H s       :     0.851107  s :     0.851107

 35 H s       :     0.867266  s :     0.867266

 36 H s       :     0.865809  s :     0.865809

 37 H s       :     0.863832  s :     0.863832

 38 H s       :     0.884131  s :     0.884131

 39 H s       :     0.884563  s :     0.884563

 40 H s       :     0.868433  s :     0.868433

 41 H s       :     0.865858  s :     0.865858

 42 H s       :     0.864641  s :     0.864641

 43 H s       :     0.869568  s :     0.869568

 44 H s       :     0.866731  s :     0.866731

 45 H s       :     0.863571  s :     0.863571

 46 H s       :     0.880815  s :     0.880815

 47 H s       :     0.867181  s :     0.867181

 48 H s       :     0.890264  s :     0.890264

 49 H s       :     0.880245  s :     0.880245

 50 H s       :     0.886346  s :     0.886346

 51 H s       :     0.876217  s :     0.876217

 52 H s       :     0.909490  s :     0.909490

 53 H s       :     0.783519  s :     0.783519

 54 H s       :     0.781849  s :     0.781849

 55 H s       :     0.874976  s :     0.874976

 56 H s       :     0.871998  s :     0.871998



                      *****************************
                      * MAYER POPULATION ANALYSIS *
                      *****************************

  NA   - Mulliken gross atomic population
  ZA   - Total nuclear charge
  QA   - Mulliken gross atomic charge
  VA   - Mayer's total valence
  BVA  - Mayer's bonded valence
  FA   - Mayer's free valence

  ATOM       NA         ZA         QA         VA         BVA        FA
  0 C      6.4394     6.0000    -0.4394     3.8463     3.8463     0.0000
  1 C      6.2669     6.0000    -0.2669     3.8636     3.8636    -0.0000
  2 C      6.1390     6.0000    -0.1390     3.8414     3.8414    -0.0000
  3 N      7.4125     7.0000    -0.4125     3.0427     3.0427    -0.0000
  4 C      5.5505     6.0000     0.4495     3.9362     3.9362     0.0000
  5 O      8.4747     8.0000    -0.4747     2.0271     2.0271    -0.0000
  6 C      5.9713     6.0000     0.0287     3.8357     3.8357    -0.0000
  7 C      6.1478     6.0000    -0.1478     3.9498     3.9498    -0.0000
  8 C      6.1364     6.0000    -0.1364     3.9270     3.9270    -0.0000
  9 C      6.1164     6.0000    -0.1164     3.9478     3.9478     0.0000
 10 C      6.2086     6.0000    -0.2086     3.8798     3.8798     0.0000
 11 C      5.6630     6.0000     0.3370     3.8098     3.8098    -0.0000
 12 O      8.5064     8.0000    -0.5064     1.9680     1.9680    -0.0000
 13 C      6.1103     6.0000    -0.1103     3.8098     3.8098    -0.0000
 14 C      5.8572     6.0000     0.1428     3.9643     3.9643    -0.0000
 15 C      6.1609     6.0000    -0.1609     3.9384     3.9384     0.0000
 16 C      6.1181     6.0000    -0.1181     3.9520     3.9520    -0.0000
 17 C      6.0877     6.0000    -0.0877     3.9527     3.9527     0.0000
 18 C      6.1461     6.0000    -0.1461     3.9445     3.9445    -0.0000
 19 C      6.1627     6.0000    -0.1627     3.9416     3.9416     0.0000
 20 C      5.9596     6.0000     0.0404     3.8591     3.8591    -0.0000
 21 C      6.2759     6.0000    -0.2759     3.8307     3.8307    -0.0000
 22 C      6.2704     6.0000    -0.2704     3.8818     3.8818    -0.0000
 23 C      6.2665     6.0000    -0.2665     3.8512     3.8512     0.0000
 24 C      5.9580     6.0000     0.0420     3.8755     3.8755    -0.0000
 25 N      7.7143     7.0000    -0.7143     2.7334     2.7334    -0.0000
 26 C      6.2703     6.0000    -0.2703     3.8200     3.8200    -0.0000
 27 H      0.8648     1.0000     0.1352     0.9360     0.9360    -0.0000
 28 H      0.8639     1.0000     0.1361     0.9403     0.9403     0.0000
 29 H      0.8284     1.0000     0.1716     0.9368     0.9368    -0.0000
 30 H      0.8756     1.0000     0.1244     0.9361     0.9361     0.0000
 31 H      0.8540     1.0000     0.1460     0.9406     0.9406     0.0000
 32 H      0.8525     1.0000     0.1475     0.9410     0.9410     0.0000
 33 H      0.8589     1.0000     0.1411     0.9363     0.9363    -0.0000
 34 H      0.8430     1.0000     0.1570     0.9410     0.9410    -0.0000
 35 H      0.8706     1.0000     0.1294     0.9376     0.9376     0.0000
 36 H      0.8664     1.0000     0.1336     0.9364     0.9364     0.0000
 37 H      0.8621     1.0000     0.1379     0.9397     0.9397    -0.0000
 38 H      0.8628     1.0000     0.1372     0.9298     0.9298     0.0000
 39 H      0.8642     1.0000     0.1358     0.9310     0.9310     0.0000
 40 H      0.8707     1.0000     0.1293     0.9405     0.9405    -0.0000
 41 H      0.8673     1.0000     0.1327     0.9366     0.9366     0.0000
 42 H      0.8662     1.0000     0.1338     0.9379     0.9379    -0.0000
 43 H      0.8721     1.0000     0.1279     0.9371     0.9371     0.0000
 44 H      0.8681     1.0000     0.1319     0.9377     0.9377    -0.0000
 45 H      0.8469     1.0000     0.1531     0.9442     0.9442    -0.0000
 46 H      0.8703     1.0000     0.1297     0.9351     0.9351     0.0000
 47 H      0.8457     1.0000     0.1543     0.9419     0.9419     0.0000
 48 H      0.8712     1.0000     0.1288     0.9345     0.9345    -0.0000
 49 H      0.8722     1.0000     0.1278     0.9352     0.9352     0.0000
 50 H      0.8788     1.0000     0.1212     0.9355     0.9355     0.0000
 51 H      0.8622     1.0000     0.1378     0.9407     0.9407     0.0000
 52 H      0.9022     1.0000     0.0978     0.9291     0.9291     0.0000
 53 H      0.7185     1.0000     0.2815     0.8739     0.8739    -0.0000
 54 H      0.7132     1.0000     0.2868     0.8782     0.8782     0.0000
 55 H      0.8582     1.0000     0.1418     0.9453     0.9453    -0.0000
 56 H      0.8582     1.0000     0.1418     0.9477     0.9477    -0.0000

  Mayer bond orders larger than 0.100000
B(  0-C ,  1-C ) :   1.0170 B(  0-C , 27-H ) :   0.9502 B(  0-C , 28-H ) :   0.9486 
B(  0-C , 29-H ) :   0.9369 B(  1-C ,  2-C ) :   1.0022 B(  1-C , 30-H ) :   0.9390 
B(  1-C , 31-H ) :   0.9301 B(  2-C ,  3-N ) :   0.9457 B(  2-C , 32-H ) :   0.9262 
B(  2-C , 33-H ) :   0.9141 B(  3-N ,  4-C ) :   1.0728 B(  3-N , 20-C ) :   0.9368 
B(  4-C ,  5-O ) :   1.7958 B(  4-C ,  6-C ) :   0.9468 B(  6-C ,  7-C ) :   1.4080 
B(  6-C , 11-C ) :   1.3476 B(  7-C ,  8-C ) :   1.4374 B(  7-C , 34-H ) :   0.9165 
B(  8-C ,  9-C ) :   1.4413 B(  8-C , 35-H ) :   0.9298 B(  9-C , 10-C ) :   1.4437 
B(  9-C , 36-H ) :   0.9296 B( 10-C , 11-C ) :   1.3489 B( 10-C , 37-H ) :   0.9173 
B( 11-C , 12-O ) :   0.9273 B( 12-O , 13-C ) :   0.8942 B( 13-C , 14-C ) :   0.9900 
B( 13-C , 38-H ) :   0.9138 B( 13-C , 39-H ) :   0.9128 B( 14-C , 15-C ) :   1.4287 
B( 14-C , 19-C ) :   1.4351 B( 15-C , 16-C ) :   1.4393 B( 15-C , 40-H ) :   0.9237 
B( 16-C , 17-C ) :   1.4522 B( 16-C , 41-H ) :   0.9290 B( 17-C , 18-C ) :   1.4469 
B( 17-C , 42-H ) :   0.9284 B( 18-C , 19-C ) :   1.4335 B( 18-C , 43-H ) :   0.9298 
B( 19-C , 44-H ) :   0.9248 B( 20-C , 21-C ) :   0.9678 B( 20-C , 26-C ) :   0.9785 
B( 20-C , 45-H ) :   0.9220 B( 21-C , 22-C ) :   1.0115 B( 21-C , 46-H ) :   0.9417 
B( 21-C , 47-H ) :   0.9296 B( 22-C , 23-C ) :   1.0009 B( 22-C , 48-H ) :   0.9380 
B( 22-C , 49-H ) :   0.9433 B( 23-C , 24-C ) :   0.9892 B( 23-C , 50-H ) :   0.9449 
B( 23-C , 51-H ) :   0.9353 B( 24-C , 25-N ) :   0.9823 B( 24-C , 26-C ) :   0.9830 
B( 24-C , 52-H ) :   0.9295 B( 25-N , 53-H ) :   0.8636 B( 25-N , 54-H ) :   0.8527 
B( 26-C , 55-H ) :   0.9216 B( 26-C , 56-H ) :   0.9288 

-------
TIMINGS
-------

Total SCF time: 0 days 0 hours 5 min 16 sec 

Total time                  ....     316.084 sec
Sum of individual times     ....     315.768 sec  ( 99.9%)

SCF preparation             ....       0.308 sec  (  0.1%)
Fock matrix formation       ....     313.696 sec  ( 99.2%)
  Startup                   ....       0.077 sec  (  0.0% of F)
  Split-RI-J                ....      38.058 sec  ( 12.1% of F)
  Chain of spheres X        ....     245.885 sec  ( 78.4% of F)
  XC integration            ....      28.972 sec  (  9.2% of F)
    XC Preparation          ....       0.000 sec  (  0.0% of XC)
    Basis function eval.    ....      11.269 sec  ( 38.9% of XC)
    Density eval.           ....       7.109 sec  ( 24.5% of XC)
    XC-Functional eval.     ....       1.161 sec  (  4.0% of XC)
    XC-Potential eval.      ....       7.969 sec  ( 27.5% of XC)
Diagonalization             ....       0.000 sec  (  0.0%)
Density matrix formation    ....       0.345 sec  (  0.1%)
Total Energy calculation    ....       0.061 sec  (  0.0%)
Population analysis         ....       0.126 sec  (  0.0%)
Orbital Transformation      ....       0.126 sec  (  0.0%)
Orbital Orthonormalization  ....       0.000 sec  (  0.0%)
DIIS solution               ....       0.729 sec  (  0.2%)
SOSCF solution              ....       0.376 sec  (  0.1%)
Finished LeanSCF after 316.2 sec

Maximum memory used throughout the entire LEANSCF-calculation: 84.3 MB

-------------------------   --------------------
FINAL SINGLE POINT ENERGY     -1153.683165059483
-------------------------   --------------------


------------------------------------------------------------------------------
                              ORCA PROPERTY CALCULATIONS
------------------------------------------------------------------------------

GBWName                                 ... /home/nmrbox/aojoawo/Documents/ERDOS/inputs/CHEMBL2442037.gbw
Number of atoms                         ...     57
Number of basis functions               ...    438
Max core memory                         ...   1024 MB

Electric properties:
Dipole moment                           ... YES
Quadrupole moment                       ...  NO
Static polarizability (Dipole/Dipole)   ...  NO
Static polarizability (Dipole/Quad.)    ...  NO
Static polarizability (Quad./Quad.)     ...  NO
Static polarizability (Velocity)        ...  NO

Atomic electric properties:
Dipole moment                           ...  NO
Quadrupole moment                       ...  NO
Static polarizability                   ...  NO

Choice of electric origin               ... Center of mass
Position of electric origin             ...     0.470328    -0.246912     0.535446

General magnetic properties:
Magnetizability                         ...  NO

EPR properties:
g-Tensor (aka g-matrix)                 ...  NO
Zero-Field splitting spin-orbit         ...  NO
Zero-field splitting spin-spin          ...  NO
Hyperfine couplings                     ...  NO (   0 nuclei)
Quadrupole couplings                    ...  NO (   0 nuclei)
Contact density                         ...  NO (   0 nuclei)

NMR properties:
Chemical shifts                         ...  NO (   0 nuclei)
Spin-rotation constants                 ...  NO (   0 nuclei)
Spin-spin couplings                     ...  NO (   0 nuclei,    0 pairs)

Choice of magnetic origin               ... GIAO
Position of magnetic origin             ...     0.000000     0.000000     0.000000

Properties with geometric perturbations:
SCF Hessian                             ...  NO
IR spectrum                             ...  NO
VCD spectrum                            ...  NO
X-ray spectroscopy properties:
SCF XES/XAS/RIXS spectra                ...  NO


-------------
DIPOLE MOMENT
-------------

Method             : SCF
Type of density    : Electron Density
Multiplicity       :   1
Irrep              :   0
Energy             : -1153.6831650594833718 Eh
Relativity type    : 
Basis              : AO
                                X                 Y                 Z
Electronic contribution:     16.176685912      -7.033077261      13.483199137
Nuclear contribution   :    -15.018206305       7.495433503     -14.279518063
                        -----------------------------------------
Total Dipole Moment    :      1.158479607       0.462356242      -0.796318926
                        -----------------------------------------
Magnitude (a.u.)       :      1.479855441
Magnitude (Debye)      :      3.761493600



--------------------
Rotational spectrum 
--------------------
 
Rotational constants in cm-1:             0.008132             0.005505             0.003831 
Rotational constants in MHz :           243.784831           165.038922           114.852987 

Dipole components along the rotational axes: 
x,y,z [a.u.] :     0.644222     1.115241    -0.728827 
x,y,z [Debye]:     1.637481     2.834717    -1.852531 

 

Dipole moment calculation done in   0.0 sec 

Maximum memory used throughout the entire PROP-calculation: 39.6 MB

--------------------------------
SUGGESTED CITATIONS FOR THIS RUN
--------------------------------

Below you find a list of papers that are relevant to this ORCA run
We neither can nor want to force you to cite these papers, but we appreciate if you do
You receive ORCA, which is the product of decades of hard work by many enthusiastic individuals, for free
The only thing we kindly ask in return is that you cite our papers,
We deeply appreciate it, if you show your appreciation for ORCA by not just citing the generic ORCA reference.

Please note that relegating all ORCA citations to the supporting information does *not* help us.
SI sections are not indexed - citations you put there will not count into any citation statistics
But we need these citations in order to attract the funding resources that allow us to do what we are doing

Therefore, if you are a happy ORCA user, please consider citing a few of the papers listed below in the main body of your paper

In addition to the list printed below, the program has created the file /home/nmrbox/aojoawo/Documents/ERDOS/inputs/CHEMBL2442037.bibtex that contains the list in bibtex format
You can import this file easily into all common literature databanks and citation aid programs


List of essential papers. We consider these as the minimum necessary citations

  1. Neese,F.
     Software update: the ORCA program system, version 5.0
     WIRES Comput. Molec. Sci., 2022 12(1)e1606
     doi.org/10.1002/wcms.1606

List of papers to cite with high priority. The work reported in these papers was absolutely
necessary for this run to complete.
Our perspective: the developers of density functionals and basis sets usually get cited in chemistry papers
Good! But without the algorithms to do something with them, the functionals or basis sets would not do anything.
Hence, in our opinion, the algorithm design and method developments papers are equally worthy of getting cited

  1. Neese,F.
     An improvement of the resolution of the identity approximation for the formation of the Coulomb matrix
     J. Comp. Chem., 2003 24(14)1740-1747
     doi.org/10.1002/jcc.10318
  2. Neese,F.; Wennmohs,F.; Hansen,A.; Becker,U.
     Efficient, approximate and parallel Hartree-Fock and hybrid DFT calculations. A 'chain-of-spheres' algorithm for the Hartree-Fock exchange
     Chem. Phys., 2009 356(1-3)98-109
     doi.org/10.1016/j.chemphys.2008.10.036
  3. Helmich-Paris,B.; de Souza,B.; Neese,F.; Izsák,R.
     An improved chain of spheres for exchange algorithm
     J. Chem. Phys., 2021 155 104109
     doi.org/doi: 10.1063/5.0058766.
  4. Neese,F.
     The SHARK Integral Generation and Digestion System
     J. Comp. Chem., 2022  1-16
     doi.org/10.1002/jcc.26942

List of suggested additional citations. These are papers that are important in the 'surrounding' of 
of this run, or papers that preceded the highly important papers. If you like your results we are grateful for a citation.

  1. Izsak,R.; Neese,F.
     An overlap fitted chain of spheres exchange method
     J. Chem. Phys., 2011 135 144105
     doi.org/10.1063/1.3646921
  2. Izsak,R.; Hansen,A.; Neese,F.
     The resolution of identity and chain of spheres approximations for the LPNO-CCSD singles Fock term
     Molec. Phys., 2012 110 2413-2417
     doi.org/10.1080/00268976.2012.687466
  3. Neese,F.
     The ORCA program system
     WIRES Comput. Molec. Sci., 2012 2(1)73-78
     doi.org/10.1002/wcms.81
  4. Izsak,R.; Neese,F.; Klopper,W.
     Robust fitting techniques in the chain of spheres approximation to the Fock exchange: The role of the complementary space
     J. Chem. Phys., 2013 139 
     doi.org/10.1063/1.4819264
  5. Neese,F.
     Software update: the ORCA program system, version 4.0
     WIRES Comput. Molec. Sci., 2018 8(1)1-6
     doi.org/10.1002/wcms.1327
  6. Neese,F.; Wennmohs,F.; Becker,U.; Riplinger,C.
     The ORCA quantum chemistry program package
     J. Chem. Phys., 2020 152 Art. No. L224108
     doi.org/10.1063/5.0004608

List of optional additional citations

  1. Neese,F.
     Approximate second-order SCF convergence for spin unrestricted wavefunctions
     Chem. Phys. Lett., 2000 325(1-3)93-98
     doi.org/10.1016/s0009-2614(00)00662-x

Timings for individual modules:

Sum of individual times          ...      331.782 sec (=   5.530 min)
Startup calculation              ...       10.347 sec (=   0.172 min)   3.1 %
SCF iterations                   ...      321.253 sec (=   5.354 min)  96.8 %
Property calculations            ...        0.181 sec (=   0.003 min)   0.1 %
                             ****ORCA TERMINATED NORMALLY****
TOTAL RUN TIME: 0 days 0 hours 5 minutes 32 seconds 593 msec
