
                                 *****************
                                 * O   R   C   A *
                                 *****************

                                            #,                                       
                                            ###                                      
                                            ####                                     
                                            #####                                    
                                            ######                                   
                                           ########,                                 
                                     ,,################,,,,,                         
                               ,,#################################,,                 
                          ,,##########################################,,             
                       ,#########################################, ''#####,          
                    ,#############################################,,   '####,        
                  ,##################################################,,,,####,       
                ,###########''''           ''''###############################       
              ,#####''   ,,,,##########,,,,          '''####'''          '####       
            ,##' ,,,,###########################,,,                        '##       
           ' ,,###''''                  '''############,,,                           
         ,,##''                                '''############,,,,        ,,,,,,###''
      ,#''                                            '''#######################'''  
     '                                                          ''''####''''         
             ,#######,   #######,   ,#######,      ##                                
            ,#'     '#,  ##    ##  ,#'     '#,    #''#        ,####,   ,####,        
            ##       ##  ##   ,#'  ##            #'  '#       #'       #'  '#        
            ##       ##  #######   ##           ,######,      #####,   #    #        
            '#,     ,#'  ##    ##  '#,     ,#' ,#      #,     #,   #   #,  ,#        
             '#######'   ##     ##  '#######'  #'      '#     '####' # '####'        



                #########################################################
                #                        -***-                          #
                #          Department of theory and spectroscopy        #
                #                                                       #
                #                      Frank Neese                      #
                #                                                       #
                #     Directorship, Architecture, Infrastructure        #
                #                    SHARK, DRIVERS                     #
                #        Core code/Algorithms in most modules           #
                #                                                       #
                #        Max Planck Institute fuer Kohlenforschung      #
                #                Kaiser Wilhelm Platz 1                 #
                #                 D-45470 Muelheim/Ruhr                 #
                #                      Germany                          #
                #                                                       #
                #                  All rights reserved                  #
                #                        -***-                          #
                #########################################################


                         Program Version 6.0.0  -   RELEASE  -


 With contributions from (in alphabetic order):
   Daniel Aravena         : Magnetic Suceptibility
   Michael Atanasov       : Ab Initio Ligand Field Theory (pilot matlab implementation)
   Alexander A. Auer      : GIAO ZORA, VPT2 properties, NMR spectrum
   Ute Becker             : All parallelization in ORCA, NUMFREQ, NUMCALC
   Giovanni Bistoni       : ED, misc. LED, open-shell LED, HFLD
   Martin Brehm           : Molecular dynamics
   Dmytro Bykov           : pre 5.0 version of the SCF Hessian
   Marcos Casanova-Páez   : Triplet and SCS-CIS(D). UHF-(DLPNO)-IP/EA/STEOM-CCSD. UHF-CVS-IP/STEOM-CCSD
   Vijay G. Chilkuri      : MRCI spin determinant printing, contributions to CSF-ICE
   Pauline Colinet        : FMM embedding
   Dipayan Datta          : RHF DLPNO-CCSD density
   Achintya Kumar Dutta   : EOM-CC, STEOM-CC
   Nicolas Foglia         : Exact transition moments, OPA infrastructure, MCD improvements
   Dmitry Ganyushin       : Spin-Orbit,Spin-Spin,Magnetic field MRCI
   Miquel Garcia          : C-PCM and meta-GGA Hessian, CCSD/C-PCM, Gaussian charge scheme
   Tiago L. C. Gouveia    : GS-ROHF, GS-ROCIS
   Yang Guo               : DLPNO-NEVPT2, F12-NEVPT2, CIM, IAO-localization
   Andreas Hansen         : Spin unrestricted coupled pair/coupled cluster methods
   Ingolf Harden          : AUTO-CI MPn and infrastructure 
   Benjamin Helmich-Paris : MC-RPA, TRAH-(SCF,CASSCF), AVAS, COSX integrals, SCF dyn. polar.
   Lee Huntington         : MR-EOM, pCC
   Robert Izsak           : Overlap fitted RIJCOSX, COSX-SCS-MP3, EOM
   Riya Kayal             : Wick's Theorem for AUTO-CI, AUTO-CI UHF-CCSDT
   Emily Kempfer          : AUTO-CI, RHF CISDT and CCSDT
   Christian Kollmar      : KDIIS, OOCD, Brueckner-CCSD(T), CCSD density, CASPT2, CASPT2-K, improved NEVPT2
   Axel Koslowski         : Symmetry handling
   Simone Kossmann        : Meta GGA functionals, TD-DFT gradient, OOMP2, (MP2 Hessian; deprecated post 5.0)
   Lucas Lang             : DCDCAS
   Marvin Lechner         : AUTO-CI (C++ implementation), FIC-MRCC
   Spencer Leger          : CASSCF response
   Dagmar Lenk            : GEPOL surface, SMD, ORCA-2-JSON
   Dimitrios Liakos       : Extrapolation schemes; Compound Job, initial MDCI parallelization
   Dimitrios Manganas     : Further ROCIS development; embedding schemes. LFT, Crystal Embedding
   Dimitrios Pantazis     : SARC Basis sets
   Anastasios Papadopoulos: AUTO-CI, single reference methods and gradients
   Taras Petrenko         : pre 6.0 DFT Hessian and TD-DFT gradient, (ASA, deprecated), ECA, 1-Electron XAS/XES, NRVS
   Peter Pinski           : DLPNO-MP2, DLPNO-MP2 Gradient
   Christoph Reimann      : Effective Core Potentials
   Marius Retegan         : Local ZFS, SOC
   Christoph Riplinger    : Optimizer, TS searches, QM/MM, DLPNO-CCSD(T), (RO)-DLPNO pert. Triples
   Michael Roemelt        : Original ROCIS implementation
   Masaaki Saitow         : Open-shell DLPNO-CCSD energy and density
   Barbara Sandhoefer     : DKH picture change effects
   Kantharuban Sivalingam : CASSCF convergence/infrastructure, NEVPT2 and variants, FIC-MRCI
   Bernardo de Souza      : ESD, SOC TD-DFT
   Georgi Stoychev        : AutoAux, RI-MP2 NMR, DLPNO-MP2 response, X2C
   Van Anh Tran           : RI-MP2 g-tensors
   Willem Van den Heuvel  : Paramagnetic NMR
   Zikuan Wang            : NOTCH, Electric field optimization 
   Frank Wennmohs         : Technical directorship and infrastructure
   Hang Xu                : AUTO-CI-Response properties 


 We gratefully acknowledge several colleagues who have allowed us to
 interface, adapt or use parts of their codes:
   Stefan Grimme, W. Hujo, H. Kruse, P. Pracht,  : VdW corrections, initial TS optimization,
                  C. Bannwarth, S. Ehlert,         DFT functionals, gCP, sTDA/sTD-DF
                  L. Wittmann, M. Mueller
   Ed Valeev, F. Pavosevic, A. Kumar             : LibInt (2-el integral package), F12 methods
   Garnet Chan, S. Sharma, J. Yang, R. Olivares  : DMRG
   Ulf Ekstrom                                   : XCFun DFT Library
   Mihaly Kallay                                 : mrcc  (arbitrary order and MRCC methods)
   Frank Weinhold                                : gennbo (NPA and NBO analysis)
   Simon Mueller                                 : openCOSMO-RS
   Christopher J. Cramer and Donald G. Truhlar   : smd solvation model
   Lars Goerigk                                  : TD-DFT with DH, B97 family of functionals
   V. Asgeirsson, H. Jonsson                     : NEB implementation
   FAccTs GmbH                                   : IRC, NEB, NEB-TS, DLPNO-Multilevel, CI-OPT
                                                   MM, QMMM, 2- and 3-layer-ONIOM, Crystal-QMMM,
                                                   LR-CPCM, SF, NACMEs, symmetry and pop. for TD-DFT,
                                                   nearIR, NL-DFT gradient (VV10), updates on ESD,
                                                   ML-optimized integration grids, MBIS, APM,
                                                   GOAT, DOCKER, SOLVATOR, interface openCOSMO-RS
   S Lehtola, MJT Oliveira, MAL Marques          : LibXC Library
   Liviu Ungur et al                             : ANISO software


 Your calculation uses the libint2 library for the computation of 2-el integrals
 For citations please refer to: http://libint.valeyev.net

 Your ORCA version has been built with support for libXC version: 6.2.2
 For citations please refer to: https://libxc.gitlab.io

 This ORCA versions uses:
   CBLAS   interface :  Fast vector & matrix operations
   LAPACKE interface :  Fast linear algebra routines
   SCALAPACK package :  Parallel linear algebra routines
   Shared memory     :  Shared parallel matrices
   BLAS/LAPACK       :  OpenBLAS 0.3.27  USE64BITINT DYNAMIC_ARCH NO_AFFINITY SkylakeX SINGLE_THREADED
        Core in use  :  SkylakeX
   Copyright (c) 2011-2014, The OpenBLAS Project


Warning: RI is on but no J-basis has been assigned. Assigning Def2/J (nothing to worry about!)
================================================================================

----- Orbital basis set information -----
Your calculation utilizes the basis: 6-31G*
   H-He, Li-Ne : W. J. Hehre, R. Ditchfield and J.A. Pople, J. Chem. Phys. 56, 2257 (1972).
                 Note: He and Ne are unpublished basis sets taken from the Gaussian program.
                 Note: Li and B from J. D. Dill and J. A. Pople, J. Chem. Phys. 62, 2921 (1975).
   Na - Ar     : M. M. Francl, W. J. Pietro, W. J. Hehre, J. S. Binkley, M. S. Gordon, 
                 D. J. DeFrees and J. A. Pople, J. Chem. Phys. 77, 3654 (1982).
   K - Zn      : V. A. Rassolov, J. A. Pople, M. A. Ratner, and T. L. Windus, J. Chem. Phys. 109, 1223 (1998).

----- AuxJ basis set information -----
Your calculation utilizes the auxiliary basis: def2/J
   F. Weigend, Phys. Chem. Chem. Phys. 8, 1057 (2006).

================================================================================
                                        WARNINGS
                       Please study these warnings very carefully!
================================================================================


================================================================================
                                       INPUT FILE
================================================================================
NAME = /home/nmrbox/aojoawo/Documents/ERDOS/inputs/CHEMBL3682562.inp
|  1> ! B3LYP 6-31G* SP
|  2> 
|  3> * xyz 0 1
|  4> C -2.3039 0.1540 1.5650
|  5> C -1.5100 -0.9699 0.9363
|  6> C -0.6016 -0.7123 -0.1189
|  7> N -0.3488 0.6197 -0.5844
|  8> C 0.5750 1.4952 0.1439
|  9> C 1.9536 0.8933 0.1627
| 10> C 2.7546 0.9316 -0.9878
| 11> C 4.0082 0.3110 -0.9950
| 12> C 4.4799 -0.3502 0.1534
| 13> O 5.7341 -0.9734 0.1951
| 14> C 6.6196 -1.0471 -0.9167
| 15> C 8.0665 -1.2340 -0.4998
| 16> C 7.5859 0.1190 -1.0091
| 17> C 3.6745 -0.3928 1.2969
| 18> C 2.4162 0.2156 1.3013
| 19> S -1.1112 1.1587 -2.0481
| 20> O -0.1931 2.0817 -2.7990
| 21> O -1.4099 -0.0220 -2.9294
| 22> C -2.6031 1.9941 -1.6411
| 23> C -3.8087 1.2860 -1.5687
| 24> C -4.9869 1.9375 -1.1931
| 25> C -4.9741 3.3081 -0.8789
| 26> C -6.2220 3.9928 -0.4758
| 27> O -6.2170 5.2242 -0.2083
| 28> O -7.4152 3.2812 -0.3862
| 29> C -3.7577 4.0120 -0.9471
| 30> C -2.5806 3.3572 -1.3221
| 31> N 0.0714 -1.7365 -0.7049
| 32> C -0.0747 -3.0242 -0.3109
| 33> C -0.9324 -3.3421 0.7446
| 34> C -1.0675 -4.6723 1.1692
| 35> C -1.9147 -4.9867 2.2320
| 36> C -2.6336 -3.9795 2.8754
| 37> C -2.5131 -2.6512 2.4591
| 38> C -1.6612 -2.3085 1.3854
| 39> H -3.3896 -0.0774 1.5121
| 40> H -2.1593 1.1254 1.0560
| 41> H -2.0014 0.2759 2.6257
| 42> H 0.2034 1.6526 1.1802
| 43> H 0.6188 2.4991 -0.3329
| 44> H 2.4031 1.4303 -1.8822
| 45> H 4.6031 0.3525 -1.8958
| 46> H 6.3000 -1.5614 -1.8482
| 47> H 8.2453 -1.2685 0.5948
| 48> H 8.6822 -1.8033 -1.2267
| 49> H 7.4601 0.8939 -0.2218
| 50> H 7.8984 0.3575 -2.0450
| 51> H 4.0229 -0.9038 2.1839
| 52> H 1.8020 0.1545 2.1905
| 53> H -3.8352 0.2262 -1.7902
| 54> H -5.9055 1.3667 -1.1446
| 55> H -8.2747 3.7392 -0.1087
| 56> H -3.7135 5.0668 -0.7040
| 57> H -1.6507 3.9108 -1.3535
| 58> H 0.4915 -3.7962 -0.8166
| 59> H -0.5154 -5.4662 0.6801
| 60> H -2.0124 -6.0134 2.5595
| 61> H -3.2867 -4.2279 3.7015
| 62> H -3.0849 -1.9037 2.9912
| 63> *
| 64> 
| 65>                          ****END OF INPUT****
================================================================================

                       ****************************
                       * Single Point Calculation *
                       ****************************

---------------------------------
CARTESIAN COORDINATES (ANGSTROEM)
---------------------------------
  C     -2.303900    0.154000    1.565000
  C     -1.510000   -0.969900    0.936300
  C     -0.601600   -0.712300   -0.118900
  N     -0.348800    0.619700   -0.584400
  C      0.575000    1.495200    0.143900
  C      1.953600    0.893300    0.162700
  C      2.754600    0.931600   -0.987800
  C      4.008200    0.311000   -0.995000
  C      4.479900   -0.350200    0.153400
  O      5.734100   -0.973400    0.195100
  C      6.619600   -1.047100   -0.916700
  C      8.066500   -1.234000   -0.499800
  C      7.585900    0.119000   -1.009100
  C      3.674500   -0.392800    1.296900
  C      2.416200    0.215600    1.301300
  S     -1.111200    1.158700   -2.048100
  O     -0.193100    2.081700   -2.799000
  O     -1.409900   -0.022000   -2.929400
  C     -2.603100    1.994100   -1.641100
  C     -3.808700    1.286000   -1.568700
  C     -4.986900    1.937500   -1.193100
  C     -4.974100    3.308100   -0.878900
  C     -6.222000    3.992800   -0.475800
  O     -6.217000    5.224200   -0.208300
  O     -7.415200    3.281200   -0.386200
  C     -3.757700    4.012000   -0.947100
  C     -2.580600    3.357200   -1.322100
  N      0.071400   -1.736500   -0.704900
  C     -0.074700   -3.024200   -0.310900
  C     -0.932400   -3.342100    0.744600
  C     -1.067500   -4.672300    1.169200
  C     -1.914700   -4.986700    2.232000
  C     -2.633600   -3.979500    2.875400
  C     -2.513100   -2.651200    2.459100
  C     -1.661200   -2.308500    1.385400
  H     -3.389600   -0.077400    1.512100
  H     -2.159300    1.125400    1.056000
  H     -2.001400    0.275900    2.625700
  H      0.203400    1.652600    1.180200
  H      0.618800    2.499100   -0.332900
  H      2.403100    1.430300   -1.882200
  H      4.603100    0.352500   -1.895800
  H      6.300000   -1.561400   -1.848200
  H      8.245300   -1.268500    0.594800
  H      8.682200   -1.803300   -1.226700
  H      7.460100    0.893900   -0.221800
  H      7.898400    0.357500   -2.045000
  H      4.022900   -0.903800    2.183900
  H      1.802000    0.154500    2.190500
  H     -3.835200    0.226200   -1.790200
  H     -5.905500    1.366700   -1.144600
  H     -8.274700    3.739200   -0.108700
  H     -3.713500    5.066800   -0.704000
  H     -1.650700    3.910800   -1.353500
  H      0.491500   -3.796200   -0.816600
  H     -0.515400   -5.466200    0.680100
  H     -2.012400   -6.013400    2.559500
  H     -3.286700   -4.227900    3.701500
  H     -3.084900   -1.903700    2.991200

----------------------------
CARTESIAN COORDINATES (A.U.)
----------------------------
  NO LB      ZA    FRAG     MASS         X           Y           Z
   0 C     6.0000    0    12.011   -4.353740    0.291018    2.957421
   1 C     6.0000    0    12.011   -2.853486   -1.832845    1.769351
   2 C     6.0000    0    12.011   -1.136859   -1.346052   -0.224688
   3 N     7.0000    0    14.007   -0.659136    1.171063   -1.104356
   4 C     6.0000    0    12.011    1.086593    2.825519    0.271932
   5 C     6.0000    0    12.011    3.691769    1.688092    0.307458
   6 C     6.0000    0    12.011    5.205440    1.760469   -1.866671
   7 C     6.0000    0    12.011    7.574400    0.587705   -1.880278
   8 C     6.0000    0    12.011    8.465784   -0.661782    0.289884
   9 O     8.0000    0    15.999   10.835879   -1.839459    0.368686
  10 C     6.0000    0    12.011   12.509231   -1.978732   -1.732312
  11 C     6.0000    0    12.011   15.243476   -2.331922   -0.944485
  12 C     6.0000    0    12.011   14.335273    0.224877   -1.906923
  13 C     6.0000    0    12.011    6.943799   -0.742284    2.450786
  14 C     6.0000    0    12.011    4.565956    0.407425    2.459101
  15 S    16.0000    0    32.060   -2.099864    2.189626   -3.870348
  16 O     8.0000    0    15.999   -0.364906    3.933843   -5.289343
  17 O     8.0000    0    15.999   -2.664325   -0.041574   -5.535764
  18 C     6.0000    0    12.011   -4.919146    3.768303   -3.101230
  19 C     6.0000    0    12.011   -7.197400    2.430188   -2.964413
  20 C     6.0000    0    12.011   -9.423875    3.661344   -2.254632
  21 C     6.0000    0    12.011   -9.399687    6.251403   -1.660880
  22 C     6.0000    0    12.011  -11.757876    7.545299   -0.899132
  23 O     8.0000    0    15.999  -11.748427    9.872307   -0.393630
  24 O     8.0000    0    15.999  -14.012697    6.200569   -0.729812
  25 C     6.0000    0    12.011   -7.101024    7.581581   -1.789760
  26 C     6.0000    0    12.011   -4.876627    6.344189   -2.498407
  27 N     7.0000    0    14.007    0.134926   -3.281509   -1.332068
  28 C     6.0000    0    12.011   -0.141163   -5.714910   -0.587516
  29 C     6.0000    0    12.011   -1.761981   -6.315654    1.407090
  30 C     6.0000    0    12.011   -2.017283   -8.829367    2.209468
  31 C     6.0000    0    12.011   -3.618259   -9.423497    4.217869
  32 C     6.0000    0    12.011   -4.976783   -7.520165    5.433719
  33 C     6.0000    0    12.011   -4.749071   -5.010042    4.647026
  34 C     6.0000    0    12.011   -3.139213   -4.362433    2.618027
  35 H     1.0000    0     1.008   -6.405416   -0.146265    2.857455
  36 H     1.0000    0     1.008   -4.080486    2.126698    1.995551
  37 H     1.0000    0     1.008   -3.782098    0.521375    4.961854
  38 H     1.0000    0     1.008    0.384370    3.122961    2.230255
  39 H     1.0000    0     1.008    1.169363    4.722615   -0.629090
  40 H     1.0000    0     1.008    4.541201    2.702875   -3.556843
  41 H     1.0000    0     1.008    8.698598    0.666128   -3.582543
  42 H     1.0000    0     1.008   11.905275   -2.950618   -3.492592
  43 H     1.0000    0     1.008   15.581359   -2.397118    1.124009
  44 H     1.0000    0     1.008   16.406980   -3.407743   -2.318127
  45 H     1.0000    0     1.008   14.097546    1.689226   -0.419141
  46 H     1.0000    0     1.008   14.925813    0.675577   -3.864490
  47 H     1.0000    0     1.008    7.602179   -1.707934    4.126973
  48 H     1.0000    0     1.008    3.405286    0.291963    4.139445
  49 H     1.0000    0     1.008   -7.247478    0.427456   -3.382988
  50 H     1.0000    0     1.008  -11.159778    2.582689   -2.162981
  51 H     1.0000    0     1.008  -15.636917    7.066064   -0.205413
  52 H     1.0000    0     1.008   -7.017498    9.574864   -1.330367
  53 H     1.0000    0     1.008   -3.119371    7.390341   -2.557744
  54 H     1.0000    0     1.008    0.928800   -7.173778   -1.543150
  55 H     1.0000    0     1.008   -0.973965  -10.329621    1.285203
  56 H     1.0000    0     1.008   -3.802885  -11.363679    4.836754
  57 H     1.0000    0     1.008   -6.210963   -7.989573    6.994821
  58 H     1.0000    0     1.008   -5.829616   -3.597472    5.652549

--------------------------------
INTERNAL COORDINATES (ANGSTROEM)
--------------------------------
 C      0   0   0     0.000000000000     0.00000000     0.00000000
 C      1   0   0     1.512842394303     0.00000000     0.00000000
 C      2   1   0     1.415978587409   120.74373308     0.00000000
 N      3   2   1     1.433465064102   121.61322025     3.19906802
 C      4   3   2     1.466399529460   120.30459447    80.46073679
 C      5   4   3     1.504385259832   110.15963198    61.38666650
 C      6   5   4     1.402397283226   120.14760780    75.41531518
 C      7   6   5     1.398824206253   120.26322599   183.38952211
 C      8   7   6     1.406594785288   120.32352710   359.63462532
 O      9   8   7     1.401119113423   122.24666987   180.65182705
 C     10   9   8     1.423250216933   123.82866223   357.36667312
 C     11  10   9     1.517318961194   112.64598581   156.33862220
 C     11  10   9     1.517254975276   113.82952939    90.11413963
 C      9   8   7     1.399312749174   119.24061705     0.72483172
 C     14   9   8     1.397672640499   120.49709028   359.90309988
 S      4   3   2     1.736142980863   119.00052062   258.46862643
 O     16   4   3     1.502893016818   110.09860273   214.84800413
 O     16   4   3     1.503317621130   109.73452316   333.72300005
 C     16   4   3     1.757642674152   108.97025240    94.10171989
 C     19  16   4     1.400042402929   120.16595783   269.00666825
 C     20  19  16     1.397742054172   120.26592638   177.43468208
 C     21  20  19     1.406211164797   120.44255073   359.74267699
 C     22  21  20     1.479377608996   120.28574742   180.27986601
 O     23  22  21     1.260129838548   120.44908743   180.81088941
 O     23  22  21     1.392167001476   120.26083803     0.90675490
 C     22  21  20     1.407037813991   118.98895032   359.93025336
 C     26  22  21     1.398196141462   120.43235292     0.00000000
 N      3   2   1     1.358422114072   120.14174744   182.22719749
 C     28   3   2     1.354530361417   122.53725580   359.21756429
 C     29  28   3     1.396706823210   120.16085010   359.31925416
 C     30  29  28     1.402843259242   120.24445500   181.10241978
 C     31  30  29     1.395040873953   120.18355624   179.37920293
 C     32  31  30     1.394715960330   120.11401131     0.13826379
 C     33  32  31     1.397213952836   120.30706756     0.14433633
 C     34  33  32     1.412801681058   120.60009878   359.84188471
 H      1   2   3     1.111345517830   109.76710335   124.33961169
 H      1   2   3     1.106168215056   113.11453488     5.20322425
 H      1   2   3     1.109707326280   109.61994587   244.71465650
 H      5   4   3     1.112105664944   109.68227202   299.47305494
 H      5   4   3     1.112237335284   110.53528498   182.27466083
 H      7   6   5     1.082684303017   120.32205708     2.58496496
 H      8   7   6     1.080309631541   118.73464628   179.76794109
 H     11  10   9     1.111008955859   119.99656671   299.55643197
 H     12  11  10     1.109643568899   115.37369383   358.88612247
 H     12  11  10     1.109762402499   114.34779163   149.52697795
 H     13  11  10     1.111816954359   114.86459593   358.15857852
 H     13  11  10     1.107983443017   113.70331310   209.04244635
 H     14   9   8     1.081329071097   119.95160774   179.58305204
 H     15  14   9     1.082428514961   119.26569021   178.85715268
 H     20  19  16     1.083023794752   120.35916367   358.24839235
 H     21  20  19     1.082585262231   118.78519448   180.02487657
 H     25  23  22     1.012674923161   120.92414248   179.82268767
 H     26  22  21     1.083353261868   120.76248383   180.46070353
 H     27  26  22     1.082669353958   119.43218466   180.99861502
 H     29  28   3     1.082727541905   119.05009084   180.12485017
 H     31  30  29     1.083656047831   120.59740180   359.55408918
 H     32  31  30     1.082087995498   119.94980564   180.29536695
 H     33  32  31     1.081981229042   119.83833862   180.21813703
 H     34  33  32     1.081129918187   117.71339938   180.35640079

---------------------------
INTERNAL COORDINATES (A.U.)
---------------------------
 C      0   0   0     0.000000000000     0.00000000     0.00000000
 C      1   0   0     2.858857809018     0.00000000     0.00000000
 C      2   1   0     2.675811741699   120.74373308     0.00000000
 N      3   2   1     2.708856393696   121.61322025     3.19906802
 C      4   3   2     2.771093513590   120.30459447    80.46073679
 C      5   4   3     2.842876140991   110.15963198    61.38666650
 C      6   5   4     2.650146796253   120.14760780    75.41531518
 C      7   6   5     2.643394659318   120.26322599   183.38952211
 C      8   7   6     2.658078925596   120.32352710   359.63462532
 O      9   8   7     2.647731405373   122.24666987   180.65182705
 C     10   9   8     2.689553130047   123.82866223   357.36667312
 C     11  10   9     2.867317294463   112.64598581   156.33862220
 C     11  10   9     2.867196378601   113.82952939    90.11413963
 C      9   8   7     2.644317871643   119.24061705     0.72483172
 C     14   9   8     2.641218515418   120.49709028   359.90309988
 S      4   3   2     3.280834763161   119.00052062   258.46862643
 O     16   4   3     2.840056210369   110.09860273   214.84800413
 O     16   4   3     2.840858596234   109.73452316   333.72300005
 C     16   4   3     3.321463295440   108.97025240    94.10171989
 C     19  16   4     2.645696717413   120.16595783   269.00666825
 C     20  19  16     2.641349688249   120.26592638   177.43468208
 C     21  20  19     2.657353987929   120.44255073   359.74267699
 C     22  21  20     2.795618529658   120.28574742   180.27986601
 O     23  22  21     2.381300288039   120.44908743   180.81088941
 O     23  22  21     2.630814365473   120.26083803     0.90675490
 C     22  21  20     2.658916128514   118.98895032   359.93025336
 C     26  22  21     2.642207788869   120.43235292     0.00000000
 N      3   2   1     2.567045769859   120.14174744   182.22719749
 C     28   3   2     2.559691423159   122.53725580   359.21756429
 C     29  28   3     2.639393385245   120.16085010   359.31925416
 C     30  29  28     2.650989568784   120.24445500   181.10241978
 C     31  30  29     2.636245197398   120.18355624   179.37920293
 C     32  31  30     2.635631199633   120.11401131     0.13826379
 C     33  32  31     2.640351721354   120.30706756     0.14433633
 C     34  33  32     2.669808258743   120.60009878   359.84188471
 H      1   2   3     2.100138668859   109.76710335   124.33961169
 H      1   2   3     2.090354984504   113.11453488     5.20322425
 H      1   2   3     2.097042935476   109.61994587   244.71465650
 H      5   4   3     2.101575138726   109.68227202   299.47305494
 H      5   4   3     2.101823959609   110.53528498   182.27466083
 H      7   6   5     2.045976822198   120.32205708     2.58496496
 H      8   7   6     2.041489343450   118.73464628   179.76794109
 H     11  10   9     2.099502658908   119.99656671   299.55643197
 H     12  11  10     2.096922451487   115.37369383   358.88612247
 H     12  11  10     2.097147014445   114.34779163   149.52697795
 H     13  11  10     2.101029554789   114.86459593   358.15857852
 H     13  11  10     2.093785268221   113.70331310   209.04244635
 H     14   9   8     2.043415805021   119.95160774   179.58305204
 H     15  14   9     2.045493452823   119.26569021   178.85715268
 H     20  19  16     2.046618368602   120.35916367   358.24839235
 H     21  20  19     2.045789662236   118.78519448   180.02487657
 H     25  23  22     1.913678267465   120.92414248   179.82268767
 H     26  22  21     2.047240971221   120.76248383   180.46070353
 H     27  26  22     2.045948572570   119.43218466   180.99861502
 H     29  28   3     2.046058531855   119.05009084   180.12485017
 H     31  30  29     2.047813153767   120.59740180   359.55408918
 H     32  31  30     2.044849964294   119.94980564   180.29536695
 H     33  32  31     2.044648204934   119.83833862   180.21813703
 H     34  33  32     2.043039460563   117.71339938   180.35640079

---------------------
BASIS SET INFORMATION
---------------------
There are 5 groups of distinct atoms

 Group   1 Type C   : 10s4p1d contracted to 3s2p1d pattern {631/31/1}
 Group   2 Type N   : 10s4p1d contracted to 3s2p1d pattern {631/31/1}
 Group   3 Type O   : 10s4p1d contracted to 3s2p1d pattern {631/31/1}
 Group   4 Type S   : 16s10p1d contracted to 4s3p1d pattern {6631/631/1}
 Group   5 Type H   : 4s contracted to 2s pattern {31}

Atom   0C    basis set group =>   1
Atom   1C    basis set group =>   1
Atom   2C    basis set group =>   1
Atom   3N    basis set group =>   2
Atom   4C    basis set group =>   1
Atom   5C    basis set group =>   1
Atom   6C    basis set group =>   1
Atom   7C    basis set group =>   1
Atom   8C    basis set group =>   1
Atom   9O    basis set group =>   3
Atom  10C    basis set group =>   1
Atom  11C    basis set group =>   1
Atom  12C    basis set group =>   1
Atom  13C    basis set group =>   1
Atom  14C    basis set group =>   1
Atom  15S    basis set group =>   4
Atom  16O    basis set group =>   3
Atom  17O    basis set group =>   3
Atom  18C    basis set group =>   1
Atom  19C    basis set group =>   1
Atom  20C    basis set group =>   1
Atom  21C    basis set group =>   1
Atom  22C    basis set group =>   1
Atom  23O    basis set group =>   3
Atom  24O    basis set group =>   3
Atom  25C    basis set group =>   1
Atom  26C    basis set group =>   1
Atom  27N    basis set group =>   2
Atom  28C    basis set group =>   1
Atom  29C    basis set group =>   1
Atom  30C    basis set group =>   1
Atom  31C    basis set group =>   1
Atom  32C    basis set group =>   1
Atom  33C    basis set group =>   1
Atom  34C    basis set group =>   1
Atom  35H    basis set group =>   5
Atom  36H    basis set group =>   5
Atom  37H    basis set group =>   5
Atom  38H    basis set group =>   5
Atom  39H    basis set group =>   5
Atom  40H    basis set group =>   5
Atom  41H    basis set group =>   5
Atom  42H    basis set group =>   5
Atom  43H    basis set group =>   5
Atom  44H    basis set group =>   5
Atom  45H    basis set group =>   5
Atom  46H    basis set group =>   5
Atom  47H    basis set group =>   5
Atom  48H    basis set group =>   5
Atom  49H    basis set group =>   5
Atom  50H    basis set group =>   5
Atom  51H    basis set group =>   5
Atom  52H    basis set group =>   5
Atom  53H    basis set group =>   5
Atom  54H    basis set group =>   5
Atom  55H    basis set group =>   5
Atom  56H    basis set group =>   5
Atom  57H    basis set group =>   5
Atom  58H    basis set group =>   5
---------------------------------
AUXILIARY/J BASIS SET INFORMATION
---------------------------------
There are 5 groups of distinct atoms

 Group   1 Type C   : 12s5p4d2f1g contracted to 6s4p3d1f1g pattern {711111/2111/211/2/1}
 Group   2 Type N   : 12s5p4d2f1g contracted to 6s4p3d1f1g pattern {711111/2111/211/2/1}
 Group   3 Type O   : 12s5p4d2f1g contracted to 6s4p3d1f1g pattern {711111/2111/211/2/1}
 Group   4 Type S   : 14s5p5d2f1g contracted to 8s4p3d1f1g pattern {71111111/2111/311/2/1}
 Group   5 Type H   : 5s2p1d contracted to 3s1p1d pattern {311/2/1}

Atom   0C    basis set group =>   1
Atom   1C    basis set group =>   1
Atom   2C    basis set group =>   1
Atom   3N    basis set group =>   2
Atom   4C    basis set group =>   1
Atom   5C    basis set group =>   1
Atom   6C    basis set group =>   1
Atom   7C    basis set group =>   1
Atom   8C    basis set group =>   1
Atom   9O    basis set group =>   3
Atom  10C    basis set group =>   1
Atom  11C    basis set group =>   1
Atom  12C    basis set group =>   1
Atom  13C    basis set group =>   1
Atom  14C    basis set group =>   1
Atom  15S    basis set group =>   4
Atom  16O    basis set group =>   3
Atom  17O    basis set group =>   3
Atom  18C    basis set group =>   1
Atom  19C    basis set group =>   1
Atom  20C    basis set group =>   1
Atom  21C    basis set group =>   1
Atom  22C    basis set group =>   1
Atom  23O    basis set group =>   3
Atom  24O    basis set group =>   3
Atom  25C    basis set group =>   1
Atom  26C    basis set group =>   1
Atom  27N    basis set group =>   2
Atom  28C    basis set group =>   1
Atom  29C    basis set group =>   1
Atom  30C    basis set group =>   1
Atom  31C    basis set group =>   1
Atom  32C    basis set group =>   1
Atom  33C    basis set group =>   1
Atom  34C    basis set group =>   1
Atom  35H    basis set group =>   5
Atom  36H    basis set group =>   5
Atom  37H    basis set group =>   5
Atom  38H    basis set group =>   5
Atom  39H    basis set group =>   5
Atom  40H    basis set group =>   5
Atom  41H    basis set group =>   5
Atom  42H    basis set group =>   5
Atom  43H    basis set group =>   5
Atom  44H    basis set group =>   5
Atom  45H    basis set group =>   5
Atom  46H    basis set group =>   5
Atom  47H    basis set group =>   5
Atom  48H    basis set group =>   5
Atom  49H    basis set group =>   5
Atom  50H    basis set group =>   5
Atom  51H    basis set group =>   5
Atom  52H    basis set group =>   5
Atom  53H    basis set group =>   5
Atom  54H    basis set group =>   5
Atom  55H    basis set group =>   5
Atom  56H    basis set group =>   5
Atom  57H    basis set group =>   5
Atom  58H    basis set group =>   5
------------------------------------------------------------------------------
                             ORCA STARTUP CALCULATIONS
                           -- RI-GTO INTEGRALS CHOSEN --
------------------------------------------------------------------------------
------------------------------------------------------------------------------
                   ___                                                        
                  /   \      - P O W E R E D   B Y -                         
                 /     \                                                     
                 |  |  |   _    _      __       _____    __    __             
                 |  |  |  | |  | |    /  \     |  _  \  |  |  /  |          
                  \  \/   | |  | |   /    \    | | | |  |  | /  /          
                 / \  \   | |__| |  /  /\  \   | |_| |  |  |/  /          
                |  |  |   |  __  | /  /__\  \  |    /   |      \           
                |  |  |   | |  | | |   __   |  |    \   |  |\   \          
                \     /   | |  | | |  |  |  |  | |\  \  |  | \   \       
                 \___/    |_|  |_| |__|  |__|  |_| \__\ |__|  \__/        
                                                                              
                      - O R C A' S   B I G   F R I E N D -                    
                                      &                                       
                       - I N T E G R A L  F E E D E R -                       
                                                                              
 v1 FN, 2020, v2 2021, v3 2022-2024                                           
------------------------------------------------------------------------------


----------------------
SHARK INTEGRAL PACKAGE
----------------------

Number of atoms                             ...     59
Number of basis functions                   ...    542
Number of shells                            ...    260
Maximum angular momentum                    ...      2
Integral batch strategy                     ... SHARK/LIBINT Hybrid
RI-J (if used) integral strategy            ... SPLIT-RIJ (Revised 2003 algorithm where possible)
Printlevel                                  ...      1
Contraction scheme used                     ... SEGMENTED contraction
Prescreening option                         ... SCHWARTZ
   Thresh                                   ... 1.000e-10
   Tcut                                     ... 1.000e-11
   Tpresel                                  ... 1.000e-11 
Coulomb Range Separation                    ... NOT USED
Exchange Range Separation                   ... NOT USED
Multipole approximations                    ... NOT USED
Finite Nucleus Model                        ... NOT USED
CABS basis                                  ... NOT available
Auxiliary Coulomb fitting basis             ... AVAILABLE
   # of basis functions in Aux-J            ...   1981
   # of shells in Aux-J                     ...    647
   Maximum angular momentum in Aux-J        ...      4
Auxiliary J/K fitting basis                 ... NOT available
Auxiliary Correlation fitting basis         ... NOT available
Auxiliary 'external' fitting basis          ... NOT available

Checking pre-screening integrals            ... done (  0.0 sec) Dimension = 260
Check shell pair data                       ... done (  0.0 sec)
Shell pair information
Shell pair cut-off parameter TPreSel        ...   1.0e-11
Total number of shell pairs                 ...     33930
Shell pairs after pre-screening             ...     17902
Total number of primitive shell pairs       ...    201498
Primitive shell pairs kept                  ...     54384
          la=0 lb=0:   5839 shell pairs
          la=1 lb=0:   6345 shell pairs
          la=1 lb=1:   1726 shell pairs
          la=2 lb=0:   2369 shell pairs
          la=2 lb=1:   1371 shell pairs
          la=2 lb=2:    252 shell pairs

Calculating one electron integrals          ... done (  0.2 sec)
Calculating RI/J V-Matrix + Cholesky decomp.... done (  0.5 sec)
Calculating Nuclear repulsion               ... done (  0.0 sec) ENN=   3750.442671762332 Eh

Diagonalization of the overlap matrix:
Smallest eigenvalue                        ... 3.535e-04
Time for diagonalization                   ...    0.049 sec
Threshold for overlap eigenvalues          ... 1.000e-07
Number of eigenvalues below threshold      ... 0
Time for construction of square roots      ...    0.036 sec
Total time needed                          ...    0.096 sec

-------------------
DFT GRID GENERATION
-------------------

General Integration Accuracy     IntAcc      ... 4.388
Radial Grid Type                 RadialGrid  ... OptM3 with GC (2021)
Angular Grid (max. ang.)         AngularGrid ... 4 (Lebedev-302)
Angular grid pruning method      GridPruning ... 4 (adaptive)
Weight generation scheme         WeightScheme... mBecke (2022)
Basis function cutoff            BFCut       ... 1.0000e-10
Integration weight cutoff        WCut        ... 1.0000e-14
Partially contracted basis set               ... off
Rotationally invariant grid construction     ... off
Angular grids for H and He will be reduced by one unit

Total number of grid points                  ...   286503
Total number of batches                      ...     4508
Average number of points per batch           ...       63
Average number of grid points per atom       ...     4856

--------------------
COSX GRID GENERATION
--------------------

GRIDX 1
-------
General Integration Accuracy     IntAcc      ... 3.816
Radial Grid Type                 RadialGrid  ... OptM3 with GC (2021)
Angular Grid (max. ang.)         AngularGrid ... 1 (Lebedev-50)
Angular grid pruning method      GridPruning ... 4 (adaptive)
Weight generation scheme         WeightScheme... mBecke (2022)
Basis function cutoff            BFCut       ... 1.0000e-10
Integration weight cutoff        WCut        ... 1.0000e-14
Partially contracted basis set               ... on
Rotationally invariant grid construction     ... off
Angular grids for H and He will be reduced by one unit

Total number of grid points                  ...    37343
Total number of batches                      ...      325
Average number of points per batch           ...      114
Average number of grid points per atom       ...      633
UseSFitting                                  ... on

GRIDX 2
-------
General Integration Accuracy     IntAcc      ... 4.020
Radial Grid Type                 RadialGrid  ... OptM3 with GC (2021)
Angular Grid (max. ang.)         AngularGrid ... 2 (Lebedev-110)
Angular grid pruning method      GridPruning ... 4 (adaptive)
Weight generation scheme         WeightScheme... mBecke (2022)
Basis function cutoff            BFCut       ... 1.0000e-10
Integration weight cutoff        WCut        ... 1.0000e-14
Partially contracted basis set               ... on
Rotationally invariant grid construction     ... off
Angular grids for H and He will be reduced by one unit

Total number of grid points                  ...    78880
Total number of batches                      ...      647
Average number of points per batch           ...      121
Average number of grid points per atom       ...     1337
UseSFitting                                  ... on

GRIDX 3
-------
General Integration Accuracy     IntAcc      ... 4.338
Radial Grid Type                 RadialGrid  ... OptM3 with GC (2021)
Angular Grid (max. ang.)         AngularGrid ... 3 (Lebedev-194)
Angular grid pruning method      GridPruning ... 4 (adaptive)
Weight generation scheme         WeightScheme... mBecke (2022)
Basis function cutoff            BFCut       ... 1.0000e-10
Integration weight cutoff        WCut        ... 1.0000e-14
Partially contracted basis set               ... on
Rotationally invariant grid construction     ... off
Angular grids for H and He will be reduced by one unit

Total number of grid points                  ...   172753
Total number of batches                      ...     1382
Average number of points per batch           ...      125
Average number of grid points per atom       ...     2928
UseSFitting                                  ... on
Initializing property integral containers    ... done (  0.0 sec)

SHARK setup successfully completed in  13.9 seconds

Maximum memory used throughout the entire STARTUP-calculation: 124.1 MB
-------------------------------------------------------------------------------
                                 ORCA GUESS
                   Start orbitals & Density for SCF / CASSCF
-------------------------------------------------------------------------------

------------
SCF SETTINGS
------------
Hamiltonian:
 Density Functional     Method          .... DFT(GTOs)
 Exchange Functional    Exchange        .... B88
   X-Alpha parameter    XAlpha          ....  0.666667
   Becke's b parameter  XBeta           ....  0.004200
 Correlation Functional Correlation     .... LYP
 LDA part of GGA corr.  LDAOpt          .... VWN-5
 Gradients option       PostSCFGGA      .... off
 Hybrid DFT is turned on
   Fraction HF Exchange ScalHFX         ....  0.200000
   Scaling of DF-GGA-X  ScalDFX         ....  0.720000
   Scaling of DF-GGA-C  ScalDFC         ....  0.810000
   Scaling of DF-LDA-C  ScalLDAC        ....  1.000000
   Perturbative correction              ....  0.000000
   NL short-range parameter             ....  4.800000
 RI-approximation to the Coulomb term is turned on
   Number of AuxJ basis functions       .... 1981
   RIJ-COSX (HFX calculated with COS-X)).... on


General Settings:
 Integral files         IntName         .... /home/nmrbox/aojoawo/Documents/ERDOS/inputs/CHEMBL3682562
 Hartree-Fock type      HFTyp           .... RHF
 Total Charge           Charge          ....    0
 Multiplicity           Mult            ....    1
 Number of Electrons    NEL             ....  256
 Basis Dimension        Dim             ....  542
 Nuclear Repulsion      ENuc            ....   3750.4426717623 Eh

Convergence Acceleration:
 AO-DIIS                CNVDIIS         .... on
   Start iteration      DIISMaxIt       ....    12
   Startup error        DIISStart       ....  0.200000
   # of expansion vecs  DIISMaxEq       ....     5
   Bias factor          DIISBfac        ....   1.050
   Max. coefficient     DIISMaxC        ....  10.000
 MO-DIIS                CNVKDIIS        .... off
 Trust-Rad. Augm. Hess. CNVTRAH         .... auto
   Auto Start mean grad. ratio tolernc. ....  1.125000
   Auto Start start iteration           ....    50
   Auto Start num. interpolation iter.  ....    10
   Max. Number of Micro iterations      ....    24
   Max. Number of Macro iterations      .... Maxiter - #DIIS iter
   Number of Davidson start vectors     ....     2
   Converg. threshold    (grad. norm)   ....   5.000e-05
   Grad. Scal. Fac. for Micro threshold ....   0.100
   Minimum threshold for Micro iter.    ....   1.000e-02
   NR start threshold (gradient norm)   ....   1.000e-04
   Initial trust radius                 ....   0.400
   Minimum AH scaling param. (alpha)    ....   1.000
   Maximum AH scaling param. (alpha)    .... 1000.000
   Quad. conv. algorithm                .... NR
   White noise on init. David. guess    .... on
   Maximum white noise                  ....   0.010
   Pseudo random numbers                .... off
   Inactive MOs                         .... canonical
   Orbital update algorithm             .... Taylor
   Preconditioner                       .... Diag
   Full preconditioner red. dimension   ....   250
 SOSCF                  CNVSOSCF        .... on
   Start iteration      SOSCFMaxIt      ....   150
   Startup grad/error   SOSCFStart      ....  0.003300
   Hessian update       SOSCFHessUp     .... L-BFGS
 Level Shifting         CNVShift        .... on
   Level shift para.    LevelShift      ....    0.2500
   Turn off err/grad.   ShiftErr        ....    0.0010
 Zerner damping         CNVZerner       .... off
 Static damping         CNVDamp         .... on
   Fraction old density DampFac         ....    0.7000
   Max. Damping (<1)    DampMax         ....    0.9800
   Min. Damping (>=0)   DampMin         ....    0.0000
   Turn off err/grad.   DampErr         ....    0.1000

SCF Procedure:
 Maximum # iterations   MaxIter         ....   125
 SCF integral mode      SCFMode         .... Direct
   Integral package                     .... SHARK and LIBINT hybrid scheme
 Reset frequency        DirectResetFreq ....    20
 Integral Threshold     Thresh          ....  1.000e-10 Eh
 Primitive CutOff       TCut            ....  1.000e-11 Eh

Convergence Tolerance:
 Convergence Check Mode ConvCheckMode   .... Total+1el-Energy
 Convergence forced     ConvForced      .... 0
 Energy Change          TolE            ....  1.000e-06 Eh
 1-El. energy change                    ....  1.000e-03 Eh
 Orbital Gradient       TolG            ....  5.000e-05
 Orbital Rotation angle TolX            ....  5.000e-05
 DIIS Error             TolErr          ....  1.000e-06

------------------------------
INITIAL GUESS: MODEL POTENTIAL
------------------------------
Loading Hartree-Fock densities                     ... done
Calculating cut-offs                               ... done
Initializing the effective Hamiltonian             ... done
Setting up the integral package (SHARK)            ... done
Starting the Coulomb interaction                   ... done (   4.7 sec)
Making the grid                                    ... done (   1.8 sec)
Mapping shells                                     ... done
Starting the XC term evaluation                    ... done (   1.2 sec)
  promolecular density results
     # of electrons  =    255.990928642
     EX              =   -225.119368433
     EC              =     -8.885095390
     EX+EC           =   -234.004463823
Transforming the Hamiltonian                       ... done (   0.0 sec)
Diagonalizing the Hamiltonian                      ... done (   0.1 sec)
Back transforming the eigenvectors                 ... done (   0.0 sec)
Now organizing SCF variables                       ... done
                      ------------------
                      INITIAL GUESS DONE (   7.8 sec)
                      ------------------
             **** ENERGY FILE WAS UPDATED (/home/nmrbox/aojoawo/Documents/ERDOS/inputs/CHEMBL3682562.en.tmp) ****
Finished Guess after   8.2 sec
Maximum memory used throughout the entire GUESS-calculation: 67.5 MB

-------------------------------------------------------------------------------------------
                                      ORCA LEAN-SCF
                              memory conserving SCF solver
-------------------------------------------------------------------------------------------

----------------------------------------D-I-I-S--------------------------------------------
Iteration    Energy (Eh)           Delta-E    RMSDP     MaxDP     DIISErr   Damp  Time(sec)
-------------------------------------------------------------------------------------------
               ***  Starting incremental Fock matrix formation  ***
    1    -1925.0208858622886510     0.00e+00  2.44e-03  1.87e-01  2.99e-01  0.700  70.8
Warning: op=0 Small HOMO/LUMO gap (   0.097) - skipping pre-diagonalization
         Will do a full diagonalization
    2    -1925.4944760132616466    -4.74e-01  1.43e-03  6.59e-02  9.87e-02  0.700  31.9
                               ***Turning on AO-DIIS***
    3    -1925.6672079559989470    -1.73e-01  5.76e-04  1.63e-02  3.71e-02  0.700  31.2
    4    -1925.7739470463288853    -1.07e-01  9.72e-04  2.49e-02  1.76e-02  0.000  30.0
    5    -1926.0113115955668945    -2.37e-01  2.18e-04  8.26e-03  6.16e-03  0.000  30.4
                              *** Initializing SOSCF ***
---------------------------------------S-O-S-C-F--------------------------------------
Iteration    Energy (Eh)           Delta-E    RMSDP     MaxDP     MaxGrad    Time(sec)
--------------------------------------------------------------------------------------
    6    -1926.0127724598146415    -1.46e-03  7.24e-05  2.90e-03  2.25e-03    25.3
               *** Restarting incremental Fock matrix formation ***
    7    -1926.0128247376974286    -5.23e-05  6.88e-05  3.72e-03  5.58e-04    72.3
    8    -1926.0127599149341222     6.48e-05  4.33e-05  2.35e-03  1.01e-03    41.6
    9    -1926.0128528546188136    -9.29e-05  1.27e-05  8.68e-04  1.02e-04    37.4
   10    -1926.0128507230115247     2.13e-06  7.74e-06  5.73e-04  1.91e-04    30.3
   11    -1926.0128539017082403    -3.18e-06  2.34e-06  1.15e-04  2.71e-05    30.3
   12    -1926.0128539787015143    -7.70e-08  1.42e-06  7.36e-05  4.19e-05    24.3
                 **** Energy Check signals convergence ****

               *****************************************************
               *                     SUCCESS                       *
               *           SCF CONVERGED AFTER  12 CYCLES          *
               *****************************************************

Recomputing exchange energy using gridx3       ... done (  144.710 sec)
Old exchange energy                            :    -45.571603995 Eh
New exchange energy                            :    -45.571642098 Eh
Exchange energy change after final integration :     -0.000038103 Eh
Total energy after final integration           :  -1926.012892082 Eh
             **** ENERGY FILE WAS UPDATED (/home/nmrbox/aojoawo/Documents/ERDOS/inputs/CHEMBL3682562.en.tmp) ****

----------------
TOTAL SCF ENERGY
----------------

Total Energy       :      -1926.01289208163234 Eh          -52409.47524 eV

Components:
Nuclear Repulsion  :       3750.44267176233234 Eh          102054.73346 eV
Electronic Energy  :      -5676.45552574103385 Eh         -154464.20766 eV
One Electron Energy:     -10091.73629603336667 Eh         -274610.10552 eV
Two Electron Energy:       4415.28077029233282 Eh          120145.89786 eV

Virial components:
Potential Energy   :      -3840.96190719219521 Eh         -104517.88708 eV
Kinetic Energy     :       1914.94901511056287 Eh           52108.41184 eV
Virial Ratio       :          2.00577763527058

DFT components:
N(Alpha)           :      127.999937745831 electrons
N(Beta)            :      127.999937745831 electrons
N(Total)           :      255.999875491662 electrons
E(X)               :     -181.092060996921 Eh       
E(C)               :      -10.448576171428 Eh       
E(XC)              :     -191.540637168349 Eh       

---------------
SCF CONVERGENCE
---------------

  Last Energy change         ...    7.6993e-08  Tolerance :   1.0000e-06
  Last MAX-Density change    ...    7.3626e-05  Tolerance :   1.0000e-05
  Last RMS-Density change    ...    1.4248e-06  Tolerance :   1.0000e-06
  Last DIIS Error            ...    2.2504e-03  Tolerance :   1.0000e-06
  Last Orbital Gradient      ...    4.1857e-05  Tolerance :   5.0000e-05
  Last Orbital Rotation      ...    5.5926e-05  Tolerance :   5.0000e-05


----------------
ORBITAL ENERGIES
----------------

  NO   OCC          E(Eh)            E(eV) 
   0   2.0000     -89.093356     -2424.3535 
   1   2.0000     -19.196917      -522.3747 
   2   2.0000     -19.161509      -521.4112 
   3   2.0000     -19.138377      -520.7817 
   4   2.0000     -19.124346      -520.3999 
   5   2.0000     -19.119564      -520.2698 
   6   2.0000     -14.365364      -390.9014 
   7   2.0000     -14.323830      -389.7712 
   8   2.0000     -10.335807      -281.2516 
   9   2.0000     -10.256609      -279.0965 
  10   2.0000     -10.240744      -278.6648 
  11   2.0000     -10.240028      -278.6453 
  12   2.0000     -10.236647      -278.5533 
  13   2.0000     -10.231883      -278.4237 
  14   2.0000     -10.226357      -278.2733 
  15   2.0000     -10.220490      -278.1137 
  16   2.0000     -10.219664      -278.0912 
  17   2.0000     -10.218906      -278.0706 
  18   2.0000     -10.218080      -278.0481 
  19   2.0000     -10.217539      -278.0334 
  20   2.0000     -10.210372      -277.8383 
  21   2.0000     -10.206173      -277.7241 
  22   2.0000     -10.198482      -277.5148 
  23   2.0000     -10.198072      -277.5037 
  24   2.0000     -10.196745      -277.4675 
  25   2.0000     -10.196660      -277.4652 
  26   2.0000     -10.195417      -277.4314 
  27   2.0000     -10.190142      -277.2879 
  28   2.0000     -10.184265      -277.1279 
  29   2.0000     -10.181840      -277.0619 
  30   2.0000     -10.177633      -276.9475 
  31   2.0000     -10.176164      -276.9075 
  32   2.0000     -10.171731      -276.7869 
  33   2.0000     -10.171710      -276.7863 
  34   2.0000     -10.170413      -276.7510 
  35   2.0000      -8.128938      -221.1997 
  36   2.0000      -6.093865      -165.8225 
  37   2.0000      -6.092024      -165.7724 
  38   2.0000      -6.091692      -165.7634 
  39   2.0000      -1.081837       -29.4383 
  40   2.0000      -1.079369       -29.3711 
  41   2.0000      -1.039974       -28.2991 
  42   2.0000      -0.995921       -27.1004 
  43   2.0000      -0.959481       -26.1088 
  44   2.0000      -0.955357       -25.9966 
  45   2.0000      -0.909009       -24.7354 
  46   2.0000      -0.890129       -24.2216 
  47   2.0000      -0.863141       -23.4873 
  48   2.0000      -0.852080       -23.1863 
  49   2.0000      -0.832231       -22.6462 
  50   2.0000      -0.808770       -22.0078 
  51   2.0000      -0.805735       -21.9252 
  52   2.0000      -0.776597       -21.1323 
  53   2.0000      -0.775307       -21.0972 
  54   2.0000      -0.757052       -20.6004 
  55   2.0000      -0.742057       -20.1924 
  56   2.0000      -0.735431       -20.0121 
  57   2.0000      -0.713041       -19.4028 
  58   2.0000      -0.701239       -19.0817 
  59   2.0000      -0.676498       -18.4084 
  60   2.0000      -0.652129       -17.7453 
  61   2.0000      -0.643621       -17.5138 
  62   2.0000      -0.638524       -17.3751 
  63   2.0000      -0.621065       -16.9000 
  64   2.0000      -0.615615       -16.7517 
  65   2.0000      -0.599687       -16.3183 
  66   2.0000      -0.595658       -16.2087 
  67   2.0000      -0.591409       -16.0930 
  68   2.0000      -0.586388       -15.9564 
  69   2.0000      -0.563061       -15.3217 
  70   2.0000      -0.559399       -15.2220 
  71   2.0000      -0.541934       -14.7468 
  72   2.0000      -0.532220       -14.4824 
  73   2.0000      -0.529819       -14.4171 
  74   2.0000      -0.509828       -13.8731 
  75   2.0000      -0.501746       -13.6532 
  76   2.0000      -0.491294       -13.3688 
  77   2.0000      -0.481945       -13.1144 
  78   2.0000      -0.478268       -13.0143 
  79   2.0000      -0.476731       -12.9725 
  80   2.0000      -0.471214       -12.8224 
  81   2.0000      -0.470464       -12.8020 
  82   2.0000      -0.461344       -12.5538 
  83   2.0000      -0.455363       -12.3911 
  84   2.0000      -0.449208       -12.2236 
  85   2.0000      -0.448504       -12.2044 
  86   2.0000      -0.443988       -12.0815 
  87   2.0000      -0.442195       -12.0327 
  88   2.0000      -0.438323       -11.9274 
  89   2.0000      -0.433921       -11.8076 
  90   2.0000      -0.428893       -11.6708 
  91   2.0000      -0.423992       -11.5374 
  92   2.0000      -0.418576       -11.3900 
  93   2.0000      -0.415661       -11.3107 
  94   2.0000      -0.412507       -11.2249 
  95   2.0000      -0.407137       -11.0788 
  96   2.0000      -0.403156       -10.9704 
  97   2.0000      -0.398635       -10.8474 
  98   2.0000      -0.392474       -10.6798 
  99   2.0000      -0.387326       -10.5397 
 100   2.0000      -0.385776       -10.4975 
 101   2.0000      -0.385148       -10.4804 
 102   2.0000      -0.370407       -10.0793 
 103   2.0000      -0.369312       -10.0495 
 104   2.0000      -0.368470       -10.0266 
 105   2.0000      -0.362739        -9.8706 
 106   2.0000      -0.357805        -9.7364 
 107   2.0000      -0.351861        -9.5746 
 108   2.0000      -0.349622        -9.5137 
 109   2.0000      -0.334923        -9.1137 
 110   2.0000      -0.324440        -8.8285 
 111   2.0000      -0.321021        -8.7354 
 112   2.0000      -0.319746        -8.7007 
 113   2.0000      -0.305313        -8.3080 
 114   2.0000      -0.290786        -7.9127 
 115   2.0000      -0.288763        -7.8576 
 116   2.0000      -0.286797        -7.8041 
 117   2.0000      -0.284655        -7.7459 
 118   2.0000      -0.278928        -7.5900 
 119   2.0000      -0.275256        -7.4901 
 120   2.0000      -0.270088        -7.3495 
 121   2.0000      -0.266760        -7.2589 
 122   2.0000      -0.261710        -7.1215 
 123   2.0000      -0.251294        -6.8380 
 124   2.0000      -0.242845        -6.6081 
 125   2.0000      -0.238363        -6.4862 
 126   2.0000      -0.223285        -6.0759 
 127   2.0000      -0.206346        -5.6150 
 128   0.0000      -0.082680        -2.2498 
 129   0.0000      -0.059479        -1.6185 
 130   0.0000      -0.032984        -0.8975 
 131   0.0000      -0.028656        -0.7798 
 132   0.0000       0.003106         0.0845 
 133   0.0000       0.009061         0.2466 
 134   0.0000       0.018753         0.5103 
 135   0.0000       0.023425         0.6374 
 136   0.0000       0.038672         1.0523 
 137   0.0000       0.047156         1.2832 
 138   0.0000       0.054083         1.4717 
*Only the first 10 virtual orbitals were printed.

                    ********************************
                    * MULLIKEN POPULATION ANALYSIS *
                    ********************************

-----------------------
MULLIKEN ATOMIC CHARGES
-----------------------
   0 C :   -0.543217
   1 C :    0.095402
   2 C :    0.311834
   3 N :   -0.602849
   4 C :   -0.246057
   5 C :    0.161149
   6 C :   -0.157594
   7 C :   -0.198136
   8 C :    0.366222
   9 O :   -0.526048
  10 C :    0.137289
  11 C :   -0.328357
  12 C :   -0.323545
  13 C :   -0.178574
  14 C :   -0.166148
  15 S :    1.204204
  16 O :   -0.550230
  17 O :   -0.532043
  18 C :   -0.115718
  19 C :   -0.146940
  20 C :   -0.149135
  21 C :    0.081869
  22 C :    0.527536
  23 O :   -0.444444
  24 O :   -0.624134
  25 C :   -0.140234
  26 C :   -0.150958
  27 N :   -0.350039
  28 C :   -0.049876
  29 C :    0.136884
  30 C :   -0.201612
  31 C :   -0.127288
  32 C :   -0.120631
  33 C :   -0.201646
  34 C :    0.124416
  35 H :    0.162983
  36 H :    0.170638
  37 H :    0.162368
  38 H :    0.145484
  39 H :    0.180712
  40 H :    0.165168
  41 H :    0.138963
  42 H :    0.152145
  43 H :    0.169964
  44 H :    0.153054
  45 H :    0.169529
  46 H :    0.148676
  47 H :    0.130754
  48 H :    0.120397
  49 H :    0.187026
  50 H :    0.172343
  51 H :    0.434031
  52 H :    0.180366
  53 H :    0.179772
  54 H :    0.155215
  55 H :    0.141337
  56 H :    0.135900
  57 H :    0.136283
  58 H :    0.135541
Sum of atomic charges:   -0.0000000

--------------------------------
MULLIKEN REDUCED ORBITAL CHARGES
--------------------------------
  0 C s       :     3.319026  s :     3.319026
      pz      :     1.077466  p :     3.189877
      px      :     1.062105
      py      :     1.050307
      dz2     :     0.009483  d :     0.034313
      dxz     :     0.003063
      dyz     :     0.006709
      dx2y2   :     0.010011
      dxy     :     0.005048

  1 C s       :     3.180801  s :     3.180801
      pz      :     0.906724  p :     2.684093
      px      :     0.908690
      py      :     0.868678
      dz2     :     0.007962  d :     0.039704
      dxz     :     0.005401
      dyz     :     0.008628
      dx2y2   :     0.009603
      dxy     :     0.008109

  2 C s       :     3.052738  s :     3.052738
      pz      :     0.922243  p :     2.561593
      px      :     0.957011
      py      :     0.682339
      dz2     :     0.012309  d :     0.073836
      dxz     :     0.008740
      dyz     :     0.016963
      dx2y2   :     0.019106
      dxy     :     0.016718

  3 N s       :     3.593919  s :     3.593919
      pz      :     1.298840  p :     3.975711
      px      :     1.468420
      py      :     1.208451
      dz2     :     0.006909  d :     0.033219
      dxz     :     0.005283
      dyz     :     0.007920
      dx2y2   :     0.006244
      dxy     :     0.006862

  4 C s       :     3.248417  s :     3.248417
      pz      :     1.019238  p :     2.941919
      px      :     0.929335
      py      :     0.993346
      dz2     :     0.011732  d :     0.055721
      dxz     :     0.009939
      dyz     :     0.009951
      dx2y2   :     0.013329
      dxy     :     0.010770

  5 C s       :     3.110846  s :     3.110846
      pz      :     0.874217  p :     2.688523
      px      :     0.856358
      py      :     0.957949
      dz2     :     0.009948  d :     0.039481
      dxz     :     0.010662
      dyz     :     0.006987
      dx2y2   :     0.005941
      dxy     :     0.005943

  6 C s       :     3.202925  s :     3.202925
      pz      :     0.992800  p :     2.918257
      px      :     0.950131
      py      :     0.975327
      dz2     :     0.008163  d :     0.036412
      dxz     :     0.009760
      dyz     :     0.006926
      dx2y2   :     0.005483
      dxy     :     0.006079

  7 C s       :     3.188914  s :     3.188914
      pz      :     0.960345  p :     2.974924
      px      :     0.998717
      py      :     1.015861
      dz2     :     0.007324  d :     0.034298
      dxz     :     0.011731
      dyz     :     0.004720
      dx2y2   :     0.005759
      dxy     :     0.004765

  8 C s       :     3.077317  s :     3.077317
      pz      :     0.891089  p :     2.490013
      px      :     0.703816
      py      :     0.895108
      dz2     :     0.013820  d :     0.066448
      dxz     :     0.015758
      dyz     :     0.008317
      dx2y2   :     0.014257
      dxy     :     0.014297

  9 O s       :     3.880009  s :     3.880009
      pz      :     1.542166  p :     4.618511
      px      :     1.344642
      py      :     1.731703
      dz2     :     0.006361  d :     0.027528
      dxz     :     0.006506
      dyz     :     0.003421
      dx2y2   :     0.004710
      dxy     :     0.006530

 10 C s       :     3.121839  s :     3.121839
      pz      :     0.857474  p :     2.670861
      px      :     0.777470
      py      :     1.035916
      dz2     :     0.014490  d :     0.070011
      dxz     :     0.018325
      dyz     :     0.011347
      dx2y2   :     0.012149
      dxy     :     0.013701

 11 C s       :     3.274125  s :     3.274125
      pz      :     1.050953  p :     3.014656
      px      :     0.962083
      py      :     1.001619
      dz2     :     0.009585  d :     0.039576
      dxz     :     0.006202
      dyz     :     0.006233
      dx2y2   :     0.009004
      dxy     :     0.008552

 12 C s       :     3.270343  s :     3.270343
      pz      :     1.056418  p :     3.013524
      px      :     1.069648
      py      :     0.887458
      dz2     :     0.008899  d :     0.039679
      dxz     :     0.003635
      dyz     :     0.009864
      dx2y2   :     0.007921
      dxy     :     0.009361

 13 C s       :     3.192681  s :     3.192681
      pz      :     0.959379  p :     2.951633
      px      :     0.969479
      py      :     1.022775
      dz2     :     0.007082  d :     0.034260
      dxz     :     0.010133
      dyz     :     0.006418
      dx2y2   :     0.004977
      dxy     :     0.005649

 14 C s       :     3.194778  s :     3.194778
      pz      :     0.972855  p :     2.934597
      px      :     0.974882
      py      :     0.986860
      dz2     :     0.008137  d :     0.036773
      dxz     :     0.012035
      dyz     :     0.004479
      dx2y2   :     0.006709
      dxy     :     0.005414

 15 S s       :     5.221429  s :     5.221429
      pz      :     3.012152  p :     9.034802
      px      :     3.041468
      py      :     2.981181
      dz2     :     0.106932  d :     0.539566
      dxz     :     0.098940
      dyz     :     0.110300
      dx2y2   :     0.099078
      dxy     :     0.124317

 16 O s       :     3.927614  s :     3.927614
      pz      :     1.502134  p :     4.595995
      px      :     1.522660
      py      :     1.571201
      dz2     :     0.005076  d :     0.026622
      dxz     :     0.005480
      dyz     :     0.005160
      dx2y2   :     0.005470
      dxy     :     0.005436

 17 O s       :     3.924438  s :     3.924438
      pz      :     1.450421  p :     4.580508
      px      :     1.703491
      py      :     1.426596
      dz2     :     0.005853  d :     0.027097
      dxz     :     0.003379
      dyz     :     0.008000
      dx2y2   :     0.005065
      dxy     :     0.004801

 18 C s       :     3.228038  s :     3.228038
      pz      :     1.031352  p :     2.848835
      px      :     0.875176
      py      :     0.942307
      dz2     :     0.003453  d :     0.038845
      dxz     :     0.004774
      dyz     :     0.006209
      dx2y2   :     0.011176
      dxy     :     0.013233

 19 C s       :     3.207247  s :     3.207247
      pz      :     0.953934  p :     2.903748
      px      :     0.917329
      py      :     1.032484
      dz2     :     0.003700  d :     0.035945
      dxz     :     0.006129
      dyz     :     0.003164
      dx2y2   :     0.013249
      dxy     :     0.009702

 20 C s       :     3.212298  s :     3.212298
      pz      :     0.953330  p :     2.901084
      px      :     0.972827
      py      :     0.974926
      dz2     :     0.004141  d :     0.035754
      dxz     :     0.003450
      dyz     :     0.005098
      dx2y2   :     0.010566
      dxy     :     0.012499

 21 C s       :     3.165281  s :     3.165281
      pz      :     0.991089  p :     2.714502
      px      :     0.871438
      py      :     0.851976
      dz2     :     0.003341  d :     0.038347
      dxz     :     0.005097
      dyz     :     0.005879
      dx2y2   :     0.011851
      dxy     :     0.012178

 22 C s       :     2.996669  s :     2.996669
      pz      :     0.811547  p :     2.365399
      px      :     0.783066
      py      :     0.770786
      dz2     :     0.007986  d :     0.110397
      dxz     :     0.011282
      dyz     :     0.019372
      dx2y2   :     0.027856
      dxy     :     0.043901

 23 O s       :     3.877576  s :     3.877576
      pz      :     1.417053  p :     4.541214
      px      :     1.781549
      py      :     1.342612
      dz2     :     0.003005  d :     0.025654
      dxz     :     0.000374
      dyz     :     0.008979
      dx2y2   :     0.007512
      dxy     :     0.005784

 24 O s       :     3.872164  s :     3.872164
      pz      :     1.785831  p :     4.731065
      px      :     1.252837
      py      :     1.692397
      dz2     :     0.002919  d :     0.020905
      dxz     :     0.002618
      dyz     :     0.003077
      dx2y2   :     0.002373
      dxy     :     0.009918

 25 C s       :     3.215446  s :     3.215446
      pz      :     0.942572  p :     2.889135
      px      :     0.944547
      py      :     1.002016
      dz2     :     0.003495  d :     0.035653
      dxz     :     0.005935
      dyz     :     0.003376
      dx2y2   :     0.012890
      dxy     :     0.009958

 26 C s       :     3.204909  s :     3.204909
      pz      :     0.957962  p :     2.910079
      px      :     1.018954
      py      :     0.933163
      dz2     :     0.004255  d :     0.035969
      dxz     :     0.003412
      dyz     :     0.005328
      dx2y2   :     0.011066
      dxy     :     0.011909

 27 N s       :     3.694026  s :     3.694026
      pz      :     1.357390  p :     3.620523
      px      :     1.274613
      py      :     0.988521
      dz2     :     0.005571  d :     0.035490
      dxz     :     0.004813
      dyz     :     0.010226
      dx2y2   :     0.005835
      dxy     :     0.009045

 28 C s       :     3.163158  s :     3.163158
      pz      :     0.962498  p :     2.832804
      px      :     0.959333
      py      :     0.910973
      dz2     :     0.008358  d :     0.053914
      dxz     :     0.005759
      dyz     :     0.015098
      dx2y2   :     0.010692
      dxy     :     0.014007

 29 C s       :     3.139148  s :     3.139148
      pz      :     0.902438  p :     2.682129
      px      :     0.913636
      py      :     0.866054
      dz2     :     0.007651  d :     0.041839
      dxz     :     0.005839
      dyz     :     0.010253
      dx2y2   :     0.008772
      dxy     :     0.009324

 30 C s       :     3.211408  s :     3.211408
      pz      :     0.976227  p :     2.953920
      px      :     0.979101
      py      :     0.998593
      dz2     :     0.006369  d :     0.036283
      dxz     :     0.005005
      dyz     :     0.009500
      dx2y2   :     0.006738
      dxy     :     0.008671

 31 C s       :     3.193782  s :     3.193782
      pz      :     0.962810  p :     2.897118
      px      :     0.963568
      py      :     0.970740
      dz2     :     0.007155  d :     0.036387
      dxz     :     0.005232
      dyz     :     0.008445
      dx2y2   :     0.009655
      dxy     :     0.005900

 32 C s       :     3.195623  s :     3.195623
      pz      :     0.977141  p :     2.888428
      px      :     0.969026
      py      :     0.942261
      dz2     :     0.005227  d :     0.036580
      dxz     :     0.006609
      dyz     :     0.008864
      dx2y2   :     0.007742
      dxy     :     0.008137

 33 C s       :     3.208349  s :     3.208349
      pz      :     0.995286  p :     2.957697
      px      :     1.002669
      py      :     0.959743
      dz2     :     0.005807  d :     0.035600
      dxz     :     0.005509
      dyz     :     0.009504
      dx2y2   :     0.006048
      dxy     :     0.008732

 34 C s       :     3.135881  s :     3.135881
      pz      :     0.893456  p :     2.698366
      px      :     0.918614
      py      :     0.886296
      dz2     :     0.007994  d :     0.041337
      dxz     :     0.005614
      dyz     :     0.010232
      dx2y2   :     0.008531
      dxy     :     0.008965

 35 H s       :     0.837017  s :     0.837017

 36 H s       :     0.829362  s :     0.829362

 37 H s       :     0.837632  s :     0.837632

 38 H s       :     0.854516  s :     0.854516

 39 H s       :     0.819288  s :     0.819288

 40 H s       :     0.834832  s :     0.834832

 41 H s       :     0.861037  s :     0.861037

 42 H s       :     0.847855  s :     0.847855

 43 H s       :     0.830036  s :     0.830036

 44 H s       :     0.846946  s :     0.846946

 45 H s       :     0.830471  s :     0.830471

 46 H s       :     0.851324  s :     0.851324

 47 H s       :     0.869246  s :     0.869246

 48 H s       :     0.879603  s :     0.879603

 49 H s       :     0.812974  s :     0.812974

 50 H s       :     0.827657  s :     0.827657

 51 H s       :     0.565969  s :     0.565969

 52 H s       :     0.819634  s :     0.819634

 53 H s       :     0.820228  s :     0.820228

 54 H s       :     0.844785  s :     0.844785

 55 H s       :     0.858663  s :     0.858663

 56 H s       :     0.864100  s :     0.864100

 57 H s       :     0.863717  s :     0.863717

 58 H s       :     0.864459  s :     0.864459



                     *******************************
                     * LOEWDIN POPULATION ANALYSIS *
                     *******************************

----------------------
LOEWDIN ATOMIC CHARGES
----------------------
   0 C :   -0.361911
   1 C :   -0.018919
   2 C :    0.030969
   3 N :   -0.281984
   4 C :   -0.146762
   5 C :   -0.049782
   6 C :   -0.105900
   7 C :   -0.163915
   8 C :    0.090401
   9 O :   -0.171731
  10 C :   -0.020696
  11 C :   -0.255980
  12 C :   -0.267197
  13 C :   -0.153691
  14 C :   -0.126557
  15 S :    1.264363
  16 O :   -0.573834
  17 O :   -0.561197
  18 C :   -0.174680
  19 C :   -0.105914
  20 C :   -0.100087
  21 C :   -0.041505
  22 C :    0.178940
  23 O :   -0.260673
  24 O :   -0.334990
  25 C :   -0.085899
  26 C :   -0.109638
  27 N :   -0.101219
  28 C :   -0.054559
  29 C :   -0.027405
  30 C :   -0.110248
  31 C :   -0.126703
  32 C :   -0.118772
  33 C :   -0.126449
  34 C :   -0.008731
  35 H :    0.137276
  36 H :    0.139090
  37 H :    0.136722
  38 H :    0.118973
  39 H :    0.146485
  40 H :    0.148150
  41 H :    0.138677
  42 H :    0.125921
  43 H :    0.145251
  44 H :    0.135536
  45 H :    0.144758
  46 H :    0.132361
  47 H :    0.137370
  48 H :    0.128733
  49 H :    0.160742
  50 H :    0.154417
  51 H :    0.349670
  52 H :    0.160173
  53 H :    0.157041
  54 H :    0.138933
  55 H :    0.138211
  56 H :    0.135410
  57 H :    0.135892
  58 H :    0.137064

-------------------------------
LOEWDIN REDUCED ORBITAL CHARGES
-------------------------------
  0 C s       :     2.972225  s :     2.972225
      pz      :     1.119021  p :     3.322845
      px      :     1.108273
      py      :     1.095550
      dz2     :     0.017977  d :     0.066842
      dxz     :     0.005610
      dyz     :     0.013428
      dx2y2   :     0.019678
      dxy     :     0.010148

  1 C s       :     2.889066  s :     2.889066
      pz      :     1.006899  p :     3.032258
      px      :     0.989841
      py      :     1.035517
      dz2     :     0.017767  d :     0.097595
      dxz     :     0.014217
      dyz     :     0.022245
      dx2y2   :     0.022747
      dxy     :     0.020618

  2 C s       :     2.846891  s :     2.846891
      pz      :     1.010136  p :     2.944960
      px      :     1.014779
      py      :     0.920045
      dz2     :     0.028491  d :     0.177180
      dxz     :     0.021785
      dyz     :     0.040949
      dx2y2   :     0.046983
      dxy     :     0.038972

  3 N s       :     3.175445  s :     3.175445
      pz      :     1.335554  p :     4.021625
      px      :     1.458944
      py      :     1.227127
      dz2     :     0.018119  d :     0.084914
      dxz     :     0.013730
      dyz     :     0.021409
      dx2y2   :     0.014884
      dxy     :     0.016772

  4 C s       :     2.922432  s :     2.922432
      pz      :     1.062011  p :     3.105496
      px      :     0.998756
      py      :     1.044729
      dz2     :     0.024600  d :     0.118834
      dxz     :     0.021157
      dyz     :     0.020526
      dx2y2   :     0.028511
      dxy     :     0.024040

  5 C s       :     2.874671  s :     2.874671
      pz      :     1.060648  p :     3.075074
      px      :     1.006678
      py      :     1.007748
      dz2     :     0.027305  d :     0.100037
      dxz     :     0.027817
      dyz     :     0.017143
      dx2y2   :     0.014043
      dxy     :     0.013729

  6 C s       :     2.917743  s :     2.917743
      pz      :     1.065319  p :     3.103002
      px      :     1.042335
      py      :     0.995348
      dz2     :     0.019018  d :     0.085155
      dxz     :     0.024986
      dyz     :     0.013430
      dx2y2   :     0.013363
      dxy     :     0.014358

  7 C s       :     2.917568  s :     2.917568
      pz      :     1.060065  p :     3.165119
      px      :     1.067183
      py      :     1.037870
      dz2     :     0.017541  d :     0.081227
      dxz     :     0.026945
      dyz     :     0.011412
      dx2y2   :     0.012959
      dxy     :     0.012370

  8 C s       :     2.860582  s :     2.860582
      pz      :     1.073851  p :     2.891847
      px      :     0.870720
      py      :     0.947277
      dz2     :     0.033541  d :     0.157170
      dxz     :     0.040075
      dyz     :     0.019962
      dx2y2   :     0.031071
      dxy     :     0.032520

  9 O s       :     3.464575  s :     3.464575
      pz      :     1.567345  p :     4.644153
      px      :     1.356958
      py      :     1.719850
      dz2     :     0.013645  d :     0.063003
      dxz     :     0.016577
      dyz     :     0.006583
      dx2y2   :     0.011338
      dxy     :     0.014859

 10 C s       :     2.880918  s :     2.880918
      pz      :     0.973338  p :     2.986324
      px      :     0.900040
      py      :     1.112946
      dz2     :     0.032931  d :     0.153454
      dxz     :     0.040286
      dyz     :     0.023187
      dx2y2   :     0.026556
      dxy     :     0.030494

 11 C s       :     2.944613  s :     2.944613
      pz      :     1.102918  p :     3.229922
      px      :     1.042530
      py      :     1.084473
      dz2     :     0.018808  d :     0.081445
      dxz     :     0.013608
      dyz     :     0.012691
      dx2y2   :     0.018509
      dxy     :     0.017828

 12 C s       :     2.948151  s :     2.948151
      pz      :     1.107624  p :     3.237017
      px      :     1.129374
      py      :     1.000019
      dz2     :     0.017446  d :     0.082029
      dxz     :     0.006981
      dyz     :     0.020956
      dx2y2   :     0.016863
      dxy     :     0.019782

 13 C s       :     2.915129  s :     2.915129
      pz      :     1.057552  p :     3.157427
      px      :     1.056111
      py      :     1.043764
      dz2     :     0.017331  d :     0.081136
      dxz     :     0.025831
      dyz     :     0.012455
      dx2y2   :     0.012269
      dxy     :     0.013249

 14 C s       :     2.916501  s :     2.916501
      pz      :     1.058600  p :     3.124208
      px      :     1.055290
      py      :     1.010318
      dz2     :     0.018790  d :     0.085847
      dxz     :     0.027483
      dyz     :     0.010626
      dx2y2   :     0.015163
      dxy     :     0.013785

 15 S s       :     5.101897  s :     5.101897
      pz      :     2.973704  p :     8.951717
      px      :     3.006444
      py      :     2.971568
      dz2     :     0.129884  d :     0.682024
      dxz     :     0.125898
      dyz     :     0.145438
      dx2y2   :     0.121435
      dxy     :     0.159368

 16 O s       :     3.711032  s :     3.711032
      pz      :     1.569266  p :     4.807443
      px      :     1.600538
      py      :     1.637640
      dz2     :     0.007261  d :     0.055359
      dxz     :     0.012735
      dyz     :     0.012330
      dx2y2   :     0.007977
      dxy     :     0.015055

 17 O s       :     3.711634  s :     3.711634
      pz      :     1.531882  p :     4.793510
      px      :     1.729478
      py      :     1.532150
      dz2     :     0.008214  d :     0.056053
      dxz     :     0.005358
      dyz     :     0.022666
      dx2y2   :     0.011650
      dxy     :     0.008164

[...]
      pz      :     1.366524  p :     3.781374
      px      :     1.283670
      py      :     1.131180
      dz2     :     0.009462  d :     0.079413
      dxz     :     0.006688
      dyz     :     0.024706
      dx2y2   :     0.016482
      dxy     :     0.022075

 28 C s       :     2.912357  s :     2.912357
      pz      :     1.004015  p :     3.018727
      px      :     0.993296
      py      :     1.021415
      dz2     :     0.019011  d :     0.123476
      dxz     :     0.013123
      dyz     :     0.035145
      dx2y2   :     0.025785
      dxy     :     0.030411

 29 C s       :     2.858979  s :     2.858979
      pz      :     1.014427  p :     3.059595
      px      :     0.998238
      py      :     1.046930
      dz2     :     0.018904  d :     0.108832
      dxz     :     0.015220
      dyz     :     0.027050
      dx2y2   :     0.024147
      dxy     :     0.023511

 30 C s       :     2.916203  s :     2.916203
      pz      :     1.030502  p :     3.109442
      px      :     1.016132
      py      :     1.062808
      dz2     :     0.014388  d :     0.084603
      dxz     :     0.011815
      dyz     :     0.023088
      dx2y2   :     0.015948
      dxy     :     0.019363

 31 C s       :     2.917044  s :     2.917044
      pz      :     1.033530  p :     3.123838
      px      :     1.017122
      py      :     1.073186
      dz2     :     0.016429  d :     0.085821
      dxz     :     0.014179
      dyz     :     0.020075
      dx2y2   :     0.020572
      dxy     :     0.014566

 32 C s       :     2.917943  s :     2.917943
      pz      :     1.030835  p :     3.114768
      px      :     1.011917
      py      :     1.072016
      dz2     :     0.011923  d :     0.086061
      dxz     :     0.011760
      dyz     :     0.021887
      dx2y2   :     0.020450
      dxy     :     0.020040

 33 C s       :     2.916721  s :     2.916721
      pz      :     1.031883  p :     3.127099
      px      :     1.023544
      py      :     1.071672
      dz2     :     0.013392  d :     0.082629
      dxz     :     0.011583
      dyz     :     0.023012
      dx2y2   :     0.015527
      dxy     :     0.019114

 34 C s       :     2.856072  s :     2.856072
      pz      :     1.011860  p :     3.046659
      px      :     0.999594
      py      :     1.035206
      dz2     :     0.019348  d :     0.106000
      dxz     :     0.014456
      dyz     :     0.026623
      dx2y2   :     0.023027
      dxy     :     0.022546

 35 H s       :     0.862724  s :     0.862724

 36 H s       :     0.860910  s :     0.860910

 37 H s       :     0.863278  s :     0.863278

 38 H s       :     0.881027  s :     0.881027

 39 H s       :     0.853515  s :     0.853515

 40 H s       :     0.851850  s :     0.851850

 41 H s       :     0.861323  s :     0.861323

 42 H s       :     0.874079  s :     0.874079

 43 H s       :     0.854749  s :     0.854749

 44 H s       :     0.864464  s :     0.864464

 45 H s       :     0.855242  s :     0.855242

 46 H s       :     0.867639  s :     0.867639

 47 H s       :     0.862630  s :     0.862630

 48 H s       :     0.871267  s :     0.871267

 49 H s       :     0.839258  s :     0.839258

 50 H s       :     0.845583  s :     0.845583

 51 H s       :     0.650330  s :     0.650330

 52 H s       :     0.839827  s :     0.839827

 53 H s       :     0.842959  s :     0.842959

 54 H s       :     0.861067  s :     0.861067

 55 H s       :     0.861789  s :     0.861789

 56 H s       :     0.864590  s :     0.864590

 57 H s       :     0.864108  s :     0.864108

 58 H s       :     0.862936  s :     0.862936



                      *****************************
                      * MAYER POPULATION ANALYSIS *
                      *****************************

  NA   - Mulliken gross atomic population
  ZA   - Total nuclear charge
  QA   - Mulliken gross atomic charge
  VA   - Mayer's total valence
  BVA  - Mayer's bonded valence
  FA   - Mayer's free valence

  ATOM       NA         ZA         QA         VA         BVA        FA
  0 C      6.5432     6.0000    -0.5432     3.8288     3.8288     0.0000
  1 C      5.9046     6.0000     0.0954     3.8537     3.8537    -0.0000
  2 C      5.6882     6.0000     0.3118     3.8775     3.8775     0.0000
  3 N      7.6028     7.0000    -0.6028     2.7845     2.7845    -0.0000
  4 C      6.2461     6.0000    -0.2461     3.8360     3.8360     0.0000
  5 C      5.8389     6.0000     0.1611     3.9215     3.9215     0.0000
  6 C      6.1576     6.0000    -0.1576     3.9248     3.9248    -0.0000
  7 C      6.1981     6.0000    -0.1981     3.8821     3.8821     0.0000
  8 C      5.6338     6.0000     0.3662     3.8491     3.8491     0.0000
  9 O      8.5260     8.0000    -0.5260     1.9827     1.9827    -0.0000
 10 C      5.8627     6.0000     0.1373     3.7720     3.7720     0.0000
 11 C      6.3284     6.0000    -0.3284     3.8106     3.8106    -0.0000
 12 C      6.3235     6.0000    -0.3235     3.7925     3.7925     0.0000
 13 C      6.1786     6.0000    -0.1786     3.9115     3.9115    -0.0000
 14 C      6.1661     6.0000    -0.1661     3.9538     3.9538    -0.0000
 15 S     14.7958    16.0000     1.2042     5.0799     5.0799    -0.0000
 16 O      8.5502     8.0000    -0.5502     1.8788     1.8788     0.0000
 17 O      8.5320     8.0000    -0.5320     1.9006     1.9006    -0.0000
 18 C      6.1157     6.0000    -0.1157     3.8373     3.8373     0.0000
 19 C      6.1469     6.0000    -0.1469     3.9197     3.9197     0.0000
 20 C      6.1491     6.0000    -0.1491     3.8652     3.8652    -0.0000
 21 C      5.9181     6.0000     0.0819     3.9251     3.9251     0.0000
 22 C      5.4725     6.0000     0.5275     3.9547     3.9547     0.0000
 23 O      8.4444     8.0000    -0.4444     2.0676     2.0676     0.0000
 24 O      8.6241     8.0000    -0.6241     1.8678     1.8678    -0.0000
 25 C      6.1402     6.0000    -0.1402     3.8965     3.8965     0.0000
 26 C      6.1510     6.0000    -0.1510     3.9098     3.9098    -0.0000
 27 N      7.3500     7.0000    -0.3500     2.9760     2.9760     0.0000
 28 C      6.0499     6.0000    -0.0499     3.8591     3.8591     0.0000
 29 C      5.8631     6.0000     0.1369     3.9541     3.9541    -0.0000
 30 C      6.2016     6.0000    -0.2016     3.9002     3.9002    -0.0000
 31 C      6.1273     6.0000    -0.1273     3.9265     3.9265    -0.0000
 32 C      6.1206     6.0000    -0.1206     3.9275     3.9275    -0.0000
 33 C      6.2016     6.0000    -0.2016     3.8748     3.8748    -0.0000
 34 C      5.8756     6.0000     0.1244     3.9920     3.9920    -0.0000
 35 H      0.8370     1.0000     0.1630     0.9324     0.9324    -0.0000
 36 H      0.8294     1.0000     0.1706     0.9376     0.9376    -0.0000
 37 H      0.8376     1.0000     0.1624     0.9293     0.9293     0.0000
 38 H      0.8545     1.0000     0.1455     0.9305     0.9305     0.0000
 39 H      0.8193     1.0000     0.1807     0.9376     0.9376    -0.0000
 40 H      0.8348     1.0000     0.1652     0.9428     0.9428     0.0000
 41 H      0.8610     1.0000     0.1390     0.9423     0.9423     0.0000
 42 H      0.8479     1.0000     0.1521     0.9325     0.9325     0.0000
 43 H      0.8300     1.0000     0.1700     0.9458     0.9458    -0.0000
 44 H      0.8469     1.0000     0.1531     0.9428     0.9428    -0.0000
 45 H      0.8305     1.0000     0.1695     0.9456     0.9456    -0.0000
 46 H      0.8513     1.0000     0.1487     0.9432     0.9432     0.0000
 47 H      0.8692     1.0000     0.1308     0.9407     0.9407     0.0000
 48 H      0.8796     1.0000     0.1204     0.9416     0.9416    -0.0000
 49 H      0.8130     1.0000     0.1870     0.9363     0.9363    -0.0000
 50 H      0.8277     1.0000     0.1723     0.9364     0.9364    -0.0000
 51 H      0.5660     1.0000     0.4340     0.7956     0.7956    -0.0000
 52 H      0.8196     1.0000     0.1804     0.9387     0.9387     0.0000
 53 H      0.8202     1.0000     0.1798     0.9368     0.9368    -0.0000
 54 H      0.8448     1.0000     0.1552     0.9332     0.9332     0.0000
 55 H      0.8587     1.0000     0.1413     0.9367     0.9367     0.0000
 56 H      0.8641     1.0000     0.1359     0.9367     0.9367    -0.0000
 57 H      0.8637     1.0000     0.1363     0.9366     0.9366    -0.0000
 58 H      0.8645     1.0000     0.1355     0.9423     0.9423     0.0000

  Mayer bond orders larger than 0.100000
B(  0-C ,  1-C ) :   0.9975 B(  0-C , 35-H ) :   0.9281 B(  0-C , 36-H ) :   0.9298 
B(  0-C , 37-H ) :   0.9268 B(  1-C ,  2-C ) :   1.4364 B(  1-C , 28-C ) :   0.1012 
B(  1-C , 34-C ) :   1.2604 B(  2-C ,  3-N ) :   0.8846 B(  2-C , 27-N ) :   1.2945 
B(  3-N ,  4-C ) :   0.9148 B(  3-N , 15-S ) :   0.8195 B(  4-C ,  5-C ) :   0.9688 
B(  4-C , 38-H ) :   0.9223 B(  4-C , 39-H ) :   0.9140 B(  5-C ,  6-C ) :   1.4312 
B(  5-C , 14-C ) :   1.4299 B(  6-C ,  7-C ) :   1.4320 B(  6-C , 40-H ) :   0.9098 
B(  7-C ,  8-C ) :   1.3669 B(  7-C , 41-H ) :   0.9166 B(  8-C ,  9-O ) :   0.9049 
B(  8-C , 13-C ) :   1.4082 B(  9-O , 10-C ) :   0.9154 B( 10-C , 11-C ) :   0.9617 
B( 10-C , 12-C ) :   0.9394 B( 10-C , 42-H ) :   0.9128 B( 11-C , 12-C ) :   0.9601 
B( 11-C , 43-H ) :   0.9397 B( 11-C , 44-H ) :   0.9417 B( 12-C , 45-H ) :   0.9409 
B( 12-C , 46-H ) :   0.9409 B( 13-C , 14-C ) :   1.4378 B( 13-C , 47-H ) :   0.9202 
B( 14-C , 48-H ) :   0.9242 B( 15-S , 16-O ) :   1.6091 B( 15-S , 17-O ) :   1.6491 
B( 15-S , 18-C ) :   0.8138 B( 18-C , 19-C ) :   1.3953 B( 18-C , 26-C ) :   1.3768 
B( 19-C , 20-C ) :   1.4142 B( 19-C , 49-H ) :   0.9084 B( 20-C , 21-C ) :   1.3827 
B( 20-C , 50-H ) :   0.9151 B( 21-C , 22-C ) :   1.0088 B( 21-C , 25-C ) :   1.4009 
B( 22-C , 23-O ) :   1.8635 B( 22-C , 24-O ) :   1.0244 B( 24-O , 51-H ) :   0.7418 
B( 25-C , 26-C ) :   1.4228 B( 25-C , 52-H ) :   0.9097 B( 26-C , 53-H ) :   0.9111 
B( 27-N , 28-C ) :   1.5023 B( 28-C , 29-C ) :   1.2292 B( 28-C , 54-H ) :   0.9262 
B( 29-C , 30-C ) :   1.2857 B( 29-C , 34-C ) :   1.2927 B( 30-C , 31-C ) :   1.5111 
B( 30-C , 33-C ) :   0.1060 B( 30-C , 55-H ) :   0.9228 B( 31-C , 32-C ) :   1.3543 
B( 31-C , 56-H ) :   0.9293 B( 32-C , 33-C ) :   1.5082 B( 32-C , 57-H ) :   0.9293 
B( 33-C , 34-C ) :   1.2950 B( 33-C , 58-H ) :   0.9172 

-------
TIMINGS
-------

Total SCF time: 0 days 0 hours 10 min 1 sec 

Total time                  ....     601.496 sec
Sum of individual times     ....     601.204 sec  (100.0%)

SCF preparation             ....       0.559 sec  (  0.1%)
Fock matrix formation       ....     598.015 sec  ( 99.4%)
  Startup                   ....       0.098 sec  (  0.0% of F)
  Split-RI-J                ....      79.071 sec  ( 13.2% of F)
  Chain of spheres X        ....     469.577 sec  ( 78.5% of F)
  XC integration            ....      48.425 sec  (  8.1% of F)
    XC Preparation          ....       0.000 sec  (  0.0% of XC)
    Basis function eval.    ....      19.057 sec  ( 39.4% of XC)
    Density eval.           ....      12.125 sec  ( 25.0% of XC)
    XC-Functional eval.     ....       2.292 sec  (  4.7% of XC)
    XC-Potential eval.      ....      13.000 sec  ( 26.8% of XC)
Diagonalization             ....       0.000 sec  (  0.0%)
Density matrix formation    ....       0.368 sec  (  0.1%)
Total Energy calculation    ....       0.077 sec  (  0.0%)
Population analysis         ....       0.078 sec  (  0.0%)
Orbital Transformation      ....       0.248 sec  (  0.0%)
Orbital Orthonormalization  ....       0.000 sec  (  0.0%)
DIIS solution               ....       1.122 sec  (  0.2%)
SOSCF solution              ....       0.737 sec  (  0.1%)
Finished LeanSCF after 601.6 sec

Maximum memory used throughout the entire LEANSCF-calculation: 95.1 MB

-------------------------   --------------------
FINAL SINGLE POINT ENERGY     -1926.012892081632
-------------------------   --------------------


------------------------------------------------------------------------------
                              ORCA PROPERTY CALCULATIONS
------------------------------------------------------------------------------

GBWName                                 ... /home/nmrbox/aojoawo/Documents/ERDOS/inputs/CHEMBL3682562.gbw
Number of atoms                         ...     59
Number of basis functions               ...    542
Max core memory                         ...   1024 MB

Electric properties:
Dipole moment                           ... YES
Quadrupole moment                       ...  NO
Static polarizability (Dipole/Dipole)   ...  NO
Static polarizability (Dipole/Quad.)    ...  NO
Static polarizability (Quad./Quad.)     ...  NO
Static polarizability (Velocity)        ...  NO

Atomic electric properties:
Dipole moment                           ...  NO
Quadrupole moment                       ...  NO
Static polarizability                   ...  NO

Choice of electric origin               ... Center of mass
Position of electric origin             ...    -0.783951     0.398158    -0.514617

General magnetic properties:
Magnetizability                         ...  NO

EPR properties:
g-Tensor (aka g-matrix)                 ...  NO
Zero-Field splitting spin-orbit         ...  NO
Zero-field splitting spin-spin          ...  NO
Hyperfine couplings                     ...  NO (   0 nuclei)
Quadrupole couplings                    ...  NO (   0 nuclei)
Contact density                         ...  NO (   0 nuclei)

NMR properties:
Chemical shifts                         ...  NO (   0 nuclei)
Spin-rotation constants                 ...  NO (   0 nuclei)
Spin-spin couplings                     ...  NO (   0 nuclei,    0 pairs)

Choice of magnetic origin               ... GIAO
Position of magnetic origin             ...     0.000000     0.000000     0.000000

Properties with geometric perturbations:
SCF Hessian                             ...  NO
IR spectrum                             ...  NO
VCD spectrum                            ...  NO
X-ray spectroscopy properties:
SCF XES/XAS/RIXS spectra                ...  NO


-------------
DIPOLE MOMENT
-------------

Method             : SCF
Type of density    : Electron Density
Multiplicity       :   1
Irrep              :   0
Energy             : -1926.0128920816323443 Eh
Relativity type    : 
Basis              : AO
                                X                 Y                 Z
Electronic contribution:    -22.376490111       7.501193734      -9.607038239
Nuclear contribution   :     21.358079276      -8.378657761      11.648733726
                        -----------------------------------------
Total Dipole Moment    :     -1.018410835      -0.877464027       2.041695487
                        -----------------------------------------
Magnitude (a.u.)       :      2.444508991
Magnitude (Debye)      :      6.213448065



--------------------
Rotational spectrum 
--------------------
 
Rotational constants in cm-1:             0.005094             0.001999             0.001578 
Rotational constants in MHz :           152.720790            59.929661            47.314945 

Dipole components along the rotational axes: 
x,y,z [a.u.] :    -0.571794    -1.966128     1.335296 
x,y,z [Debye]:    -1.453385    -4.997501     3.394053 

 

Dipole moment calculation done in   0.0 sec 

Maximum memory used throughout the entire PROP-calculation: 46.4 MB

--------------------------------
SUGGESTED CITATIONS FOR THIS RUN
--------------------------------

Below you find a list of papers that are relevant to this ORCA run
We neither can nor want to force you to cite these papers, but we appreciate if you do
You receive ORCA, which is the product of decades of hard work by many enthusiastic individuals, for free
The only thing we kindly ask in return is that you cite our papers,
We deeply appreciate it, if you show your appreciation for ORCA by not just citing the generic ORCA reference.

Please note that relegating all ORCA citations to the supporting information does *not* help us.
SI sections are not indexed - citations you put there will not count into any citation statistics
But we need these citations in order to attract the funding resources that allow us to do what we are doing

Therefore, if you are a happy ORCA user, please consider citing a few of the papers listed below in the main body of your paper

In addition to the list printed below, the program has created the file /home/nmrbox/aojoawo/Documents/ERDOS/inputs/CHEMBL3682562.bibtex that contains the list in bibtex format
You can import this file easily into all common literature databanks and citation aid programs


List of essential papers. We consider these as the minimum necessary citations

  1. Neese,F.
     Software update: the ORCA program system, version 5.0
     WIRES Comput. Molec. Sci., 2022 12(1)e1606
     doi.org/10.1002/wcms.1606

List of papers to cite with high priority. The work reported in these papers was absolutely
necessary for this run to complete.
Our perspective: the developers of density functionals and basis sets usually get cited in chemistry papers
Good! But without the algorithms to do something with them, the functionals or basis sets would not do anything.
Hence, in our opinion, the algorithm design and method developments papers are equally worthy of getting cited

  1. Neese,F.
     An improvement of the resolution of the identity approximation for the formation of the Coulomb matrix
     J. Comp. Chem., 2003 24(14)1740-1747
     doi.org/10.1002/jcc.10318
  2. Neese,F.; Wennmohs,F.; Hansen,A.; Becker,U.
     Efficient, approximate and parallel Hartree-Fock and hybrid DFT calculations. A 'chain-of-spheres' algorithm for the Hartree-Fock exchange
     Chem. Phys., 2009 356(1-3)98-109
     doi.org/10.1016/j.chemphys.2008.10.036
  3. Helmich-Paris,B.; de Souza,B.; Neese,F.; Izsák,R.
     An improved chain of spheres for exchange algorithm
     J. Chem. Phys., 2021 155 104109
     doi.org/doi: 10.1063/5.0058766.
  4. Neese,F.
     The SHARK Integral Generation and Digestion System
     J. Comp. Chem., 2022  1-16
     doi.org/10.1002/jcc.26942

List of suggested additional citations. These are papers that are important in the 'surrounding' of 
of this run, or papers that preceded the highly important papers. If you like your results we are grateful for a citation.

  1. Izsak,R.; Neese,F.
     An overlap fitted chain of spheres exchange method
     J. Chem. Phys., 2011 135 144105
     doi.org/10.1063/1.3646921
  2. Izsak,R.; Hansen,A.; Neese,F.
     The resolution of identity and chain of spheres approximations for the LPNO-CCSD singles Fock term
     Molec. Phys., 2012 110 2413-2417
     doi.org/10.1080/00268976.2012.687466
  3. Neese,F.
     The ORCA program system
     WIRES Comput. Molec. Sci., 2012 2(1)73-78
     doi.org/10.1002/wcms.81
  4. Izsak,R.; Neese,F.; Klopper,W.
     Robust fitting techniques in the chain of spheres approximation to the Fock exchange: The role of the complementary space
     J. Chem. Phys., 2013 139 
     doi.org/10.1063/1.4819264
  5. Neese,F.
     Software update: the ORCA program system, version 4.0
     WIRES Comput. Molec. Sci., 2018 8(1)1-6
     doi.org/10.1002/wcms.1327
  6. Neese,F.; Wennmohs,F.; Becker,U.; Riplinger,C.
     The ORCA quantum chemistry program package
     J. Chem. Phys., 2020 152 Art. No. L224108
     doi.org/10.1063/5.0004608

List of optional additional citations

  1. Neese,F.
     Approximate second-order SCF convergence for spin unrestricted wavefunctions
     Chem. Phys. Lett., 2000 325(1-3)93-98
     doi.org/10.1016/s0009-2614(00)00662-x

Timings for individual modules:

Sum of individual times          ...      624.046 sec (=  10.401 min)
Startup calculation              ...       13.980 sec (=   0.233 min)   2.2 %
SCF iterations                   ...      609.847 sec (=  10.164 min)  97.7 %
Property calculations            ...        0.219 sec (=   0.004 min)   0.0 %
                             ****ORCA TERMINATED NORMALLY****
TOTAL RUN TIME: 0 days 0 hours 10 minutes 24 seconds 697 msec
