
                                 *****************
                                 * O   R   C   A *
                                 *****************

                                            #,                                       
                                            ###                                      
                                            ####                                     
                                            #####                                    
                                            ######                                   
                                           ########,                                 
                                     ,,################,,,,,                         
                               ,,#################################,,                 
                          ,,##########################################,,             
                       ,#########################################, ''#####,          
                    ,#############################################,,   '####,        
                  ,##################################################,,,,####,       
                ,###########''''           ''''###############################       
              ,#####''   ,,,,##########,,,,          '''####'''          '####       
            ,##' ,,,,###########################,,,                        '##       
           ' ,,###''''                  '''############,,,                           
         ,,##''                                '''############,,,,        ,,,,,,###''
      ,#''                                            '''#######################'''  
     '                                                          ''''####''''         
             ,#######,   #######,   ,#######,      ##                                
            ,#'     '#,  ##    ##  ,#'     '#,    #''#        ,####,   ,####,        
            ##       ##  ##   ,#'  ##            #'  '#       #'       #'  '#        
            ##       ##  #######   ##           ,######,      #####,   #    #        
            '#,     ,#'  ##    ##  '#,     ,#' ,#      #,     #,   #   #,  ,#        
             '#######'   ##     ##  '#######'  #'      '#     '####' # '####'        



                #########################################################
                #                        -***-                          #
                #          Department of theory and spectroscopy        #
                #                                                       #
                #                      Frank Neese                      #
                #                                                       #
                #     Directorship, Architecture, Infrastructure        #
                #                    SHARK, DRIVERS                     #
                #        Core code/Algorithms in most modules           #
                #                                                       #
                #        Max Planck Institute fuer Kohlenforschung      #
                #                Kaiser Wilhelm Platz 1                 #
                #                 D-45470 Muelheim/Ruhr                 #
                #                      Germany                          #
                #                                                       #
                #                  All rights reserved                  #
                #                        -***-                          #
                #########################################################


                         Program Version 6.0.0  -   RELEASE  -


 With contributions from (in alphabetic order):
   Daniel Aravena         : Magnetic Suceptibility
   Michael Atanasov       : Ab Initio Ligand Field Theory (pilot matlab implementation)
   Alexander A. Auer      : GIAO ZORA, VPT2 properties, NMR spectrum
   Ute Becker             : All parallelization in ORCA, NUMFREQ, NUMCALC
   Giovanni Bistoni       : ED, misc. LED, open-shell LED, HFLD
   Martin Brehm           : Molecular dynamics
   Dmytro Bykov           : pre 5.0 version of the SCF Hessian
   Marcos Casanova-Páez   : Triplet and SCS-CIS(D). UHF-(DLPNO)-IP/EA/STEOM-CCSD. UHF-CVS-IP/STEOM-CCSD
   Vijay G. Chilkuri      : MRCI spin determinant printing, contributions to CSF-ICE
   Pauline Colinet        : FMM embedding
   Dipayan Datta          : RHF DLPNO-CCSD density
   Achintya Kumar Dutta   : EOM-CC, STEOM-CC
   Nicolas Foglia         : Exact transition moments, OPA infrastructure, MCD improvements
   Dmitry Ganyushin       : Spin-Orbit,Spin-Spin,Magnetic field MRCI
   Miquel Garcia          : C-PCM and meta-GGA Hessian, CCSD/C-PCM, Gaussian charge scheme
   Tiago L. C. Gouveia    : GS-ROHF, GS-ROCIS
   Yang Guo               : DLPNO-NEVPT2, F12-NEVPT2, CIM, IAO-localization
   Andreas Hansen         : Spin unrestricted coupled pair/coupled cluster methods
   Ingolf Harden          : AUTO-CI MPn and infrastructure 
   Benjamin Helmich-Paris : MC-RPA, TRAH-(SCF,CASSCF), AVAS, COSX integrals, SCF dyn. polar.
   Lee Huntington         : MR-EOM, pCC
   Robert Izsak           : Overlap fitted RIJCOSX, COSX-SCS-MP3, EOM
   Riya Kayal             : Wick's Theorem for AUTO-CI, AUTO-CI UHF-CCSDT
   Emily Kempfer          : AUTO-CI, RHF CISDT and CCSDT
   Christian Kollmar      : KDIIS, OOCD, Brueckner-CCSD(T), CCSD density, CASPT2, CASPT2-K, improved NEVPT2
   Axel Koslowski         : Symmetry handling
   Simone Kossmann        : Meta GGA functionals, TD-DFT gradient, OOMP2, (MP2 Hessian; deprecated post 5.0)
   Lucas Lang             : DCDCAS
   Marvin Lechner         : AUTO-CI (C++ implementation), FIC-MRCC
   Spencer Leger          : CASSCF response
   Dagmar Lenk            : GEPOL surface, SMD, ORCA-2-JSON
   Dimitrios Liakos       : Extrapolation schemes; Compound Job, initial MDCI parallelization
   Dimitrios Manganas     : Further ROCIS development; embedding schemes. LFT, Crystal Embedding
   Dimitrios Pantazis     : SARC Basis sets
   Anastasios Papadopoulos: AUTO-CI, single reference methods and gradients
   Taras Petrenko         : pre 6.0 DFT Hessian and TD-DFT gradient, (ASA, deprecated), ECA, 1-Electron XAS/XES, NRVS
   Peter Pinski           : DLPNO-MP2, DLPNO-MP2 Gradient
   Christoph Reimann      : Effective Core Potentials
   Marius Retegan         : Local ZFS, SOC
   Christoph Riplinger    : Optimizer, TS searches, QM/MM, DLPNO-CCSD(T), (RO)-DLPNO pert. Triples
   Michael Roemelt        : Original ROCIS implementation
   Masaaki Saitow         : Open-shell DLPNO-CCSD energy and density
   Barbara Sandhoefer     : DKH picture change effects
   Kantharuban Sivalingam : CASSCF convergence/infrastructure, NEVPT2 and variants, FIC-MRCI
   Bernardo de Souza      : ESD, SOC TD-DFT
   Georgi Stoychev        : AutoAux, RI-MP2 NMR, DLPNO-MP2 response, X2C
   Van Anh Tran           : RI-MP2 g-tensors
   Willem Van den Heuvel  : Paramagnetic NMR
   Zikuan Wang            : NOTCH, Electric field optimization 
   Frank Wennmohs         : Technical directorship and infrastructure
   Hang Xu                : AUTO-CI-Response properties 


 We gratefully acknowledge several colleagues who have allowed us to
 interface, adapt or use parts of their codes:
   Stefan Grimme, W. Hujo, H. Kruse, P. Pracht,  : VdW corrections, initial TS optimization,
                  C. Bannwarth, S. Ehlert,         DFT functionals, gCP, sTDA/sTD-DF
                  L. Wittmann, M. Mueller
   Ed Valeev, F. Pavosevic, A. Kumar             : LibInt (2-el integral package), F12 methods
   Garnet Chan, S. Sharma, J. Yang, R. Olivares  : DMRG
   Ulf Ekstrom                                   : XCFun DFT Library
   Mihaly Kallay                                 : mrcc  (arbitrary order and MRCC methods)
   Frank Weinhold                                : gennbo (NPA and NBO analysis)
   Simon Mueller                                 : openCOSMO-RS
   Christopher J. Cramer and Donald G. Truhlar   : smd solvation model
   Lars Goerigk                                  : TD-DFT with DH, B97 family of functionals
   V. Asgeirsson, H. Jonsson                     : NEB implementation
   FAccTs GmbH                                   : IRC, NEB, NEB-TS, DLPNO-Multilevel, CI-OPT
                                                   MM, QMMM, 2- and 3-layer-ONIOM, Crystal-QMMM,
                                                   LR-CPCM, SF, NACMEs, symmetry and pop. for TD-DFT,
                                                   nearIR, NL-DFT gradient (VV10), updates on ESD,
                                                   ML-optimized integration grids, MBIS, APM,
                                                   GOAT, DOCKER, SOLVATOR, interface openCOSMO-RS
   S Lehtola, MJT Oliveira, MAL Marques          : LibXC Library
   Liviu Ungur et al                             : ANISO software


 Your calculation uses the libint2 library for the computation of 2-el integrals
 For citations please refer to: http://libint.valeyev.net

 Your ORCA version has been built with support for libXC version: 6.2.2
 For citations please refer to: https://libxc.gitlab.io

 This ORCA versions uses:
   CBLAS   interface :  Fast vector & matrix operations
   LAPACKE interface :  Fast linear algebra routines
   SCALAPACK package :  Parallel linear algebra routines
   Shared memory     :  Shared parallel matrices
   BLAS/LAPACK       :  OpenBLAS 0.3.27  USE64BITINT DYNAMIC_ARCH NO_AFFINITY SkylakeX SINGLE_THREADED
        Core in use  :  SkylakeX
   Copyright (c) 2011-2014, The OpenBLAS Project


Warning: RI is on but no J-basis has been assigned. Assigning Def2/J (nothing to worry about!)
================================================================================

----- Orbital basis set information -----
Your calculation utilizes the basis: 6-31G*
   H-He, Li-Ne : W. J. Hehre, R. Ditchfield and J.A. Pople, J. Chem. Phys. 56, 2257 (1972).
                 Note: He and Ne are unpublished basis sets taken from the Gaussian program.
                 Note: Li and B from J. D. Dill and J. A. Pople, J. Chem. Phys. 62, 2921 (1975).
   Na - Ar     : M. M. Francl, W. J. Pietro, W. J. Hehre, J. S. Binkley, M. S. Gordon, 
                 D. J. DeFrees and J. A. Pople, J. Chem. Phys. 77, 3654 (1982).
   K - Zn      : V. A. Rassolov, J. A. Pople, M. A. Ratner, and T. L. Windus, J. Chem. Phys. 109, 1223 (1998).

----- AuxJ basis set information -----
Your calculation utilizes the auxiliary basis: def2/J
   F. Weigend, Phys. Chem. Chem. Phys. 8, 1057 (2006).

================================================================================
                                        WARNINGS
                       Please study these warnings very carefully!
================================================================================


================================================================================
                                       INPUT FILE
================================================================================
NAME = /home/nmrbox/aojoawo/Documents/ERDOS/inputs/CHEMBL3353600.inp
|  1> ! B3LYP 6-31G* SP
|  2> 
|  3> * xyz 0 1
|  4> C 5.5947 1.2428 -0.2511
|  5> C 5.3229 -0.0313 0.5779
|  6> C 6.0570 -1.2061 -0.1118
|  7> C 5.9287 0.1351 1.9890
|  8> C 3.8005 -0.2539 0.6930
|  9> C 2.9960 0.7308 1.3093
| 10> C 1.6142 0.5656 1.4267
| 11> C 0.9939 -0.5892 0.9355
| 12> C -0.5010 -0.7383 1.0128
| 13> N -1.1309 -0.1053 -0.1473
| 14> C -1.1631 1.3202 -0.2668
| 15> N -0.3059 1.9357 -1.1246
| 16> C -0.2807 3.2858 -1.2744
| 17> C -1.1471 4.0970 -0.5246
| 18> C -1.1643 5.5920 -0.7141
| 19> F -2.0922 5.9178 -1.6852
| 20> F -1.5056 6.2257 0.4681
| 21> F 0.0807 6.0516 -1.1078
| 22> C -2.0661 3.4766 0.3356
| 23> C -2.0744 2.0867 0.4756
| 24> Cl -3.2529 1.3338 1.5421
| 25> S -1.8142 -1.0780 -1.4107
| 26> O -2.0773 -0.2324 -2.6256
| 27> O -0.8485 -2.1641 -1.7939
| 28> C -3.3269 -1.7762 -0.8467
| 29> C -4.5058 -1.0221 -0.8928
| 30> C -5.7077 -1.5642 -0.4285
| 31> C -5.7456 -2.8710 0.0910
| 32> C -7.0159 -3.4532 0.5767
| 33> O -8.0726 -2.7669 0.5816
| 34> O -7.0556 -4.7669 1.0331
| 35> C -4.5560 -3.6192 0.1417
| 36> C -3.3548 -3.0733 -0.3200
| 37> C 1.7725 -1.5709 0.3116
| 38> C 3.1558 -1.4115 0.1946
| 39> H 6.6868 1.4022 -0.3817
| 40> H 5.1841 2.1473 0.2437
| 41> H 5.1310 1.1547 -1.2576
| 42> H 5.6903 -1.3473 -1.1517
| 43> H 7.1495 -1.0091 -0.1684
| 44> H 5.9176 -2.1498 0.4588
| 45> H 5.7107 -0.7613 2.6107
| 46> H 7.0321 0.2614 1.9313
| 47> H 5.5196 1.0278 2.5084
| 48> H 3.4327 1.6397 1.7001
| 49> H 1.0252 1.3452 1.8949
| 50> H -0.7719 -1.8159 1.0550
| 51> H -0.8838 -0.2814 1.9502
| 52> H 0.4152 3.7222 -1.9796
| 53> H -2.7800 4.0702 0.8931
| 54> H -4.4938 -0.0120 -1.2834
| 55> H -6.6063 -0.9606 -0.4773
| 56> H -7.9213 -5.1791 1.3601
| 57> H -4.5510 -4.6256 0.5415
| 58> H -2.4476 -3.6622 -0.2629
| 59> H 1.3086 -2.4648 -0.0868
| 60> H 3.7008 -2.2048 -0.2939
| 61> *
| 62> 
| 63>                          ****END OF INPUT****
================================================================================

                       ****************************
                       * Single Point Calculation *
                       ****************************

---------------------------------
CARTESIAN COORDINATES (ANGSTROEM)
---------------------------------
  C      5.594700    1.242800   -0.251100
  C      5.322900   -0.031300    0.577900
  C      6.057000   -1.206100   -0.111800
  C      5.928700    0.135100    1.989000
  C      3.800500   -0.253900    0.693000
  C      2.996000    0.730800    1.309300
  C      1.614200    0.565600    1.426700
  C      0.993900   -0.589200    0.935500
  C     -0.501000   -0.738300    1.012800
  N     -1.130900   -0.105300   -0.147300
  C     -1.163100    1.320200   -0.266800
  N     -0.305900    1.935700   -1.124600
  C     -0.280700    3.285800   -1.274400
  C     -1.147100    4.097000   -0.524600
  C     -1.164300    5.592000   -0.714100
  F     -2.092200    5.917800   -1.685200
  F     -1.505600    6.225700    0.468100
  F      0.080700    6.051600   -1.107800
  C     -2.066100    3.476600    0.335600
  C     -2.074400    2.086700    0.475600
  Cl    -3.252900    1.333800    1.542100
  S     -1.814200   -1.078000   -1.410700
  O     -2.077300   -0.232400   -2.625600
  O     -0.848500   -2.164100   -1.793900
  C     -3.326900   -1.776200   -0.846700
  C     -4.505800   -1.022100   -0.892800
  C     -5.707700   -1.564200   -0.428500
  C     -5.745600   -2.871000    0.091000
  C     -7.015900   -3.453200    0.576700
  O     -8.072600   -2.766900    0.581600
  O     -7.055600   -4.766900    1.033100
  C     -4.556000   -3.619200    0.141700
  C     -3.354800   -3.073300   -0.320000
  C      1.772500   -1.570900    0.311600
  C      3.155800   -1.411500    0.194600
  H      6.686800    1.402200   -0.381700
  H      5.184100    2.147300    0.243700
  H      5.131000    1.154700   -1.257600
  H      5.690300   -1.347300   -1.151700
  H      7.149500   -1.009100   -0.168400
  H      5.917600   -2.149800    0.458800
  H      5.710700   -0.761300    2.610700
  H      7.032100    0.261400    1.931300
  H      5.519600    1.027800    2.508400
  H      3.432700    1.639700    1.700100
  H      1.025200    1.345200    1.894900
  H     -0.771900   -1.815900    1.055000
  H     -0.883800   -0.281400    1.950200
  H      0.415200    3.722200   -1.979600
  H     -2.780000    4.070200    0.893100
  H     -4.493800   -0.012000   -1.283400
  H     -6.606300   -0.960600   -0.477300
  H     -7.921300   -5.179100    1.360100
  H     -4.551000   -4.625600    0.541500
  H     -2.447600   -3.662200   -0.262900
  H      1.308600   -2.464800   -0.086800
  H      3.700800   -2.204800   -0.293900

----------------------------
CARTESIAN COORDINATES (A.U.)
----------------------------
  NO LB      ZA    FRAG     MASS         X           Y           Z
   0 C     6.0000    0    12.011   10.572451    2.348552   -0.474510
   1 C     6.0000    0    12.011   10.058823   -0.059148    1.092073
   2 C     6.0000    0    12.011   11.446071   -2.279199   -0.211271
   3 C     6.0000    0    12.011   11.203619    0.255302    3.758665
   4 C     6.0000    0    12.011    7.181904   -0.479801    1.309580
   5 C     6.0000    0    12.011    5.661619    1.381012    2.474218
   6 C     6.0000    0    12.011    3.050396    1.068829    2.696072
   7 C     6.0000    0    12.011    1.878199   -1.113427    1.767839
   8 C     6.0000    0    12.011   -0.946753   -1.395185    1.913915
   9 N     7.0000    0    14.007   -2.137091   -0.198988   -0.278357
  10 C     6.0000    0    12.011   -2.197940    2.494816   -0.504179
  11 N     7.0000    0    14.007   -0.578067    3.657943   -2.125186
  12 C     6.0000    0    12.011   -0.530446    6.209262   -2.408267
  13 C     6.0000    0    12.011   -2.167705    7.742208   -0.991350
  14 C     6.0000    0    12.011   -2.200208   10.567349   -1.349453
  15 F     9.0000    0    18.998   -3.953685   11.183021   -3.184566
  16 F     9.0000    0    18.998   -2.845172   11.764868    0.884581
  17 F     9.0000    0    18.998    0.152501   11.435867   -2.093439
  18 C     6.0000    0    12.011   -3.904363    6.569822    0.634192
  19 C     6.0000    0    12.011   -3.920048    3.943292    0.898754
  20 Cl   17.0000    0    35.453   -6.147090    2.520517    2.914147
  21 S    16.0000    0    32.060   -3.428341   -2.037125   -2.665837
  22 O     8.0000    0    15.999   -3.925528   -0.439172   -4.961665
  23 O     8.0000    0    15.999   -1.603433   -4.089556   -3.389980
  24 C     6.0000    0    12.011   -6.286930   -3.356532   -1.600031
  25 C     6.0000    0    12.011   -8.514728   -1.931489   -1.687147
  26 C     6.0000    0    12.011  -10.785990   -2.955910   -0.809748
  27 C     6.0000    0    12.011  -10.857610   -5.425404    0.171965
  28 C     6.0000    0    12.011  -13.258130   -6.525602    1.089805
  29 O     8.0000    0    15.999  -15.255003   -5.228683    1.099065
  30 O     8.0000    0    15.999  -13.333152   -9.008136    1.952276
  31 C     6.0000    0    12.011   -8.609592   -6.839297    0.267774
  32 C     6.0000    0    12.011   -6.339653   -5.807695   -0.604712
  33 C     6.0000    0    12.011    3.349540   -2.968571    0.588839
  34 C     6.0000    0    12.011    5.963598   -2.667348    0.367741
  35 H     1.0000    0     1.008   12.636221    2.649774   -0.721308
  36 H     1.0000    0     1.008    9.796529    4.057809    0.460526
  37 H     1.0000    0     1.008    9.696185    2.182067   -2.376520
  38 H     1.0000    0     1.008   10.753109   -2.546028   -2.176398
  39 H     1.0000    0     1.008   13.510597   -1.906923   -0.318230
  40 H     1.0000    0     1.008   11.182643   -4.062533    0.867006
  41 H     1.0000    0     1.008   10.791659   -1.438649    4.933508
  42 H     1.0000    0     1.008   13.288743    0.493974    3.649628
  43 H     1.0000    0     1.008   10.430532    1.942261    4.740189
  44 H     1.0000    0     1.008    6.486863    3.098584    3.212723
  45 H     1.0000    0     1.008    1.937347    2.542060    3.580842
  46 H     1.0000    0     1.008   -1.458680   -3.431554    1.993661
  47 H     1.0000    0     1.008   -1.670140   -0.531769    3.685344
  48 H     1.0000    0     1.008    0.784614    7.033939   -3.740902
  49 H     1.0000    0     1.008   -5.253439    7.691563    1.687714
  50 H     1.0000    0     1.008   -8.492051   -0.022677   -2.425275
  51 H     1.0000    0     1.008  -12.484098   -1.815271   -0.901966
  52 H     1.0000    0     1.008  -14.969088   -9.787081    2.570217
  53 H     1.0000    0     1.008   -8.600144   -8.741117    1.023287
  54 H     1.0000    0     1.008   -4.625294   -6.920555   -0.496809
  55 H     1.0000    0     1.008    2.472896   -4.657797   -0.164028
  56 H     1.0000    0     1.008    6.993498   -4.166468   -0.555391

--------------------------------
INTERNAL COORDINATES (ANGSTROEM)
--------------------------------
 C      0   0   0     0.000000000000     0.00000000     0.00000000
 C      1   0   0     1.544165486598     0.00000000     0.00000000
 C      2   1   0     1.547496022612   107.67505084     0.00000000
 C      2   1   3     1.544631286100   109.42230296   116.70763281
 C      2   1   3     1.542887076231   109.43712613   236.73477742
 C      5   2   1     1.413039288201   119.58913112   299.59128385
 C      6   5   2     1.396583345168   121.16778414   179.76083510
 C      7   6   5     1.399861625304   120.43156281     0.16478091
 C      8   7   6     1.504304527016   120.27019142   182.52516054
 N      9   8   7     1.463999665301   110.12048207    85.65935944
 C     10   9   8     1.430862446219   120.43887781   288.35617549
 N     11  10   9     1.359945929072   119.30045144   103.56749954
 C     12  11  10     1.358618817034   122.07250680   180.54359784
 C     13  12  11     1.403885479660   120.25615210     0.58063168
 C     14  13  12     1.507060413520   120.86967834   182.13123413
 F     15  14  13     1.382092348579   109.25998794    90.42659555
 F     15  14  13     1.384073054430   110.46287223   210.40799330
 F     15  14  13     1.384289294187   110.78435093   330.31611161
 C     14  13  12     1.403353554882   118.42913557   357.54772083
 C     19  14  13     1.396957730212   120.34268748     2.52002606
 Cl    20  19  14     1.758733325436   119.38548087   180.91425858
 S     10   9   8     1.734711428451   120.27531008   106.93162112
 O     22  10   9     1.503410449611   110.00427735   194.29784923
 O     22  10   9     1.503007631384   109.74244718   313.27011564
 C     22  10   9     1.758931644493   109.13556433    74.28734421
 C     25  22  10     1.400213280183   119.98305880    82.26164412
 C     26  25  22     1.397859259725   120.27307000   180.91364670
 C     27  26  25     1.406784596162   120.40214120     0.07904351
 C     28  27  26     1.479365884425   120.66057860   180.35568726
 O     29  28  27     1.260018487960   120.46704921   357.13444258
 O     29  28  27     1.391288877265   120.25193950   177.11257106
 C     28  27  26     1.406243894209   118.99702983     0.31200156
 C     32  28  27     1.397875223330   120.47976086   359.85942606
 C      8   7   6     1.399715706849   119.24171357   359.30207673
 C     34   8   7     1.397360458150   120.52899342     0.84924730
 H      1   2   3     1.111371733490   110.75635635   305.48930893
 H      1   2   3     1.109747561385   111.59289665   185.88741784
 H      1   2   3     1.111675109913   110.31969206    65.44942435
 H      3   2   1     1.111664670663   110.90752737   300.19772066
 H      3   2   1     1.111561428802   110.75628999    59.35251096
 H      3   2   1     1.111569345565   110.86933443   178.54053386
 H      4   2   1     1.112460268953   110.29650806   178.05228817
 H      4   2   1     1.112102756044   110.72997107   297.98620036
 H      4   2   1     1.110879138340   111.67088854    57.56936715
 H      6   5   2     1.081448445373   120.88957326     0.10994681
 H      7   6   5     1.083470534902   119.28022526   180.68402635
 H      9   8   7     1.111930487935   109.88374838   207.15260433
 H      9   8   7     1.110861021910   110.18415830   324.09929300
 H     13  12  11     1.082602794196   118.96792396   180.64990499
 H     19  14  13     1.082968337487   120.32582672   182.88803114
 H     26  25  22     1.083057879340   120.31987125     0.58322843
 H     27  26  25     1.083603414539   118.81871693   180.13400804
 H     31  29  28     1.013051987807   120.96201366   180.56519183
 H     32  28  27     1.082915509170   120.77570529   179.62346424
 H     33  32  28     1.083086081528   119.34126111   179.37791334
 H     34   8   7     1.083043387866   120.30309780   180.84353102
 H     35  34   8     1.079343383729   116.99480228   179.81687520

---------------------------
INTERNAL COORDINATES (A.U.)
---------------------------
 C      0   0   0     0.000000000000     0.00000000     0.00000000
 C      1   0   0     2.918049875123     0.00000000     0.00000000
 C      2   1   0     2.924343676069   107.67505084     0.00000000
 C      2   1   3     2.918930108616   109.42230296   116.70763281
 C      2   1   3     2.915634029643   109.43712613   236.73477742
 C      5   2   1     2.670257271171   119.58913112   299.59128385
 C      6   5   2     2.639160045563   121.16778414   179.76083510
 C      7   6   5     2.645355097211   120.43156281     0.16478091
 C      8   7   6     2.842723578078   120.27019142   182.52516054
 N      9   8   7     2.766558427570   110.12048207    85.65935944
 C     10   9   8     2.703938158667   120.43887781   288.35617549
 N     11  10   9     2.569925362888   119.30045144   103.56749954
 C     12  11  10     2.567417484587   122.07250680   180.54359784
 C     13  12  11     2.652959079946   120.25615210     0.58063168
 C     14  13  12     2.847931448827   120.86967834   182.13123413
 F     15  14  13     2.611776030602   109.25998794    90.42659555
 F     15  14  13     2.615519022213   110.46287223   210.40799330
 F     15  14  13     2.615927656132   110.78435093   330.31611161
 C     14  13  12     2.651953887792   118.42913557   357.54772083
 C     19  14  13     2.639867530766   120.34268748     2.52002606
 Cl    20  19  14     3.323524327675   119.38548087   180.91425858
 S     10   9   8     3.278129521157   120.27531008   106.93162112
 O     22  10   9     2.841034016640   110.00427735   194.29784923
 O     22  10   9     2.840272800510   109.74244718   313.27011564
 C     22  10   9     3.323899096380   109.13556433    74.28734421
 C     25  22  10     2.646019628625   119.98305880    82.26164412
 C     26  25  22     2.641571174647   120.27307000   180.91364670
 C     27  26  25     2.658437616166   120.40214120     0.07904351
 C     28  27  26     2.795596373429   120.66057860   180.35568726
 O     29  28  27     2.381089865921   120.46704921   357.13444258
 O     29  28  27     2.629154951201   120.25193950   177.11257106
 C     28  27  26     2.657415837554   118.99702983     0.31200156
 C     32  28  27     2.641601341488   120.47976086   359.85942606
 C      8   7   6     2.645079351293   119.24171357   359.30207673
 C     34   8   7     2.640628576273   120.52899342     0.84924730
 H      1   2   3     2.100188209277   110.75635635   305.48930893
 H      1   2   3     2.097118968805   111.59289665   185.88741784
 H      1   2   3     2.100761507632   110.31969206    65.44942435
 H      3   2   1     2.100741780309   110.90752737   300.19772066
 H      3   2   1     2.100546681466   110.75628999    59.35251096
 H      3   2   1     2.100561641980   110.86933443   178.54053386
 H      4   2   1     2.102245243190   110.29650806   178.05228817
 H      4   2   1     2.101569641702   110.72997107   297.98620036
 H      4   2   1     2.099257339350   111.67088854    57.56936715
 H      6   5   2     2.043641389710   120.88957326     0.10994681
 H      7   6   5     2.047462585137   119.28022526   180.68402635
 H      9   8   7     2.101244102155   109.88374838   207.15260433
 H      9   8   7     2.099223104259   110.18415830   324.09929300
 H     13  12  11     2.045822792847   118.96792396   180.64990499
 H     19  14  13     2.046513569559   120.32582672   182.88803114
 H     26  25  22     2.046682779138   120.31987125     0.58322843
 H     27  26  25     2.047713691260   118.81871693   180.13400804
 H     31  29  28     1.914390816380   120.96201366   180.56519183
 H     32  28  27     2.046413738506   120.77570529   179.62346424
 H     33  32  28     2.046736073550   119.34126111   179.37791334
 H     34   8   7     2.046655394221   120.30309780   180.84353102
 H     35  34   8     2.039663399708   116.99480228   179.81687520

---------------------
BASIS SET INFORMATION
---------------------
There are 7 groups of distinct atoms

 Group   1 Type C   : 10s4p1d contracted to 3s2p1d pattern {631/31/1}
 Group   2 Type N   : 10s4p1d contracted to 3s2p1d pattern {631/31/1}
 Group   3 Type F   : 10s4p1d contracted to 3s2p1d pattern {631/31/1}
 Group   4 Type Cl  : 16s10p1d contracted to 4s3p1d pattern {6631/631/1}
 Group   5 Type S   : 16s10p1d contracted to 4s3p1d pattern {6631/631/1}
 Group   6 Type O   : 10s4p1d contracted to 3s2p1d pattern {631/31/1}
 Group   7 Type H   : 4s contracted to 2s pattern {31}

Atom   0C    basis set group =>   1
Atom   1C    basis set group =>   1
Atom   2C    basis set group =>   1
Atom   3C    basis set group =>   1
Atom   4C    basis set group =>   1
Atom   5C    basis set group =>   1
Atom   6C    basis set group =>   1
Atom   7C    basis set group =>   1
Atom   8C    basis set group =>   1
Atom   9N    basis set group =>   2
Atom  10C    basis set group =>   1
Atom  11N    basis set group =>   2
Atom  12C    basis set group =>   1
Atom  13C    basis set group =>   1
Atom  14C    basis set group =>   1
Atom  15F    basis set group =>   3
Atom  16F    basis set group =>   3
Atom  17F    basis set group =>   3
Atom  18C    basis set group =>   1
Atom  19C    basis set group =>   1
Atom  20Cl   basis set group =>   4
Atom  21S    basis set group =>   5
Atom  22O    basis set group =>   6
Atom  23O    basis set group =>   6
Atom  24C    basis set group =>   1
Atom  25C    basis set group =>   1
Atom  26C    basis set group =>   1
Atom  27C    basis set group =>   1
Atom  28C    basis set group =>   1
Atom  29O    basis set group =>   6
Atom  30O    basis set group =>   6
Atom  31C    basis set group =>   1
Atom  32C    basis set group =>   1
Atom  33C    basis set group =>   1
Atom  34C    basis set group =>   1
Atom  35H    basis set group =>   7
Atom  36H    basis set group =>   7
Atom  37H    basis set group =>   7
Atom  38H    basis set group =>   7
Atom  39H    basis set group =>   7
Atom  40H    basis set group =>   7
Atom  41H    basis set group =>   7
Atom  42H    basis set group =>   7
Atom  43H    basis set group =>   7
Atom  44H    basis set group =>   7
Atom  45H    basis set group =>   7
Atom  46H    basis set group =>   7
Atom  47H    basis set group =>   7
Atom  48H    basis set group =>   7
Atom  49H    basis set group =>   7
Atom  50H    basis set group =>   7
Atom  51H    basis set group =>   7
Atom  52H    basis set group =>   7
Atom  53H    basis set group =>   7
Atom  54H    basis set group =>   7
Atom  55H    basis set group =>   7
Atom  56H    basis set group =>   7
---------------------------------
AUXILIARY/J BASIS SET INFORMATION
---------------------------------
There are 7 groups of distinct atoms

 Group   1 Type C   : 12s5p4d2f1g contracted to 6s4p3d1f1g pattern {711111/2111/211/2/1}
 Group   2 Type N   : 12s5p4d2f1g contracted to 6s4p3d1f1g pattern {711111/2111/211/2/1}
 Group   3 Type F   : 12s5p4d2f1g contracted to 6s4p3d1f1g pattern {711111/2111/211/2/1}
 Group   4 Type Cl  : 14s5p5d2f1g contracted to 8s4p3d1f1g pattern {71111111/2111/311/2/1}
 Group   5 Type S   : 14s5p5d2f1g contracted to 8s4p3d1f1g pattern {71111111/2111/311/2/1}
 Group   6 Type O   : 12s5p4d2f1g contracted to 6s4p3d1f1g pattern {711111/2111/211/2/1}
 Group   7 Type H   : 5s2p1d contracted to 3s1p1d pattern {311/2/1}

Atom   0C    basis set group =>   1
Atom   1C    basis set group =>   1
Atom   2C    basis set group =>   1
Atom   3C    basis set group =>   1
Atom   4C    basis set group =>   1
Atom   5C    basis set group =>   1
Atom   6C    basis set group =>   1
Atom   7C    basis set group =>   1
Atom   8C    basis set group =>   1
Atom   9N    basis set group =>   2
Atom  10C    basis set group =>   1
Atom  11N    basis set group =>   2
Atom  12C    basis set group =>   1
Atom  13C    basis set group =>   1
Atom  14C    basis set group =>   1
Atom  15F    basis set group =>   3
Atom  16F    basis set group =>   3
Atom  17F    basis set group =>   3
Atom  18C    basis set group =>   1
Atom  19C    basis set group =>   1
Atom  20Cl   basis set group =>   4
Atom  21S    basis set group =>   5
Atom  22O    basis set group =>   6
Atom  23O    basis set group =>   6
Atom  24C    basis set group =>   1
Atom  25C    basis set group =>   1
Atom  26C    basis set group =>   1
Atom  27C    basis set group =>   1
Atom  28C    basis set group =>   1
Atom  29O    basis set group =>   6
Atom  30O    basis set group =>   6
Atom  31C    basis set group =>   1
Atom  32C    basis set group =>   1
Atom  33C    basis set group =>   1
Atom  34C    basis set group =>   1
Atom  35H    basis set group =>   7
Atom  36H    basis set group =>   7
Atom  37H    basis set group =>   7
Atom  38H    basis set group =>   7
Atom  39H    basis set group =>   7
Atom  40H    basis set group =>   7
Atom  41H    basis set group =>   7
Atom  42H    basis set group =>   7
Atom  43H    basis set group =>   7
Atom  44H    basis set group =>   7
Atom  45H    basis set group =>   7
Atom  46H    basis set group =>   7
Atom  47H    basis set group =>   7
Atom  48H    basis set group =>   7
Atom  49H    basis set group =>   7
Atom  50H    basis set group =>   7
Atom  51H    basis set group =>   7
Atom  52H    basis set group =>   7
Atom  53H    basis set group =>   7
Atom  54H    basis set group =>   7
Atom  55H    basis set group =>   7
Atom  56H    basis set group =>   7
------------------------------------------------------------------------------
                             ORCA STARTUP CALCULATIONS
                           -- RI-GTO INTEGRALS CHOSEN --
------------------------------------------------------------------------------
------------------------------------------------------------------------------
                   ___                                                        
                  /   \      - P O W E R E D   B Y -                         
                 /     \                                                     
                 |  |  |   _    _      __       _____    __    __             
                 |  |  |  | |  | |    /  \     |  _  \  |  |  /  |          
                  \  \/   | |  | |   /    \    | | | |  |  | /  /          
                 / \  \   | |__| |  /  /\  \   | |_| |  |  |/  /          
                |  |  |   |  __  | /  /__\  \  |    /   |      \           
                |  |  |   | |  | | |   __   |  |    \   |  |\   \          
                \     /   | |  | | |  |  |  |  | |\  \  |  | \   \       
                 \___/    |_|  |_| |__|  |__|  |_| \__\ |__|  \__/        
                                                                              
                      - O R C A' S   B I G   F R I E N D -                    
                                      &                                       
                       - I N T E G R A L  F E E D E R -                       
                                                                              
 v1 FN, 2020, v2 2021, v3 2022-2024                                           
------------------------------------------------------------------------------


----------------------
SHARK INTEGRAL PACKAGE
----------------------

Number of atoms                             ...     57
Number of basis functions                   ...    542
Number of shells                            ...    258
Maximum angular momentum                    ...      2
Integral batch strategy                     ... SHARK/LIBINT Hybrid
RI-J (if used) integral strategy            ... SPLIT-RIJ (Revised 2003 algorithm where possible)
Printlevel                                  ...      1
Contraction scheme used                     ... SEGMENTED contraction
Prescreening option                         ... SCHWARTZ
   Thresh                                   ... 1.000e-10
   Tcut                                     ... 1.000e-11
   Tpresel                                  ... 1.000e-11 
Coulomb Range Separation                    ... NOT USED
Exchange Range Separation                   ... NOT USED
Multipole approximations                    ... NOT USED
Finite Nucleus Model                        ... NOT USED
CABS basis                                  ... NOT available
Auxiliary Coulomb fitting basis             ... AVAILABLE
   # of basis functions in Aux-J            ...   1961
   # of shells in Aux-J                     ...    639
   Maximum angular momentum in Aux-J        ...      4
Auxiliary J/K fitting basis                 ... NOT available
Auxiliary Correlation fitting basis         ... NOT available
Auxiliary 'external' fitting basis          ... NOT available

Checking pre-screening integrals            ... done (  0.0 sec) Dimension = 258
Check shell pair data                       ... done (  0.0 sec)
Shell pair information
Shell pair cut-off parameter TPreSel        ...   1.0e-11
Total number of shell pairs                 ...     33411
Shell pairs after pre-screening             ...     16953
Total number of primitive shell pairs       ...    204064
Primitive shell pairs kept                  ...     52821
          la=0 lb=0:   5418 shell pairs
          la=1 lb=0:   6001 shell pairs
          la=1 lb=1:   1714 shell pairs
          la=2 lb=0:   2242 shell pairs
          la=2 lb=1:   1331 shell pairs
          la=2 lb=2:    247 shell pairs

Calculating one electron integrals          ... done (  0.2 sec)
Calculating RI/J V-Matrix + Cholesky decomp.... done (  0.4 sec)
Calculating Nuclear repulsion               ... done (  0.0 sec) ENN=   4139.182658156136 Eh

Diagonalization of the overlap matrix:
Smallest eigenvalue                        ... 4.433e-04
Time for diagonalization                   ...    0.039 sec
Threshold for overlap eigenvalues          ... 1.000e-07
Number of eigenvalues below threshold      ... 0
Time for construction of square roots      ...    0.040 sec
Total time needed                          ...    0.090 sec

-------------------
DFT GRID GENERATION
-------------------

General Integration Accuracy     IntAcc      ... 4.388
Radial Grid Type                 RadialGrid  ... OptM3 with GC (2021)
Angular Grid (max. ang.)         AngularGrid ... 4 (Lebedev-302)
Angular grid pruning method      GridPruning ... 4 (adaptive)
Weight generation scheme         WeightScheme... mBecke (2022)
Basis function cutoff            BFCut       ... 1.0000e-10
Integration weight cutoff        WCut        ... 1.0000e-14
Partially contracted basis set               ... off
Rotationally invariant grid construction     ... off
Angular grids for H and He will be reduced by one unit

Total number of grid points                  ...   281576
Total number of batches                      ...     4434
Average number of points per batch           ...       63
Average number of grid points per atom       ...     4940

--------------------
COSX GRID GENERATION
--------------------

GRIDX 1
-------
General Integration Accuracy     IntAcc      ... 3.816
Radial Grid Type                 RadialGrid  ... OptM3 with GC (2021)
Angular Grid (max. ang.)         AngularGrid ... 1 (Lebedev-50)
Angular grid pruning method      GridPruning ... 4 (adaptive)
Weight generation scheme         WeightScheme... mBecke (2022)
Basis function cutoff            BFCut       ... 1.0000e-10
Integration weight cutoff        WCut        ... 1.0000e-14
Partially contracted basis set               ... on
Rotationally invariant grid construction     ... off
Angular grids for H and He will be reduced by one unit

Total number of grid points                  ...    37663
Total number of batches                      ...      323
Average number of points per batch           ...      116
Average number of grid points per atom       ...      661
UseSFitting                                  ... on

GRIDX 2
-------
General Integration Accuracy     IntAcc      ... 4.020
Radial Grid Type                 RadialGrid  ... OptM3 with GC (2021)
Angular Grid (max. ang.)         AngularGrid ... 2 (Lebedev-110)
Angular grid pruning method      GridPruning ... 4 (adaptive)
Weight generation scheme         WeightScheme... mBecke (2022)
Basis function cutoff            BFCut       ... 1.0000e-10
Integration weight cutoff        WCut        ... 1.0000e-14
Partially contracted basis set               ... on
Rotationally invariant grid construction     ... off
Angular grids for H and He will be reduced by one unit

Total number of grid points                  ...    77675
Total number of batches                      ...      635
Average number of points per batch           ...      122
Average number of grid points per atom       ...     1363
UseSFitting                                  ... on

GRIDX 3
-------
General Integration Accuracy     IntAcc      ... 4.338
Radial Grid Type                 RadialGrid  ... OptM3 with GC (2021)
Angular Grid (max. ang.)         AngularGrid ... 3 (Lebedev-194)
Angular grid pruning method      GridPruning ... 4 (adaptive)
Weight generation scheme         WeightScheme... mBecke (2022)
Basis function cutoff            BFCut       ... 1.0000e-10
Integration weight cutoff        WCut        ... 1.0000e-14
Partially contracted basis set               ... on
Rotationally invariant grid construction     ... off
Angular grids for H and He will be reduced by one unit

Total number of grid points                  ...   170886
Total number of batches                      ...     1364
Average number of points per batch           ...      125
Average number of grid points per atom       ...     2998
UseSFitting                                  ... on
Initializing property integral containers    ... done (  0.0 sec)

SHARK setup successfully completed in  10.9 seconds

Maximum memory used throughout the entire STARTUP-calculation: 122.2 MB
-------------------------------------------------------------------------------
                                 ORCA GUESS
                   Start orbitals & Density for SCF / CASSCF
-------------------------------------------------------------------------------

------------
SCF SETTINGS
------------
Hamiltonian:
 Density Functional     Method          .... DFT(GTOs)
 Exchange Functional    Exchange        .... B88
   X-Alpha parameter    XAlpha          ....  0.666667
   Becke's b parameter  XBeta           ....  0.004200
 Correlation Functional Correlation     .... LYP
 LDA part of GGA corr.  LDAOpt          .... VWN-5
 Gradients option       PostSCFGGA      .... off
 Hybrid DFT is turned on
   Fraction HF Exchange ScalHFX         ....  0.200000
   Scaling of DF-GGA-X  ScalDFX         ....  0.720000
   Scaling of DF-GGA-C  ScalDFC         ....  0.810000
   Scaling of DF-LDA-C  ScalLDAC        ....  1.000000
   Perturbative correction              ....  0.000000
   NL short-range parameter             ....  4.800000
 RI-approximation to the Coulomb term is turned on
   Number of AuxJ basis functions       .... 1961
   RIJ-COSX (HFX calculated with COS-X)).... on


General Settings:
 Integral files         IntName         .... /home/nmrbox/aojoawo/Documents/ERDOS/inputs/CHEMBL3353600
 Hartree-Fock type      HFTyp           .... RHF
 Total Charge           Charge          ....    0
 Multiplicity           Mult            ....    1
 Number of Electrons    NEL             ....  272
 Basis Dimension        Dim             ....  542
 Nuclear Repulsion      ENuc            ....   4139.1826581561 Eh

Convergence Acceleration:
 AO-DIIS                CNVDIIS         .... on
   Start iteration      DIISMaxIt       ....    12
   Startup error        DIISStart       ....  0.200000
   # of expansion vecs  DIISMaxEq       ....     5
   Bias factor          DIISBfac        ....   1.050
   Max. coefficient     DIISMaxC        ....  10.000
 MO-DIIS                CNVKDIIS        .... off
 Trust-Rad. Augm. Hess. CNVTRAH         .... auto
   Auto Start mean grad. ratio tolernc. ....  1.125000
   Auto Start start iteration           ....    50
   Auto Start num. interpolation iter.  ....    10
   Max. Number of Micro iterations      ....    24
   Max. Number of Macro iterations      .... Maxiter - #DIIS iter
   Number of Davidson start vectors     ....     2
   Converg. threshold    (grad. norm)   ....   5.000e-05
   Grad. Scal. Fac. for Micro threshold ....   0.100
   Minimum threshold for Micro iter.    ....   1.000e-02
   NR start threshold (gradient norm)   ....   1.000e-04
   Initial trust radius                 ....   0.400
   Minimum AH scaling param. (alpha)    ....   1.000
   Maximum AH scaling param. (alpha)    .... 1000.000
   Quad. conv. algorithm                .... NR
   White noise on init. David. guess    .... on
   Maximum white noise                  ....   0.010
   Pseudo random numbers                .... off
   Inactive MOs                         .... canonical
   Orbital update algorithm             .... Taylor
   Preconditioner                       .... Diag
   Full preconditioner red. dimension   ....   250
 SOSCF                  CNVSOSCF        .... on
   Start iteration      SOSCFMaxIt      ....   150
   Startup grad/error   SOSCFStart      ....  0.003300
   Hessian update       SOSCFHessUp     .... L-BFGS
 Level Shifting         CNVShift        .... on
   Level shift para.    LevelShift      ....    0.2500
   Turn off err/grad.   ShiftErr        ....    0.0010
 Zerner damping         CNVZerner       .... off
 Static damping         CNVDamp         .... on
   Fraction old density DampFac         ....    0.7000
   Max. Damping (<1)    DampMax         ....    0.9800
   Min. Damping (>=0)   DampMin         ....    0.0000
   Turn off err/grad.   DampErr         ....    0.1000

SCF Procedure:
 Maximum # iterations   MaxIter         ....   125
 SCF integral mode      SCFMode         .... Direct
   Integral package                     .... SHARK and LIBINT hybrid scheme
 Reset frequency        DirectResetFreq ....    20
 Integral Threshold     Thresh          ....  1.000e-10 Eh
 Primitive CutOff       TCut            ....  1.000e-11 Eh

Convergence Tolerance:
 Convergence Check Mode ConvCheckMode   .... Total+1el-Energy
 Convergence forced     ConvForced      .... 0
 Energy Change          TolE            ....  1.000e-06 Eh
 1-El. energy change                    ....  1.000e-03 Eh
 Orbital Gradient       TolG            ....  5.000e-05
 Orbital Rotation angle TolX            ....  5.000e-05
 DIIS Error             TolErr          ....  1.000e-06

------------------------------
INITIAL GUESS: MODEL POTENTIAL
------------------------------
Loading Hartree-Fock densities                     ... done
Calculating cut-offs                               ... done
Initializing the effective Hamiltonian             ... done
Setting up the integral package (SHARK)            ... done
Starting the Coulomb interaction                   ... done (   2.5 sec)
Making the grid                                    ... done (   1.4 sec)
Mapping shells                                     ... done
Starting the XC term evaluation                    ... done (   1.0 sec)
  promolecular density results
     # of electrons  =    271.986869867
     EX              =   -258.547465403
     EC              =     -9.669267487
     EX+EC           =   -268.216732890
Transforming the Hamiltonian                       ... done (   0.0 sec)
Diagonalizing the Hamiltonian                      ... done (   0.0 sec)
Back transforming the eigenvectors                 ... done (   0.0 sec)
Now organizing SCF variables                       ... done
                      ------------------
                      INITIAL GUESS DONE (   4.9 sec)
                      ------------------
             **** ENERGY FILE WAS UPDATED (/home/nmrbox/aojoawo/Documents/ERDOS/inputs/CHEMBL3353600.en.tmp) ****
Finished Guess after   5.3 sec
Maximum memory used throughout the entire GUESS-calculation: 66.1 MB

-------------------------------------------------------------------------------------------
                                      ORCA LEAN-SCF
                              memory conserving SCF solver
-------------------------------------------------------------------------------------------

----------------------------------------D-I-I-S--------------------------------------------
Iteration    Energy (Eh)           Delta-E    RMSDP     MaxDP     DIISErr   Damp  Time(sec)
-------------------------------------------------------------------------------------------
               ***  Starting incremental Fock matrix formation  ***
    1    -2493.9467930743021498     0.00e+00  2.47e-03  1.88e-01  3.00e-01  0.700  54.3
    2    -2494.4418210600069870    -4.95e-01  1.46e-03  7.65e-02  9.87e-02  0.700  26.6
                               ***Turning on AO-DIIS***
    3    -2494.6060111524684544    -1.64e-01  5.44e-04  1.66e-02  3.67e-02  0.700  26.5
    4    -2494.7157903802390138    -1.10e-01  8.99e-04  3.26e-02  1.63e-02  0.000  24.2
    5    -2494.9643769515396343    -2.49e-01  2.25e-04  9.53e-03  7.42e-03  0.000  24.8
                              *** Initializing SOSCF ***
---------------------------------------S-O-S-C-F--------------------------------------
Iteration    Energy (Eh)           Delta-E    RMSDP     MaxDP     MaxGrad    Time(sec)
--------------------------------------------------------------------------------------
    6    -2494.9661513496912448    -1.77e-03  7.56e-05  3.60e-03  2.96e-03    21.7
               *** Restarting incremental Fock matrix formation ***
    7    -2494.9662380842373750    -8.67e-05  6.84e-05  3.46e-03  6.24e-04    59.8
    8    -2494.9661706226643219     6.75e-05  4.42e-05  2.30e-03  1.12e-03    33.2
    9    -2494.9662708083324105    -1.00e-04  1.37e-05  8.30e-04  1.14e-04    30.5
   10    -2494.9662672854110497     3.52e-06  9.05e-06  5.32e-04  2.43e-04    24.5
   11    -2494.9662720736123447    -4.79e-06  2.93e-06  1.24e-04  2.82e-05    23.4
   12    -2494.9662719705002019     1.03e-07  1.85e-06  9.05e-05  5.19e-05    17.2
                 **** Energy Check signals convergence ****

               *****************************************************
               *                     SUCCESS                       *
               *           SCF CONVERGED AFTER  12 CYCLES          *
               *****************************************************

Recomputing exchange energy using gridx3       ... done (  103.872 sec)
Old exchange energy                            :    -52.206910148 Eh
New exchange energy                            :    -52.206865077 Eh
Exchange energy change after final integration :      0.000045071 Eh
Total energy after final integration           :  -2494.966226900 Eh
             **** ENERGY FILE WAS UPDATED (/home/nmrbox/aojoawo/Documents/ERDOS/inputs/CHEMBL3353600.en.tmp) ****

----------------
TOTAL SCF ENERGY
----------------

Total Energy       :      -2494.96622689951846 Eh          -67891.48257 eV

Components:
Nuclear Repulsion  :       4139.18265815613631 Eh          112632.88627 eV
Electronic Energy  :      -6634.14893012663651 Eh         -180524.37007 eV
One Electron Energy:     -11663.06368387403745 Eh         -317368.09752 eV
Two Electron Energy:       5028.91475374740094 Eh          136843.72745 eV

Virial components:
Potential Energy   :      -4977.60560523374625 Eh         -135447.53454 eV
Kinetic Energy     :       2482.63937833422733 Eh           67556.05197 eV
Virial Ratio       :          2.00496521914252

DFT components:
N(Alpha)           :      135.999953353945 electrons
N(Beta)            :      135.999953353945 electrons
N(Total)           :      271.999906707889 electrons
E(X)               :     -207.479739433424 Eh       
E(C)               :      -11.351214696300 Eh       
E(XC)              :     -218.830954129723 Eh       

---------------
SCF CONVERGENCE
---------------

  Last Energy change         ...   -1.0311e-07  Tolerance :   1.0000e-06
  Last MAX-Density change    ...    9.0472e-05  Tolerance :   1.0000e-05
  Last RMS-Density change    ...    1.8538e-06  Tolerance :   1.0000e-06
  Last DIIS Error            ...    2.9648e-03  Tolerance :   1.0000e-06
  Last Orbital Gradient      ...    5.1946e-05  Tolerance :   5.0000e-05
  Last Orbital Rotation      ...    7.0468e-05  Tolerance :   5.0000e-05


----------------
ORBITAL ENERGIES
----------------

  NO   OCC          E(Eh)            E(eV) 
   0   2.0000    -101.558178     -2763.5385 
   1   2.0000     -89.104327     -2424.6520 
   2   2.0000     -24.735960      -673.0997 
   3   2.0000     -24.735692      -673.0924 
   4   2.0000     -24.731441      -672.9767 
   5   2.0000     -19.199150      -522.4354 
   6   2.0000     -19.140882      -520.8499 
   7   2.0000     -19.131680      -520.5995 
   8   2.0000     -19.130833      -520.5764 
   9   2.0000     -14.381681      -391.3454 
  10   2.0000     -14.361625      -390.7997 
  11   2.0000     -10.453920      -284.4656 
  12   2.0000     -10.338258      -281.3183 
  13   2.0000     -10.297554      -280.2107 
  14   2.0000     -10.283470      -279.8274 
  15   2.0000     -10.255058      -279.0543 
  16   2.0000     -10.246485      -278.8210 
  17   2.0000     -10.242994      -278.7260 
  18   2.0000     -10.242580      -278.7148 
  19   2.0000     -10.238510      -278.6040 
  20   2.0000     -10.235598      -278.5248 
  21   2.0000     -10.224445      -278.2213 
  22   2.0000     -10.224145      -278.2131 
  23   2.0000     -10.221075      -278.1296 
  24   2.0000     -10.220863      -278.1238 
  25   2.0000     -10.195440      -277.4320 
  26   2.0000     -10.187865      -277.2259 
  27   2.0000     -10.185777      -277.1691 
  28   2.0000     -10.181161      -277.0435 
  29   2.0000     -10.177795      -276.9519 
  30   2.0000     -10.175606      -276.8923 
  31   2.0000     -10.175173      -276.8805 
  32   2.0000     -10.167242      -276.6647 
  33   2.0000     -10.166730      -276.6508 
  34   2.0000     -10.165836      -276.6265 
  35   2.0000      -9.489411      -258.2200 
  36   2.0000      -8.139926      -221.4986 
  37   2.0000      -7.252663      -197.3550 
  38   2.0000      -7.243045      -197.0933 
  39   2.0000      -7.242551      -197.0798 
  40   2.0000      -6.105113      -166.1286 
  41   2.0000      -6.102893      -166.0682 
  42   2.0000      -6.102512      -166.0578 
  43   2.0000      -1.295382       -35.2491 
  44   2.0000      -1.220956       -33.2239 
  45   2.0000      -1.219039       -33.1717 
  46   2.0000      -1.089475       -29.6461 
  47   2.0000      -1.084267       -29.5044 
  48   2.0000      -0.998265       -27.1642 
  49   2.0000      -0.987616       -26.8744 
  50   2.0000      -0.967348       -26.3229 
  51   2.0000      -0.932395       -25.3717 
  52   2.0000      -0.897263       -24.4158 
  53   2.0000      -0.894131       -24.3306 
  54   2.0000      -0.853392       -23.2220 
  55   2.0000      -0.839685       -22.8490 
  56   2.0000      -0.813658       -22.1408 
  57   2.0000      -0.809156       -22.0183 
  58   2.0000      -0.783949       -21.3323 
  59   2.0000      -0.780267       -21.2321 
  60   2.0000      -0.757379       -20.6093 
  61   2.0000      -0.739691       -20.1280 
  62   2.0000      -0.730100       -19.8670 
  63   2.0000      -0.710112       -19.3231 
  64   2.0000      -0.683751       -18.6058 
  65   2.0000      -0.675774       -18.3887 
  66   2.0000      -0.675290       -18.3756 
  67   2.0000      -0.671769       -18.2798 
  68   2.0000      -0.655261       -17.8306 
  69   2.0000      -0.643174       -17.5016 
  70   2.0000      -0.628531       -17.1032 
  71   2.0000      -0.607044       -16.5185 
  72   2.0000      -0.599043       -16.3008 
  73   2.0000      -0.594714       -16.1830 
  74   2.0000      -0.587047       -15.9744 
  75   2.0000      -0.585916       -15.9436 
  76   2.0000      -0.574370       -15.6294 
  77   2.0000      -0.566732       -15.4216 
  78   2.0000      -0.545851       -14.8534 
  79   2.0000      -0.541352       -14.7309 
  80   2.0000      -0.532073       -14.4784 
  81   2.0000      -0.521471       -14.1899 
  82   2.0000      -0.496363       -13.5067 
  83   2.0000      -0.493187       -13.4203 
  84   2.0000      -0.486470       -13.2375 
  85   2.0000      -0.480506       -13.0752 
  86   2.0000      -0.475474       -12.9383 
  87   2.0000      -0.470835       -12.8121 
  88   2.0000      -0.464779       -12.6473 
  89   2.0000      -0.463993       -12.6259 
  90   2.0000      -0.462087       -12.5740 
  91   2.0000      -0.457613       -12.4523 
  92   2.0000      -0.453408       -12.3379 
  93   2.0000      -0.452196       -12.3049 
  94   2.0000      -0.445455       -12.1214 
  95   2.0000      -0.442168       -12.0320 
  96   2.0000      -0.438682       -11.9371 
  97   2.0000      -0.435364       -11.8468 
  98   2.0000      -0.431681       -11.7466 
  99   2.0000      -0.429310       -11.6821 
 100   2.0000      -0.427038       -11.6203 
 101   2.0000      -0.425690       -11.5836 
 102   2.0000      -0.421183       -11.4610 
 103   2.0000      -0.419358       -11.4113 
 104   2.0000      -0.415418       -11.3041 
 105   2.0000      -0.412763       -11.2319 
 106   2.0000      -0.400131       -10.8881 
 107   2.0000      -0.398091       -10.8326 
 108   2.0000      -0.395125       -10.7519 
 109   2.0000      -0.388804       -10.5799 
 110   2.0000      -0.387390       -10.5414 
 111   2.0000      -0.379046       -10.3144 
 112   2.0000      -0.372450       -10.1349 
 113   2.0000      -0.370304       -10.0765 
 114   2.0000      -0.367622       -10.0035 
 115   2.0000      -0.358584        -9.7576 
 116   2.0000      -0.349866        -9.5203 
 117   2.0000      -0.346461        -9.4277 
 118   2.0000      -0.341984        -9.3059 
 119   2.0000      -0.334574        -9.1042 
 120   2.0000      -0.324502        -8.8301 
 121   2.0000      -0.323107        -8.7922 
 122   2.0000      -0.318280        -8.6608 
 123   2.0000      -0.316940        -8.6244 
 124   2.0000      -0.310485        -8.4487 
 125   2.0000      -0.309763        -8.4291 
 126   2.0000      -0.298278        -8.1166 
 127   2.0000      -0.290309        -7.8997 
 128   2.0000      -0.286754        -7.8030 
 129   2.0000      -0.281032        -7.6473 
 130   2.0000      -0.277946        -7.5633 
 131   2.0000      -0.277590        -7.5536 
 132   2.0000      -0.274333        -7.4650 
 133   2.0000      -0.261051        -7.1036 
 134   2.0000      -0.243547        -6.6273 
 135   2.0000      -0.231383        -6.2962 
 136   0.0000      -0.088971        -2.4210 
 137   0.0000      -0.067741        -1.8433 
 138   0.0000      -0.053956        -1.4682 
 139   0.0000      -0.034544        -0.9400 
 140   0.0000      -0.007547        -0.2054 
 141   0.0000       0.000972         0.0264 
 142   0.0000       0.003687         0.1003 
 143   0.0000       0.012714         0.3460 
 144   0.0000       0.033535         0.9125 
 145   0.0000       0.041673         1.1340 
 146   0.0000       0.046448         1.2639 
*Only the first 10 virtual orbitals were printed.

                    ********************************
                    * MULLIKEN POPULATION ANALYSIS *
                    ********************************

-----------------------
MULLIKEN ATOMIC CHARGES
-----------------------
   0 C :   -0.434744
   1 C :    0.036380
   2 C :   -0.452397
   3 C :   -0.434481
   4 C :    0.165397
   5 C :   -0.181645
   6 C :   -0.169868
   7 C :    0.189674
   8 C :   -0.269106
   9 N :   -0.590210
  10 C :    0.397280
  11 N :   -0.331598
  12 C :   -0.003233
  13 C :   -0.025870
  14 C :    0.904790
  15 F :   -0.289279
  16 F :   -0.301490
  17 F :   -0.300074
  18 C :   -0.132216
  19 C :   -0.096572
  20 Cl:    0.020272
  21 S :    1.205248
  22 O :   -0.533094
  23 O :   -0.536060
  24 C :   -0.115480
  25 C :   -0.135834
  26 C :   -0.141254
  27 C :    0.082827
  28 C :    0.528405
  29 O :   -0.442771
  30 O :   -0.623070
  31 C :   -0.145765
  32 C :   -0.149621
  33 C :   -0.159096
  34 C :   -0.190122
  35 H :    0.135762
  36 H :    0.136417
  37 H :    0.149042
  38 H :    0.145728
  39 H :    0.138958
  40 H :    0.140574
  41 H :    0.142997
  42 H :    0.136190
  43 H :    0.136781
  44 H :    0.123436
  45 H :    0.116354
  46 H :    0.172801
  47 H :    0.169857
  48 H :    0.186915
  49 H :    0.187973
  50 H :    0.183405
  51 H :    0.182379
  52 H :    0.435088
  53 H :    0.173941
  54 H :    0.181248
  55 H :    0.147726
  56 H :    0.131103
Sum of atomic charges:   -0.0000000

--------------------------------
MULLIKEN REDUCED ORBITAL CHARGES
--------------------------------
  0 C s       :     3.310433  s :     3.310433
      pz      :     1.043128  p :     3.089642
      px      :     1.054741
      py      :     0.991773
      dz2     :     0.008326  d :     0.034668
      dxz     :     0.004864
      dyz     :     0.007032
      dx2y2   :     0.009867
      dxy     :     0.004578

  1 C s       :     3.183397  s :     3.183397
      pz      :     0.899142  p :     2.731740
      px      :     0.927756
      py      :     0.904843
      dz2     :     0.010211  d :     0.048484
      dxz     :     0.008399
      dyz     :     0.010260
      dx2y2   :     0.011753
      dxy     :     0.007860

  2 C s       :     3.314578  s :     3.314578
      pz      :     1.046144  p :     3.103456
      px      :     1.040749
      py      :     1.016564
      dz2     :     0.008889  d :     0.034362
      dxz     :     0.003474
      dyz     :     0.007668
      dx2y2   :     0.010574
      dxy     :     0.003757

  3 C s       :     3.310821  s :     3.310821
      pz      :     0.983008  p :     3.089003
      px      :     1.042529
      py      :     1.063466
      dz2     :     0.006390  d :     0.034657
      dxz     :     0.004259
      dyz     :     0.011023
      dx2y2   :     0.009924
      dxy     :     0.003060

  4 C s       :     3.151349  s :     3.151349
      pz      :     0.916018  p :     2.644088
      px      :     0.867188
      py      :     0.860883
      dz2     :     0.004728  d :     0.039166
      dxz     :     0.006874
      dyz     :     0.005550
      dx2y2   :     0.010644
      dxy     :     0.011370

  5 C s       :     3.205673  s :     3.205673
      pz      :     0.996410  p :     2.940360
      px      :     0.963476
      py      :     0.980475
      dz2     :     0.003609  d :     0.035611
      dxz     :     0.006714
      dyz     :     0.004602
      dx2y2   :     0.009906
      dxy     :     0.010780

  6 C s       :     3.192406  s :     3.192406
      pz      :     1.003978  p :     2.941024
      px      :     0.974620
      py      :     0.962426
      dz2     :     0.003023  d :     0.036439
      dxz     :     0.007023
      dyz     :     0.005353
      dx2y2   :     0.009003
      dxy     :     0.012036

  7 C s       :     3.102090  s :     3.102090
      pz      :     0.954651  p :     2.668270
      px      :     0.822267
      py      :     0.891352
      dz2     :     0.005240  d :     0.039966
      dxz     :     0.005996
      dyz     :     0.005735
      dx2y2   :     0.012111
      dxy     :     0.010884

  8 C s       :     3.268414  s :     3.268414
      pz      :     0.900920  p :     2.945171
      px      :     0.982772
      py      :     1.061480
      dz2     :     0.014080  d :     0.055520
      dxz     :     0.013279
      dyz     :     0.008275
      dx2y2   :     0.012119
      dxy     :     0.007767

  9 N s       :     3.585580  s :     3.585580
      pz      :     1.264401  p :     3.971892
      px      :     1.594139
      py      :     1.113351
      dz2     :     0.006743  d :     0.032738
      dxz     :     0.004532
      dyz     :     0.009563
      dx2y2   :     0.006599
      dxy     :     0.005301

 10 C s       :     3.024311  s :     3.024311
      pz      :     0.885992  p :     2.503027
      px      :     0.883309
      py      :     0.733726
      dz2     :     0.011311  d :     0.075382
      dxz     :     0.009206
      dyz     :     0.015265
      dx2y2   :     0.019216
      dxy     :     0.020383

 11 N s       :     3.714230  s :     3.714230
      pz      :     1.191445  p :     3.581470
      px      :     1.244270
      py      :     1.145755
      dz2     :     0.007073  d :     0.035898
      dxz     :     0.006580
      dyz     :     0.006192
      dx2y2   :     0.009234
      dxy     :     0.006819

 12 C s       :     3.159129  s :     3.159129
      pz      :     0.954190  p :     2.791037
      px      :     0.961243
      py      :     0.875604
      dz2     :     0.005855  d :     0.053067
      dxz     :     0.005978
      dyz     :     0.014325
      dx2y2   :     0.011997
      dxy     :     0.014913

 13 C s       :     3.173668  s :     3.173668
      pz      :     0.949528  p :     2.814956
      px      :     0.941010
      py      :     0.924418
      dz2     :     0.006930  d :     0.037246
      dxz     :     0.005392
      dyz     :     0.006921
      dx2y2   :     0.010748
      dxy     :     0.007256

 14 C s       :     2.800775  s :     2.800775
      pz      :     0.626566  p :     2.155738
      px      :     0.619846
      py      :     0.909326
      dz2     :     0.028947  d :     0.138697
      dxz     :     0.034131
      dyz     :     0.024372
      dx2y2   :     0.029558
      dxy     :     0.021688

 15 F s       :     3.977597  s :     3.977597
      pz      :     1.690373  p :     5.295117
      px      :     1.709355
      py      :     1.895389
      dz2     :     0.003306  d :     0.016565
      dxz     :     0.005987
      dyz     :     0.002469
      dx2y2   :     0.002627
      dxy     :     0.002176

 16 F s       :     3.981084  s :     3.981084
      pz      :     1.599152  p :     5.303947
      px      :     1.876707
      py      :     1.828089
      dz2     :     0.005335  d :     0.016459
      dxz     :     0.003319
      dyz     :     0.005079
      dx2y2   :     0.001433
      dxy     :     0.001293

 17 F s       :     3.981838  s :     3.981838
      pz      :     1.869686  p :     5.301732
      px      :     1.564864
      py      :     1.867182
      dz2     :     0.002148  d :     0.016504
      dxz     :     0.003911
      dyz     :     0.001040
      dx2y2   :     0.005062
      dxy     :     0.004343

 18 C s       :     3.203255  s :     3.203255
      pz      :     0.969563  p :     2.893715
      px      :     0.974228
      py      :     0.949924
      dz2     :     0.004724  d :     0.035247
      dxz     :     0.005567
      dyz     :     0.008128
      dx2y2   :     0.007711
      dxy     :     0.009117

 19 C s       :     3.193730  s :     3.193730
      pz      :     0.955555  p :     2.855674
      px      :     0.926116
      py      :     0.974003
      dz2     :     0.007549  d :     0.047168
      dxz     :     0.007153
      dyz     :     0.010209
      dx2y2   :     0.010824
      dxy     :     0.011433

 20 Cls       :     5.928328  s :     5.928328
      pz      :     3.644896  p :    11.021696
      px      :     3.573170
      py      :     3.803630
      dz2     :     0.004517  d :     0.029704
      dxz     :     0.009902
      dyz     :     0.005214
      dx2y2   :     0.003840
      dxy     :     0.006232

 21 S s       :     5.218728  s :     5.218728
      pz      :     3.004672  p :     9.037009
      px      :     3.049803
      py      :     2.982535
      dz2     :     0.092843  d :     0.539015
      dxz     :     0.103298
      dyz     :     0.128014
      dx2y2   :     0.098048
      dxy     :     0.116812

 22 O s       :     3.925418  s :     3.925418
      pz      :     1.295849  p :     4.580495
      px      :     1.710231
      py      :     1.574415
      dz2     :     0.008608  d :     0.027181
      dxz     :     0.005822
      dyz     :     0.007748
      dx2y2   :     0.002648
      dxy     :     0.002355

 23 O s       :     3.925369  s :     3.925369
      pz      :     1.609424  p :     4.584007
      px      :     1.499300
      py      :     1.475283
      dz2     :     0.003586  d :     0.026684
      dxz     :     0.004320
      dyz     :     0.004599
      dx2y2   :     0.007145
      dxy     :     0.007035

 24 C s       :     3.218998  s :     3.218998
      pz      :     1.030170  p :     2.857818
      px      :     0.871909
      py      :     0.955738
      dz2     :     0.003897  d :     0.038664
      dxz     :     0.005519
      dyz     :     0.006158
      dx2y2   :     0.011105
      dxy     :     0.011985

 25 C s       :     3.204807  s :     3.204807
      pz      :     0.957141  p :     2.895055
      px      :     0.917786
      py      :     1.020127
      dz2     :     0.003441  d :     0.035972
      dxz     :     0.006420
      dyz     :     0.004642
      dx2y2   :     0.011988
      dxy     :     0.009481

 26 C s       :     3.215149  s :     3.215149
      pz      :     0.942246  p :     2.890482
      px      :     0.971138
      py      :     0.977098
      dz2     :     0.004758  d :     0.035624
      dxz     :     0.004202
      dyz     :     0.004992
      dx2y2   :     0.009830
      dxy     :     0.011842

 27 C s       :     3.165903  s :     3.165903
      pz      :     0.978480  p :     2.712860
      px      :     0.853622
      py      :     0.880758
      dz2     :     0.003810  d :     0.038409
      dxz     :     0.006067
      dyz     :     0.005649
      dx2y2   :     0.010835
      dxy     :     0.012048

 28 C s       :     2.995805  s :     2.995805
      pz      :     0.801290  p :     2.365280
      px      :     0.877172
      py      :     0.686819
      dz2     :     0.008685  d :     0.110510
      dxz     :     0.014655
      dyz     :     0.018024
      dx2y2   :     0.041885
      dxy     :     0.027261

 29 O s       :     3.877953  s :     3.877953
      pz      :     1.459445  p :     4.539130
      px      :     1.457393
      py      :     1.622292
      dz2     :     0.002466  d :     0.025688
      dxz     :     0.006382
      dyz     :     0.002669
      dx2y2   :     0.006646
      dxy     :     0.007525

 30 O s       :     3.872049  s :     3.872049
      pz      :     1.732214  p :     4.730112
      px      :     1.567182
      py      :     1.430716
      dz2     :     0.002795  d :     0.020909
      dxz     :     0.002766
      dyz     :     0.003589
      dx2y2   :     0.007668
      dxy     :     0.004091

 31 C s       :     3.210697  s :     3.210697
      pz      :     0.958924  p :     2.899421
      px      :     0.946261
      py      :     0.994235
      dz2     :     0.003199  d :     0.035648
      dxz     :     0.006280
      dyz     :     0.004625
      dx2y2   :     0.012017
      dxy     :     0.009527

 32 C s       :     3.206223  s :     3.206223
      pz      :     0.948962  p :     2.907433
      px      :     1.017072
      py      :     0.941399
      dz2     :     0.004989  d :     0.035966
      dxz     :     0.004074
      dyz     :     0.005260
      dx2y2   :     0.010041
      dxy     :     0.011602

 33 C s       :     3.197638  s :     3.197638
      pz      :     0.969755  p :     2.925185
      px      :     0.962758
      py      :     0.992672
      dz2     :     0.003922  d :     0.036273
      dxz     :     0.006933
      dyz     :     0.004540
      dx2y2   :     0.009590
      dxy     :     0.011288

 34 C s       :     3.214883  s :     3.214883
      pz      :     1.001490  p :     2.939632
      px      :     0.959241
      py      :     0.978901
      dz2     :     0.002970  d :     0.035608
      dxz     :     0.006619
      dyz     :     0.005392
      dx2y2   :     0.009172
      dxy     :     0.011455

 35 H s       :     0.864238  s :     0.864238

 36 H s       :     0.863583  s :     0.863583

 37 H s       :     0.850958  s :     0.850958

 38 H s       :     0.854272  s :     0.854272

 39 H s       :     0.861042  s :     0.861042

 40 H s       :     0.859426  s :     0.859426

 41 H s       :     0.857003  s :     0.857003

 42 H s       :     0.863810  s :     0.863810

 43 H s       :     0.863219  s :     0.863219

 44 H s       :     0.876564  s :     0.876564

 45 H s       :     0.883646  s :     0.883646

 46 H s       :     0.827199  s :     0.827199

 47 H s       :     0.830143  s :     0.830143

 48 H s       :     0.813085  s :     0.813085

 49 H s       :     0.812027  s :     0.812027

 50 H s       :     0.816595  s :     0.816595

 51 H s       :     0.817621  s :     0.817621

 52 H s       :     0.564912  s :     0.564912

 53 H s       :     0.826059  s :     0.826059

 54 H s       :     0.818752  s :     0.818752

 55 H s       :     0.852274  s :     0.852274

 56 H s       :     0.868897  s :     0.868897



                     *******************************
                     * LOEWDIN POPULATION ANALYSIS *
                     *******************************

----------------------
LOEWDIN ATOMIC CHARGES
----------------------
   0 C :   -0.342432
   1 C :   -0.035580
   2 C :   -0.348013
   3 C :   -0.342339
   4 C :    0.002088
   5 C :   -0.130842
   6 C :   -0.132545
   7 C :   -0.038864
   8 C :   -0.146380
   9 N :   -0.279426
  10 C :    0.059296
  11 N :   -0.081426
  12 C :   -0.043845
  13 C :   -0.074075
  14 C :    0.312698
  15 F :   -0.106938
  16 F :   -0.110338
  17 F :   -0.107511
  18 C :   -0.093083
  19 C :   -0.099224
  20 Cl:    0.058463
  21 S :    1.269200
  22 O :   -0.561474
  23 O :   -0.566526
  24 C :   -0.174324
  25 C :   -0.096996
  26 C :   -0.085083
  27 C :   -0.037821
  28 C :    0.179044
  29 O :   -0.258864
  30 O :   -0.333575
  31 C :   -0.098968
  32 C :   -0.108214
  33 C :   -0.117043
  34 C :   -0.135399
  35 H :    0.120070
  36 H :    0.119224
  37 H :    0.127138
  38 H :    0.124064
  39 H :    0.123490
  40 H :    0.121696
  41 H :    0.124099
  42 H :    0.120216
  43 H :    0.119194
  44 H :    0.128672
  45 H :    0.125379
  46 H :    0.142858
  47 H :    0.133180
  48 H :    0.154550
  49 H :    0.162187
  50 H :    0.159428
  51 H :    0.161350
  52 H :    0.350497
  53 H :    0.155270
  54 H :    0.157504
  55 H :    0.140701
  56 H :    0.135594

-------------------------------
LOEWDIN REDUCED ORBITAL CHARGES
-------------------------------
  0 C s       :     2.991033  s :     2.991033
      pz      :     1.102176  p :     3.284831
      px      :     1.115608
      py      :     1.067048
      dz2     :     0.015271  d :     0.066568
      dxz     :     0.008817
      dyz     :     0.014585
      dx2y2   :     0.019105
      dxy     :     0.008790

  1 C s       :     2.867804  s :     2.867804
      pz      :     1.023532  p :     3.055656
      px      :     1.006446
      py      :     1.025678
      dz2     :     0.023508  d :     0.112119
      dxz     :     0.019061
      dyz     :     0.024611
      dx2y2   :     0.027388
      dxy     :     0.017552

  2 C s       :     2.989869  s :     2.989869
      pz      :     1.106078  p :     3.292416
      px      :     1.104618
      py      :     1.081720
      dz2     :     0.016369  d :     0.065727
      dxz     :     0.006558
      dyz     :     0.014963
      dx2y2   :     0.019919
      dxy     :     0.007918

  3 C s       :     2.991679  s :     2.991679
      pz      :     1.059492  p :     3.284124
      px      :     1.105605
      py      :     1.119026
      dz2     :     0.013514  d :     0.066536
      dxz     :     0.009063
      dyz     :     0.020554
      dx2y2   :     0.018073
      dxy     :     0.005333

  4 C s       :     2.888430  s :     2.888430
      pz      :     0.961474  p :     3.013890
      px      :     1.017568
      py      :     1.034849
      dz2     :     0.009905  d :     0.095592
      dxz     :     0.014658
      dyz     :     0.013641
      dx2y2   :     0.028255
      dxy     :     0.029133

  5 C s       :     2.916416  s :     2.916416
      pz      :     1.012496  p :     3.131078
      px      :     1.063637
      py      :     1.054946
      dz2     :     0.007245  d :     0.083347
      dxz     :     0.015709
      dyz     :     0.008547
      dx2y2   :     0.025519
      dxy     :     0.026326

  6 C s       :     2.915654  s :     2.915654
      pz      :     1.012128  p :     3.131082
      px      :     1.071164
      py      :     1.047790
      dz2     :     0.006346  d :     0.085809
      dxz     :     0.015568
      dyz     :     0.010290
      dx2y2   :     0.023899
      dxy     :     0.029705

  7 C s       :     2.874937  s :     2.874937
      pz      :     0.997727  p :     3.062999
      px      :     1.011012
      py      :     1.054260
      dz2     :     0.011266  d :     0.100928
      dxz     :     0.013652
      dyz     :     0.014362
      dx2y2   :     0.033149
      dxy     :     0.028498

  8 C s       :     2.922291  s :     2.922291
      pz      :     0.982839  p :     3.105526
      px      :     1.039279
      py      :     1.083408
      dz2     :     0.031198  d :     0.118563
      dxz     :     0.028496
      dyz     :     0.017170
      dx2y2   :     0.026461
      dxy     :     0.015239

  9 N s       :     3.171778  s :     3.171778
      pz      :     1.306088  p :     4.023860
      px      :     1.565868
      py      :     1.151904
      dz2     :     0.017150  d :     0.083787
      dxz     :     0.010929
      dyz     :     0.026776
      dx2y2   :     0.015569
      dxy     :     0.013363

 10 C s       :     2.847550  s :     2.847550
      pz      :     0.986072  p :     2.912584
      px      :     0.994758
      py      :     0.931754
      dz2     :     0.024916  d :     0.180570
      dxz     :     0.024213
      dyz     :     0.036191
      dx2y2   :     0.047563
      dxy     :     0.047687

 11 N s       :     3.251194  s :     3.251194
      pz      :     1.224515  p :     3.751392
      px      :     1.271755
      py      :     1.255122
      dz2     :     0.013561  d :     0.078840
      dxz     :     0.012725
      dyz     :     0.015146
      dx2y2   :     0.021464
      dxy     :     0.015944

 12 C s       :     2.916203  s :     2.916203
      pz      :     0.998102  p :     3.006389
      px      :     1.005825
      py      :     1.002463
      dz2     :     0.013058  d :     0.121253
      dxz     :     0.010570
      dyz     :     0.032685
      dx2y2   :     0.029802
      dxy     :     0.035139

 13 C s       :     2.896322  s :     2.896322
      pz      :     1.029257  p :     3.081650
      px      :     1.038977
      py      :     1.013415
      dz2     :     0.015893  d :     0.096104
      dxz     :     0.014571
      dyz     :     0.018026
      dx2y2   :     0.028003
      dxy     :     0.019610

 14 C s       :     2.848221  s :     2.848221
      pz      :     0.773223  p :     2.508997
      px      :     0.768433
      py      :     0.967341
      dz2     :     0.070744  d :     0.330084
      dxz     :     0.083869
      dyz     :     0.054144
      dx2y2   :     0.075620
      dxy     :     0.045708

 15 F s       :     3.761998  s :     3.761998
      pz      :     1.703577  p :     5.313423
      px      :     1.720436
      py      :     1.889410
      dz2     :     0.005424  d :     0.031517
      dxz     :     0.012461
      dyz     :     0.004756
      dx2y2   :     0.004704
      dxy     :     0.004171

 16 F s       :     3.759835  s :     3.759835
      pz      :     1.615668  p :     5.319308
      px      :     1.875432
      py      :     1.828207
      dz2     :     0.009998  d :     0.031195
      dxz     :     0.005888
      dyz     :     0.010730
      dx2y2   :     0.002391
      dxy     :     0.002188

 17 F s       :     3.759556  s :     3.759556
      pz      :     1.868790  p :     5.316839
      px      :     1.583545
      py      :     1.864504
      dz2     :     0.003913  d :     0.031116
      dxz     :     0.007094
      dyz     :     0.001797
      dx2y2   :     0.009613
      dxy     :     0.008699

 18 C s       :     2.921814  s :     2.921814
      pz      :     1.004452  p :     3.087575
      px      :     1.025582
      py      :     1.057540
      dz2     :     0.010471  d :     0.083694
      dxz     :     0.010921
      dyz     :     0.019763
      dx2y2   :     0.020715
      dxy     :     0.021825

[...]
      dxz     :     0.014948
      dyz     :     0.008072
      dx2y2   :     0.030398
      dxy     :     0.024859

 26 C s       :     2.920403  s :     2.920403
      pz      :     0.956533  p :     3.081955
      px      :     1.079357
      py      :     1.046066
      dz2     :     0.008840  d :     0.082725
      dxz     :     0.009301
      dyz     :     0.011682
      dx2y2   :     0.024924
      dxy     :     0.027978

 27 C s       :     2.880148  s :     2.880148
      pz      :     0.986294  p :     3.058223
      px      :     1.021086
      py      :     1.050843
      dz2     :     0.008461  d :     0.099450
      dxz     :     0.013909
      dyz     :     0.012969
      dx2y2   :     0.030650
      dxy     :     0.033461

 28 C s       :     2.862639  s :     2.862639
      pz      :     0.817862  p :     2.705122
      px      :     1.011713
      py      :     0.875547
      dz2     :     0.019908  d :     0.253195
      dxz     :     0.030230
      dyz     :     0.038809
      dx2y2   :     0.098017
      dxy     :     0.066230

 29 O s       :     3.592500  s :     3.592500
      pz      :     1.450270  p :     4.616318
      px      :     1.520938
      py      :     1.645111
      dz2     :     0.006515  d :     0.050046
      dxz     :     0.008753
      dyz     :     0.003851
      dx2y2   :     0.012570
      dxy     :     0.018357

 30 O s       :     3.539485  s :     3.539485
      pz      :     1.720553  p :     4.752238
      px      :     1.575523
      py      :     1.456162
      dz2     :     0.004771  d :     0.041853
      dxz     :     0.004222
      dyz     :     0.007829
      dx2y2   :     0.016054
      dxy     :     0.008977

 31 C s       :     2.920079  s :     2.920079
      pz      :     0.971640  p :     3.095475
      px      :     1.053235
      py      :     1.070600
      dz2     :     0.006348  d :     0.083414
      dxz     :     0.014668
      dyz     :     0.008007
      dx2y2   :     0.029751
      dxy     :     0.024640

 32 C s       :     2.918513  s :     2.918513
      pz      :     0.969855  p :     3.104387
      px      :     1.087710
      py      :     1.046822
      dz2     :     0.009388  d :     0.085313
      dxz     :     0.009353
      dyz     :     0.012747
      dx2y2   :     0.025611
      dxy     :     0.028216

 33 C s       :     2.917532  s :     2.917532
      pz      :     0.990050  p :     3.114307
      px      :     1.067667
      py      :     1.056590
      dz2     :     0.007921  d :     0.085205
      dxz     :     0.016335
      dyz     :     0.008683
      dx2y2   :     0.024834
      dxy     :     0.027431

 34 C s       :     2.918761  s :     2.918761
      pz      :     1.012398  p :     3.133682
      px      :     1.067745
      py      :     1.053539
      dz2     :     0.006228  d :     0.082957
      dxz     :     0.014479
      dyz     :     0.010075
      dx2y2   :     0.023979
      dxy     :     0.028196

 35 H s       :     0.879930  s :     0.879930

 36 H s       :     0.880776  s :     0.880776

 37 H s       :     0.872862  s :     0.872862

 38 H s       :     0.875936  s :     0.875936

 39 H s       :     0.876510  s :     0.876510

 40 H s       :     0.878304  s :     0.878304

 41 H s       :     0.875901  s :     0.875901

 42 H s       :     0.879784  s :     0.879784

 43 H s       :     0.880806  s :     0.880806

 44 H s       :     0.871328  s :     0.871328

 45 H s       :     0.874621  s :     0.874621

 46 H s       :     0.857142  s :     0.857142

 47 H s       :     0.866820  s :     0.866820

 48 H s       :     0.845450  s :     0.845450

 49 H s       :     0.837813  s :     0.837813

 50 H s       :     0.840572  s :     0.840572

 51 H s       :     0.838650  s :     0.838650

 52 H s       :     0.649503  s :     0.649503

 53 H s       :     0.844730  s :     0.844730

 54 H s       :     0.842496  s :     0.842496

 55 H s       :     0.859299  s :     0.859299

 56 H s       :     0.864406  s :     0.864406



                      *****************************
                      * MAYER POPULATION ANALYSIS *
                      *****************************

  NA   - Mulliken gross atomic population
  ZA   - Total nuclear charge
  QA   - Mulliken gross atomic charge
  VA   - Mayer's total valence
  BVA  - Mayer's bonded valence
  FA   - Mayer's free valence

  ATOM       NA         ZA         QA         VA         BVA        FA
  0 C      6.4347     6.0000    -0.4347     3.8261     3.8261     0.0000
  1 C      5.9636     6.0000     0.0364     3.9450     3.9450     0.0000
  2 C      6.4524     6.0000    -0.4524     3.8376     3.8376     0.0000
  3 C      6.4345     6.0000    -0.4345     3.8267     3.8267     0.0000
  4 C      5.8346     6.0000     0.1654     3.9142     3.9142    -0.0000
  5 C      6.1816     6.0000    -0.1816     3.9229     3.9229    -0.0000
  6 C      6.1699     6.0000    -0.1699     3.9457     3.9457    -0.0000
  7 C      5.8103     6.0000     0.1897     3.8898     3.8898     0.0000
  8 C      6.2691     6.0000    -0.2691     3.8203     3.8203     0.0000
  9 N      7.5902     7.0000    -0.5902     2.8033     2.8033     0.0000
 10 C      5.6027     6.0000     0.3973     3.9080     3.9080    -0.0000
 11 N      7.3316     7.0000    -0.3316     2.9832     2.9832     0.0000
 12 C      6.0032     6.0000    -0.0032     3.8753     3.8753    -0.0000
 13 C      6.0259     6.0000    -0.0259     3.9224     3.9224    -0.0000
 14 C      5.0952     6.0000     0.9048     3.9177     3.9177    -0.0000
 15 F      9.2893     9.0000    -0.2893     1.0657     1.0657     0.0000
 16 F      9.3015     9.0000    -0.3015     1.0585     1.0585    -0.0000
 17 F      9.3001     9.0000    -0.3001     1.0621     1.0621     0.0000
 18 C      6.1322     6.0000    -0.1322     3.8832     3.8832     0.0000
 19 C      6.0966     6.0000    -0.0966     3.9018     3.9018    -0.0000
 20 Cl    16.9797    17.0000     0.0203     1.1505     1.1505     0.0000
 21 S     14.7948    16.0000     1.2052     5.0764     5.0764     0.0000
 22 O      8.5331     8.0000    -0.5331     1.8959     1.8959     0.0000
 23 O      8.5361     8.0000    -0.5361     1.8979     1.8979    -0.0000
 24 C      6.1155     6.0000    -0.1155     3.8319     3.8319    -0.0000
 25 C      6.1358     6.0000    -0.1358     3.9167     3.9167    -0.0000
 26 C      6.1413     6.0000    -0.1413     3.8990     3.8990     0.0000
 27 C      5.9172     6.0000     0.0828     3.9272     3.9272    -0.0000
 28 C      5.4716     6.0000     0.5284     3.9551     3.9551    -0.0000
 29 O      8.4428     8.0000    -0.4428     2.0686     2.0686    -0.0000
 30 O      8.6231     8.0000    -0.6231     1.8698     1.8698    -0.0000
 31 C      6.1458     6.0000    -0.1458     3.8684     3.8684     0.0000
 32 C      6.1496     6.0000    -0.1496     3.9215     3.9215    -0.0000
 33 C      6.1591     6.0000    -0.1591     3.9336     3.9336     0.0000
 34 C      6.1901     6.0000    -0.1901     3.9232     3.9232     0.0000
 35 H      0.8642     1.0000     0.1358     0.9399     0.9399     0.0000
 36 H      0.8636     1.0000     0.1364     0.9415     0.9415    -0.0000
 37 H      0.8510     1.0000     0.1490     0.9388     0.9388    -0.0000
 38 H      0.8543     1.0000     0.1457     0.9382     0.9382     0.0000
 39 H      0.8610     1.0000     0.1390     0.9406     0.9406     0.0000
 40 H      0.8594     1.0000     0.1406     0.9393     0.9393     0.0000
 41 H      0.8570     1.0000     0.1430     0.9401     0.9401     0.0000
 42 H      0.8638     1.0000     0.1362     0.9400     0.9400    -0.0000
 43 H      0.8632     1.0000     0.1368     0.9415     0.9415    -0.0000
 44 H      0.8766     1.0000     0.1234     0.9428     0.9428    -0.0000
 45 H      0.8836     1.0000     0.1164     0.9424     0.9424     0.0000
 46 H      0.8272     1.0000     0.1728     0.9387     0.9387     0.0000
 47 H      0.8301     1.0000     0.1699     0.9285     0.9285    -0.0000
 48 H      0.8131     1.0000     0.1869     0.9309     0.9309    -0.0000
 49 H      0.8120     1.0000     0.1880     0.9347     0.9347     0.0000
 50 H      0.8166     1.0000     0.1834     0.9359     0.9359    -0.0000
 51 H      0.8176     1.0000     0.1824     0.9382     0.9382    -0.0000
 52 H      0.5649     1.0000     0.4351     0.7947     0.7947     0.0000
 53 H      0.8261     1.0000     0.1739     0.9360     0.9360    -0.0000
 54 H      0.8188     1.0000     0.1812     0.9380     0.9380    -0.0000
 55 H      0.8523     1.0000     0.1477     0.9452     0.9452    -0.0000
 56 H      0.8689     1.0000     0.1311     0.9428     0.9428    -0.0000

  Mayer bond orders larger than 0.100000
B(  0-C ,  1-C ) :   0.9908 B(  0-C , 35-H ) :   0.9431 B(  0-C , 36-H ) :   0.9429 
B(  0-C , 37-H ) :   0.9460 B(  1-C ,  2-C ) :   0.9999 B(  1-C ,  3-C ) :   0.9899 
B(  1-C ,  4-C ) :   0.9719 B(  2-C , 38-H ) :   0.9402 B(  2-C , 39-H ) :   0.9430 
B(  2-C , 40-H ) :   0.9411 B(  3-C , 41-H ) :   0.9471 B(  3-C , 42-H ) :   0.9432 
B(  3-C , 43-H ) :   0.9426 B(  4-C ,  5-C ) :   1.4011 B(  4-C , 34-C ) :   1.4280 
B(  5-C ,  6-C ) :   1.4374 B(  5-C , 44-H ) :   0.9215 B(  6-C ,  7-C ) :   1.4234 
B(  6-C , 45-H ) :   0.9247 B(  7-C ,  8-C ) :   0.9409 B(  7-C , 33-C ) :   1.4478 
B(  8-C ,  9-N ) :   0.9102 B(  8-C , 46-H ) :   0.9223 B(  8-C , 47-H ) :   0.9199 
B(  9-N , 10-C ) :   0.9478 B(  9-N , 21-S ) :   0.7992 B( 10-C , 11-N ) :   1.3941 
B( 10-C , 19-C ) :   1.3354 B( 11-N , 12-C ) :   1.4119 B( 12-C , 13-C ) :   1.3544 
B( 12-C , 48-H ) :   0.9168 B( 13-C , 14-C ) :   0.9718 B( 13-C , 18-C ) :   1.4127 
B( 14-C , 15-F ) :   0.9922 B( 14-C , 16-F ) :   0.9511 B( 14-C , 17-F ) :   0.9505 
B( 18-C , 19-C ) :   1.3916 B( 18-C , 49-H ) :   0.9081 B( 19-C , 20-Cl) :   1.0421 
B( 21-S , 22-O ) :   1.6443 B( 21-S , 23-O ) :   1.6332 B( 21-S , 24-C ) :   0.8148 
B( 24-C , 25-C ) :   1.3775 B( 24-C , 32-C ) :   1.3953 B( 25-C , 26-C ) :   1.4275 
B( 25-C , 50-H ) :   0.9102 B( 26-C , 27-C ) :   1.3980 B( 26-C , 51-H ) :   0.9090 
B( 27-C , 28-C ) :   1.0069 B( 27-C , 31-C ) :   1.3886 B( 28-C , 29-O ) :   1.8644 
B( 28-C , 30-O ) :   1.0268 B( 30-O , 52-H ) :   0.7412 B( 31-C , 32-C ) :   1.4126 
B( 31-C , 53-H ) :   0.9145 B( 32-C , 54-H ) :   0.9097 B( 33-C , 34-C ) :   1.4181 
B( 33-C , 55-H ) :   0.9138 B( 34-C , 56-H ) :   0.9177 

-------
TIMINGS
-------

Total SCF time: 0 days 0 hours 7 min 51 sec 

Total time                  ....     471.351 sec
Sum of individual times     ....     470.940 sec  ( 99.9%)

SCF preparation             ....       0.349 sec  (  0.1%)
Fock matrix formation       ....     467.882 sec  ( 99.3%)
  Startup                   ....       0.126 sec  (  0.0% of F)
  Split-RI-J                ....      61.844 sec  ( 13.2% of F)
  Chain of spheres X        ....     365.410 sec  ( 78.1% of F)
  XC integration            ....      39.133 sec  (  8.4% of F)
    Basis function eval.    ....      15.055 sec  ( 38.5% of XC)
    Density eval.           ....       9.622 sec  ( 24.6% of XC)
    XC-Functional eval.     ....       1.840 sec  (  4.7% of XC)
    XC-Potential eval.      ....      10.937 sec  ( 27.9% of XC)
Diagonalization             ....       0.000 sec  (  0.0%)
Density matrix formation    ....       0.529 sec  (  0.1%)
Total Energy calculation    ....       0.098 sec  (  0.0%)
Population analysis         ....       0.084 sec  (  0.0%)
Orbital Transformation      ....       0.203 sec  (  0.0%)
Orbital Orthonormalization  ....       0.000 sec  (  0.0%)
DIIS solution               ....       1.083 sec  (  0.2%)
SOSCF solution              ....       0.712 sec  (  0.2%)
Finished LeanSCF after 471.4 sec

Maximum memory used throughout the entire LEANSCF-calculation: 92.9 MB

-------------------------   --------------------
FINAL SINGLE POINT ENERGY     -2494.966226899518
-------------------------   --------------------


------------------------------------------------------------------------------
                              ORCA PROPERTY CALCULATIONS
------------------------------------------------------------------------------

GBWName                                 ... /home/nmrbox/aojoawo/Documents/ERDOS/inputs/CHEMBL3353600.gbw
Number of atoms                         ...     57
Number of basis functions               ...    542
Max core memory                         ...   1024 MB

Electric properties:
Dipole moment                           ... YES
Quadrupole moment                       ...  NO
Static polarizability (Dipole/Dipole)   ...  NO
Static polarizability (Dipole/Quad.)    ...  NO
Static polarizability (Quad./Quad.)     ...  NO
Static polarizability (Velocity)        ...  NO

Atomic electric properties:
Dipole moment                           ...  NO
Quadrupole moment                       ...  NO
Static polarizability                   ...  NO

Choice of electric origin               ... Center of mass
Position of electric origin             ...    -2.080299     0.744473    -0.122640

General magnetic properties:
Magnetizability                         ...  NO

EPR properties:
g-Tensor (aka g-matrix)                 ...  NO
Zero-Field splitting spin-orbit         ...  NO
Zero-field splitting spin-spin          ...  NO
Hyperfine couplings                     ...  NO (   0 nuclei)
Quadrupole couplings                    ...  NO (   0 nuclei)
Contact density                         ...  NO (   0 nuclei)

NMR properties:
Chemical shifts                         ...  NO (   0 nuclei)
Spin-rotation constants                 ...  NO (   0 nuclei)
Spin-spin couplings                     ...  NO (   0 nuclei,    0 pairs)

Choice of magnetic origin               ... GIAO
Position of magnetic origin             ...     0.000000     0.000000     0.000000

Properties with geometric perturbations:
SCF Hessian                             ...  NO
IR spectrum                             ...  NO
VCD spectrum                            ...  NO
X-ray spectroscopy properties:
SCF XES/XAS/RIXS spectra                ...  NO


-------------
DIPOLE MOMENT
-------------

Method             : SCF
Type of density    : Electron Density
Multiplicity       :   1
Irrep              :   0
Energy             : -2494.9662268995184604 Eh
Relativity type    : 
Basis              : AO
                                X                 Y                 Z
Electronic contribution:    -57.195891720      33.919898870      -8.445969926
Nuclear contribution   :     57.012215688     -34.381169471      10.349658759
                        -----------------------------------------
Total Dipole Moment    :     -0.183676032      -0.461270601       1.903688833
                        -----------------------------------------
Magnitude (a.u.)       :      1.967368452
Magnitude (Debye)      :      5.000653196



--------------------
Rotational spectrum 
--------------------
 
Rotational constants in cm-1:             0.003764             0.002088             0.001490 
Rotational constants in MHz :           112.848100            62.584902            44.654324 

Dipole components along the rotational axes: 
x,y,z [a.u.] :    -0.342743    -0.545903     1.858778 
x,y,z [Debye]:    -0.871185    -1.387574     4.724638 

 

Dipole moment calculation done in   0.0 sec 

Maximum memory used throughout the entire PROP-calculation: 45.5 MB

--------------------------------
SUGGESTED CITATIONS FOR THIS RUN
--------------------------------

Below you find a list of papers that are relevant to this ORCA run
We neither can nor want to force you to cite these papers, but we appreciate if you do
You receive ORCA, which is the product of decades of hard work by many enthusiastic individuals, for free
The only thing we kindly ask in return is that you cite our papers,
We deeply appreciate it, if you show your appreciation for ORCA by not just citing the generic ORCA reference.

Please note that relegating all ORCA citations to the supporting information does *not* help us.
SI sections are not indexed - citations you put there will not count into any citation statistics
But we need these citations in order to attract the funding resources that allow us to do what we are doing

Therefore, if you are a happy ORCA user, please consider citing a few of the papers listed below in the main body of your paper

In addition to the list printed below, the program has created the file /home/nmrbox/aojoawo/Documents/ERDOS/inputs/CHEMBL3353600.bibtex that contains the list in bibtex format
You can import this file easily into all common literature databanks and citation aid programs


List of essential papers. We consider these as the minimum necessary citations

  1. Neese,F.
     Software update: the ORCA program system, version 5.0
     WIRES Comput. Molec. Sci., 2022 12(1)e1606
     doi.org/10.1002/wcms.1606

List of papers to cite with high priority. The work reported in these papers was absolutely
necessary for this run to complete.
Our perspective: the developers of density functionals and basis sets usually get cited in chemistry papers
Good! But without the algorithms to do something with them, the functionals or basis sets would not do anything.
Hence, in our opinion, the algorithm design and method developments papers are equally worthy of getting cited

  1. Neese,F.
     An improvement of the resolution of the identity approximation for the formation of the Coulomb matrix
     J. Comp. Chem., 2003 24(14)1740-1747
     doi.org/10.1002/jcc.10318
  2. Neese,F.; Wennmohs,F.; Hansen,A.; Becker,U.
     Efficient, approximate and parallel Hartree-Fock and hybrid DFT calculations. A 'chain-of-spheres' algorithm for the Hartree-Fock exchange
     Chem. Phys., 2009 356(1-3)98-109
     doi.org/10.1016/j.chemphys.2008.10.036
  3. Helmich-Paris,B.; de Souza,B.; Neese,F.; Izsák,R.
     An improved chain of spheres for exchange algorithm
     J. Chem. Phys., 2021 155 104109
     doi.org/doi: 10.1063/5.0058766.
  4. Neese,F.
     The SHARK Integral Generation and Digestion System
     J. Comp. Chem., 2022  1-16
     doi.org/10.1002/jcc.26942

List of suggested additional citations. These are papers that are important in the 'surrounding' of 
of this run, or papers that preceded the highly important papers. If you like your results we are grateful for a citation.

  1. Izsak,R.; Neese,F.
     An overlap fitted chain of spheres exchange method
     J. Chem. Phys., 2011 135 144105
     doi.org/10.1063/1.3646921
  2. Izsak,R.; Hansen,A.; Neese,F.
     The resolution of identity and chain of spheres approximations for the LPNO-CCSD singles Fock term
     Molec. Phys., 2012 110 2413-2417
     doi.org/10.1080/00268976.2012.687466
  3. Neese,F.
     The ORCA program system
     WIRES Comput. Molec. Sci., 2012 2(1)73-78
     doi.org/10.1002/wcms.81
  4. Izsak,R.; Neese,F.; Klopper,W.
     Robust fitting techniques in the chain of spheres approximation to the Fock exchange: The role of the complementary space
     J. Chem. Phys., 2013 139 
     doi.org/10.1063/1.4819264
  5. Neese,F.
     Software update: the ORCA program system, version 4.0
     WIRES Comput. Molec. Sci., 2018 8(1)1-6
     doi.org/10.1002/wcms.1327
  6. Neese,F.; Wennmohs,F.; Becker,U.; Riplinger,C.
     The ORCA quantum chemistry program package
     J. Chem. Phys., 2020 152 Art. No. L224108
     doi.org/10.1063/5.0004608

List of optional additional citations

  1. Neese,F.
     Approximate second-order SCF convergence for spin unrestricted wavefunctions
     Chem. Phys. Lett., 2000 325(1-3)93-98
     doi.org/10.1016/s0009-2614(00)00662-x

Timings for individual modules:

Sum of individual times          ...      487.994 sec (=   8.133 min)
Startup calculation              ...       10.967 sec (=   0.183 min)   2.2 %
SCF iterations                   ...      476.856 sec (=   7.948 min)  97.7 %
Property calculations            ...        0.171 sec (=   0.003 min)   0.0 %
                             ****ORCA TERMINATED NORMALLY****
TOTAL RUN TIME: 0 days 0 hours 8 minutes 8 seconds 902 msec
