
                                 *****************
                                 * O   R   C   A *
                                 *****************

                                            #,                                       
                                            ###                                      
                                            ####                                     
                                            #####                                    
                                            ######                                   
                                           ########,                                 
                                     ,,################,,,,,                         
                               ,,#################################,,                 
                          ,,##########################################,,             
                       ,#########################################, ''#####,          
                    ,#############################################,,   '####,        
                  ,##################################################,,,,####,       
                ,###########''''           ''''###############################       
              ,#####''   ,,,,##########,,,,          '''####'''          '####       
            ,##' ,,,,###########################,,,                        '##       
           ' ,,###''''                  '''############,,,                           
         ,,##''                                '''############,,,,        ,,,,,,###''
      ,#''                                            '''#######################'''  
     '                                                          ''''####''''         
             ,#######,   #######,   ,#######,      ##                                
            ,#'     '#,  ##    ##  ,#'     '#,    #''#        ,####,   ,####,        
            ##       ##  ##   ,#'  ##            #'  '#       #'       #'  '#        
            ##       ##  #######   ##           ,######,      #####,   #    #        
            '#,     ,#'  ##    ##  '#,     ,#' ,#      #,     #,   #   #,  ,#        
             '#######'   ##     ##  '#######'  #'      '#     '####' # '####'        



                #########################################################
                #                        -***-                          #
                #          Department of theory and spectroscopy        #
                #                                                       #
                #                      Frank Neese                      #
                #                                                       #
                #     Directorship, Architecture, Infrastructure        #
                #                    SHARK, DRIVERS                     #
                #        Core code/Algorithms in most modules           #
                #                                                       #
                #        Max Planck Institute fuer Kohlenforschung      #
                #                Kaiser Wilhelm Platz 1                 #
                #                 D-45470 Muelheim/Ruhr                 #
                #                      Germany                          #
                #                                                       #
                #                  All rights reserved                  #
                #                        -***-                          #
                #########################################################


                         Program Version 6.0.0  -   RELEASE  -


 With contributions from (in alphabetic order):
   Daniel Aravena         : Magnetic Suceptibility
   Michael Atanasov       : Ab Initio Ligand Field Theory (pilot matlab implementation)
   Alexander A. Auer      : GIAO ZORA, VPT2 properties, NMR spectrum
   Ute Becker             : All parallelization in ORCA, NUMFREQ, NUMCALC
   Giovanni Bistoni       : ED, misc. LED, open-shell LED, HFLD
   Martin Brehm           : Molecular dynamics
   Dmytro Bykov           : pre 5.0 version of the SCF Hessian
   Marcos Casanova-Páez   : Triplet and SCS-CIS(D). UHF-(DLPNO)-IP/EA/STEOM-CCSD. UHF-CVS-IP/STEOM-CCSD
   Vijay G. Chilkuri      : MRCI spin determinant printing, contributions to CSF-ICE
   Pauline Colinet        : FMM embedding
   Dipayan Datta          : RHF DLPNO-CCSD density
   Achintya Kumar Dutta   : EOM-CC, STEOM-CC
   Nicolas Foglia         : Exact transition moments, OPA infrastructure, MCD improvements
   Dmitry Ganyushin       : Spin-Orbit,Spin-Spin,Magnetic field MRCI
   Miquel Garcia          : C-PCM and meta-GGA Hessian, CCSD/C-PCM, Gaussian charge scheme
   Tiago L. C. Gouveia    : GS-ROHF, GS-ROCIS
   Yang Guo               : DLPNO-NEVPT2, F12-NEVPT2, CIM, IAO-localization
   Andreas Hansen         : Spin unrestricted coupled pair/coupled cluster methods
   Ingolf Harden          : AUTO-CI MPn and infrastructure 
   Benjamin Helmich-Paris : MC-RPA, TRAH-(SCF,CASSCF), AVAS, COSX integrals, SCF dyn. polar.
   Lee Huntington         : MR-EOM, pCC
   Robert Izsak           : Overlap fitted RIJCOSX, COSX-SCS-MP3, EOM
   Riya Kayal             : Wick's Theorem for AUTO-CI, AUTO-CI UHF-CCSDT
   Emily Kempfer          : AUTO-CI, RHF CISDT and CCSDT
   Christian Kollmar      : KDIIS, OOCD, Brueckner-CCSD(T), CCSD density, CASPT2, CASPT2-K, improved NEVPT2
   Axel Koslowski         : Symmetry handling
   Simone Kossmann        : Meta GGA functionals, TD-DFT gradient, OOMP2, (MP2 Hessian; deprecated post 5.0)
   Lucas Lang             : DCDCAS
   Marvin Lechner         : AUTO-CI (C++ implementation), FIC-MRCC
   Spencer Leger          : CASSCF response
   Dagmar Lenk            : GEPOL surface, SMD, ORCA-2-JSON
   Dimitrios Liakos       : Extrapolation schemes; Compound Job, initial MDCI parallelization
   Dimitrios Manganas     : Further ROCIS development; embedding schemes. LFT, Crystal Embedding
   Dimitrios Pantazis     : SARC Basis sets
   Anastasios Papadopoulos: AUTO-CI, single reference methods and gradients
   Taras Petrenko         : pre 6.0 DFT Hessian and TD-DFT gradient, (ASA, deprecated), ECA, 1-Electron XAS/XES, NRVS
   Peter Pinski           : DLPNO-MP2, DLPNO-MP2 Gradient
   Christoph Reimann      : Effective Core Potentials
   Marius Retegan         : Local ZFS, SOC
   Christoph Riplinger    : Optimizer, TS searches, QM/MM, DLPNO-CCSD(T), (RO)-DLPNO pert. Triples
   Michael Roemelt        : Original ROCIS implementation
   Masaaki Saitow         : Open-shell DLPNO-CCSD energy and density
   Barbara Sandhoefer     : DKH picture change effects
   Kantharuban Sivalingam : CASSCF convergence/infrastructure, NEVPT2 and variants, FIC-MRCI
   Bernardo de Souza      : ESD, SOC TD-DFT
   Georgi Stoychev        : AutoAux, RI-MP2 NMR, DLPNO-MP2 response, X2C
   Van Anh Tran           : RI-MP2 g-tensors
   Willem Van den Heuvel  : Paramagnetic NMR
   Zikuan Wang            : NOTCH, Electric field optimization 
   Frank Wennmohs         : Technical directorship and infrastructure
   Hang Xu                : AUTO-CI-Response properties 


 We gratefully acknowledge several colleagues who have allowed us to
 interface, adapt or use parts of their codes:
   Stefan Grimme, W. Hujo, H. Kruse, P. Pracht,  : VdW corrections, initial TS optimization,
                  C. Bannwarth, S. Ehlert,         DFT functionals, gCP, sTDA/sTD-DF
                  L. Wittmann, M. Mueller
   Ed Valeev, F. Pavosevic, A. Kumar             : LibInt (2-el integral package), F12 methods
   Garnet Chan, S. Sharma, J. Yang, R. Olivares  : DMRG
   Ulf Ekstrom                                   : XCFun DFT Library
   Mihaly Kallay                                 : mrcc  (arbitrary order and MRCC methods)
   Frank Weinhold                                : gennbo (NPA and NBO analysis)
   Simon Mueller                                 : openCOSMO-RS
   Christopher J. Cramer and Donald G. Truhlar   : smd solvation model
   Lars Goerigk                                  : TD-DFT with DH, B97 family of functionals
   V. Asgeirsson, H. Jonsson                     : NEB implementation
   FAccTs GmbH                                   : IRC, NEB, NEB-TS, DLPNO-Multilevel, CI-OPT
                                                   MM, QMMM, 2- and 3-layer-ONIOM, Crystal-QMMM,
                                                   LR-CPCM, SF, NACMEs, symmetry and pop. for TD-DFT,
                                                   nearIR, NL-DFT gradient (VV10), updates on ESD,
                                                   ML-optimized integration grids, MBIS, APM,
                                                   GOAT, DOCKER, SOLVATOR, interface openCOSMO-RS
   S Lehtola, MJT Oliveira, MAL Marques          : LibXC Library
   Liviu Ungur et al                             : ANISO software


 Your calculation uses the libint2 library for the computation of 2-el integrals
 For citations please refer to: http://libint.valeyev.net

 Your ORCA version has been built with support for libXC version: 6.2.2
 For citations please refer to: https://libxc.gitlab.io

 This ORCA versions uses:
   CBLAS   interface :  Fast vector & matrix operations
   LAPACKE interface :  Fast linear algebra routines
   SCALAPACK package :  Parallel linear algebra routines
   Shared memory     :  Shared parallel matrices
   BLAS/LAPACK       :  OpenBLAS 0.3.27  USE64BITINT DYNAMIC_ARCH NO_AFFINITY SkylakeX SINGLE_THREADED
        Core in use  :  SkylakeX
   Copyright (c) 2011-2014, The OpenBLAS Project


Warning: RI is on but no J-basis has been assigned. Assigning Def2/J (nothing to worry about!)
================================================================================

----- Orbital basis set information -----
Your calculation utilizes the basis: 6-31G*
   H-He, Li-Ne : W. J. Hehre, R. Ditchfield and J.A. Pople, J. Chem. Phys. 56, 2257 (1972).
                 Note: He and Ne are unpublished basis sets taken from the Gaussian program.
                 Note: Li and B from J. D. Dill and J. A. Pople, J. Chem. Phys. 62, 2921 (1975).
   Na - Ar     : M. M. Francl, W. J. Pietro, W. J. Hehre, J. S. Binkley, M. S. Gordon, 
                 D. J. DeFrees and J. A. Pople, J. Chem. Phys. 77, 3654 (1982).
   K - Zn      : V. A. Rassolov, J. A. Pople, M. A. Ratner, and T. L. Windus, J. Chem. Phys. 109, 1223 (1998).

----- AuxJ basis set information -----
Your calculation utilizes the auxiliary basis: def2/J
   F. Weigend, Phys. Chem. Chem. Phys. 8, 1057 (2006).

================================================================================
                                        WARNINGS
                       Please study these warnings very carefully!
================================================================================


================================================================================
                                       INPUT FILE
================================================================================
NAME = /home/nmrbox/aojoawo/Documents/ERDOS/inputs/CHEMBL2032210.inp
|  1> ! B3LYP 6-31G* SP
|  2> 
|  3> * xyz 0 1
|  4> O 2.9699 1.5034 -1.0030
|  5> C 2.0904 1.3026 -0.1219
|  6> N 2.3591 0.3697 0.9324
|  7> C 2.6897 -1.0126 0.7034
|  8> C 2.9868 -1.8372 1.8007
|  9> C 3.2334 -3.2011 1.6176
| 10> C 3.1810 -3.7569 0.3372
| 11> F 3.4091 -5.0818 0.1627
| 12> C 2.8840 -2.9483 -0.7624
| 13> C 2.6393 -1.5833 -0.5845
| 14> N 0.8217 1.9944 -0.1854
| 15> C 0.7340 3.2707 -0.9103
| 16> C -0.5868 3.3605 -1.6655
| 17> C -1.7349 3.1607 -0.7211
| 18> C -2.9572 3.8103 -0.9564
| 19> C -4.0324 3.6261 -0.0844
| 20> C -3.8989 2.7869 1.0226
| 21> C -2.6930 2.1219 1.2558
| 22> C -1.6030 2.2928 0.3834
| 23> C -0.3186 1.5213 0.6367
| 24> C -0.5708 0.0448 0.3914
| 25> C -0.6146 -0.8545 1.4694
| 26> C -0.7595 -2.2254 1.2424
| 27> C -0.8589 -2.7240 -0.0671
| 28> C -1.0227 -4.2030 -0.3083
| 29> F -2.3652 -4.5277 -0.2546
| 30> F -0.3428 -4.9303 0.6534
| 31> F -0.5219 -4.5557 -1.5496
| 32> C -0.8815 -1.8181 -1.1410
| 33> C -0.7331 -0.4473 -0.9144
| 34> H 2.1648 0.6804 1.9109
| 35> H 3.0138 -1.4242 2.8012
| 36> H 3.4570 -3.8281 2.4711
| 37> H 2.8316 -3.3806 -1.7533
| 38> H 2.3818 -0.9889 -1.4502
| 39> H 0.8097 4.1087 -0.1834
| 40> H 1.5605 3.3815 -1.6442
| 41> H -0.6518 4.3576 -2.1536
| 42> H -0.6223 2.5819 -2.4568
| 43> H -3.0760 4.4633 -1.8122
| 44> H -4.9702 4.1345 -0.2673
| 45> H -4.7333 2.6457 1.6974
| 46> H -2.6094 1.4646 2.1125
| 47> H -0.0475 1.6830 1.7037
| 48> H -0.5103 -0.4980 2.4865
| 49> H -0.7800 -2.8979 2.0908
| 50> H -0.9987 -2.1707 -2.1579
| 51> H -0.7221 0.2280 -1.7594
| 52> *
| 53> 
| 54>                          ****END OF INPUT****
================================================================================

                       ****************************
                       * Single Point Calculation *
                       ****************************

---------------------------------
CARTESIAN COORDINATES (ANGSTROEM)
---------------------------------
  O      2.969900    1.503400   -1.003000
  C      2.090400    1.302600   -0.121900
  N      2.359100    0.369700    0.932400
  C      2.689700   -1.012600    0.703400
  C      2.986800   -1.837200    1.800700
  C      3.233400   -3.201100    1.617600
  C      3.181000   -3.756900    0.337200
  F      3.409100   -5.081800    0.162700
  C      2.884000   -2.948300   -0.762400
  C      2.639300   -1.583300   -0.584500
  N      0.821700    1.994400   -0.185400
  C      0.734000    3.270700   -0.910300
  C     -0.586800    3.360500   -1.665500
  C     -1.734900    3.160700   -0.721100
  C     -2.957200    3.810300   -0.956400
  C     -4.032400    3.626100   -0.084400
  C     -3.898900    2.786900    1.022600
  C     -2.693000    2.121900    1.255800
  C     -1.603000    2.292800    0.383400
  C     -0.318600    1.521300    0.636700
  C     -0.570800    0.044800    0.391400
  C     -0.614600   -0.854500    1.469400
  C     -0.759500   -2.225400    1.242400
  C     -0.858900   -2.724000   -0.067100
  C     -1.022700   -4.203000   -0.308300
  F     -2.365200   -4.527700   -0.254600
  F     -0.342800   -4.930300    0.653400
  F     -0.521900   -4.555700   -1.549600
  C     -0.881500   -1.818100   -1.141000
  C     -0.733100   -0.447300   -0.914400
  H      2.164800    0.680400    1.910900
  H      3.013800   -1.424200    2.801200
  H      3.457000   -3.828100    2.471100
  H      2.831600   -3.380600   -1.753300
  H      2.381800   -0.988900   -1.450200
  H      0.809700    4.108700   -0.183400
  H      1.560500    3.381500   -1.644200
  H     -0.651800    4.357600   -2.153600
  H     -0.622300    2.581900   -2.456800
  H     -3.076000    4.463300   -1.812200
  H     -4.970200    4.134500   -0.267300
  H     -4.733300    2.645700    1.697400
  H     -2.609400    1.464600    2.112500
  H     -0.047500    1.683000    1.703700
  H     -0.510300   -0.498000    2.486500
  H     -0.780000   -2.897900    2.090800
  H     -0.998700   -2.170700   -2.157900
  H     -0.722100    0.228000   -1.759400

----------------------------
CARTESIAN COORDINATES (A.U.)
----------------------------
  NO LB      ZA    FRAG     MASS         X           Y           Z
   0 O     8.0000    0    15.999    5.612298    2.841014   -1.895395
   1 C     6.0000    0    12.011    3.950284    2.461557   -0.230358
   2 N     7.0000    0    14.007    4.458053    0.698632    1.761981
   3 C     6.0000    0    12.011    5.082796   -1.913537    1.329233
   4 C     6.0000    0    12.011    5.644234   -3.471805    3.402830
   5 C     6.0000    0    12.011    6.110240   -6.049202    3.056821
   6 C     6.0000    0    12.011    6.011219   -7.099512    0.637216
   7 F     9.0000    0    18.998    6.442265   -9.603210    0.307458
   8 C     6.0000    0    12.011    5.449970   -5.571480   -1.440727
   9 C     6.0000    0    12.011    4.987554   -2.992003   -1.104545
  10 N     7.0000    0    14.007    1.552788    3.768870   -0.350355
  11 C     6.0000    0    12.011    1.387059    6.180727   -1.720218
  12 C     6.0000    0    12.011   -1.108891    6.350425   -3.147339
  13 C     6.0000    0    12.011   -3.278486    5.972857   -1.362682
  14 C     6.0000    0    12.011   -5.588298    7.200423   -1.807334
  15 C     6.0000    0    12.011   -7.620132    6.852336   -0.159493
  16 C     6.0000    0    12.011   -7.367853    5.266478    1.932434
  17 C     6.0000    0    12.011   -5.089032    4.009810    2.373118
  18 C     6.0000    0    12.011   -3.029231    4.332764    0.724521
  19 C     6.0000    0    12.011   -0.602067    2.874840    1.203189
  20 C     6.0000    0    12.011   -1.078656    0.084660    0.739639
  21 C     6.0000    0    12.011   -1.161426   -1.614771    2.776764
  22 C     6.0000    0    12.011   -1.435247   -4.205397    2.347796
  23 C     6.0000    0    12.011   -1.623086   -5.147614   -0.126801
  24 C     6.0000    0    12.011   -1.932623   -7.942519   -0.582603
  25 F     9.0000    0    18.998   -4.469580   -8.556113   -0.481124
  26 F     9.0000    0    18.998   -0.647798   -9.316917    1.234747
  27 F     9.0000    0    18.998   -0.986248   -8.609025   -2.928320
  28 C     6.0000    0    12.011   -1.665794   -3.435711   -2.156178
  29 C     6.0000    0    12.011   -1.385358   -0.845274   -1.727966
  30 H     1.0000    0     1.008    4.090879    1.285770    3.611078
  31 H     1.0000    0     1.008    5.695257   -2.691348    5.293501
  32 H     1.0000    0     1.008    6.532783   -7.234061    4.669702
  33 H     1.0000    0     1.008    5.350949   -6.388408   -3.313257
  34 H     1.0000    0     1.008    4.500950   -1.868750   -2.740481
  35 H     1.0000    0     1.008    1.530111    7.764318   -0.346576
  36 H     1.0000    0     1.008    2.948918    6.390109   -3.107088
  37 H     1.0000    0     1.008   -1.231723    8.234671   -4.069714
  38 H     1.0000    0     1.008   -1.175977    4.879084   -4.642679
  39 H     1.0000    0     1.008   -5.812798    8.434415   -3.424562
  40 H     1.0000    0     1.008   -9.392317    7.813073   -0.505124
  41 H     1.0000    0     1.008   -8.944641    4.999648    3.207621
  42 H     1.0000    0     1.008   -4.931051    2.767693    3.992046
  43 H     1.0000    0     1.008   -0.089762    3.180409    3.219526
  44 H     1.0000    0     1.008   -0.964327   -0.941084    4.698804
  45 H     1.0000    0     1.008   -1.473986   -5.476237    3.951039
  46 H     1.0000    0     1.008   -1.887269   -4.102029   -4.077840
  47 H     1.0000    0     1.008   -1.364571    0.430858   -3.324784

--------------------------------
INTERNAL COORDINATES (ANGSTROEM)
--------------------------------
 O      0   0   0     0.000000000000     0.00000000     0.00000000
 C      1   0   0     1.261022640558     0.00000000     0.00000000
 N      2   1   0     1.433195935663   119.13621995     0.00000000
 C      3   2   1     1.439614757496   123.43878659   302.04286575
 C      4   3   2     1.404386293012   119.21433635   177.57868968
 C      5   4   3     1.398055928781   120.51744286   176.17747998
 C      6   5   4     1.396811927211   120.10726522   359.76191960
 F      7   6   5     1.355669528314   120.03666030   180.56438623
 C      7   6   5     1.396840406059   119.94945850     0.11016715
 C      9   7   6     1.398124279168   120.14638095     0.00000000
 N      2   1   3     1.446450545300   120.32534332   180.71286357
 C     11   2   1     1.470412523750   119.28094902   336.04307113
 C     12  11   2     1.524107515892   110.31047933   141.51139540
 C     13  12  11     1.499981669888   110.08947673    55.44373698
 C     14  13  12     1.404052541752   119.94625558   148.41964521
 C     15  14  13     1.396556006754   120.30277848   179.78751973
 C     16  15  14     1.395538566289   120.06355268   359.59331965
 C     17  16  15     1.396711154820   120.08916995   359.54428517
 C     18  17  16     1.406552014680   120.50866250     0.18228083
 C     11   2   1     1.483224902029   119.83050486   164.94582409
 C     20  11   2     1.517837007060   110.39230620   306.68205729
 C     21  20  11     1.404543673226   120.26398922   126.18689053
 C     22  21  20     1.397101220385   120.45100083   184.17997147
 C     23  22  21     1.404732205796   120.47016467     0.21433110
 C     24  23  22     1.507464387639   120.33708026   180.33346858
 F     25  24  23     1.382251796888   109.25598522    86.43361439
 F     25  24  23     1.384231263193   110.54622197   326.40539707
 F     25  24  23     1.384205049839   110.74224933   206.56430732
 C     24  23  22     1.405142974932   118.99653117   356.67117207
 C     29  24  23     1.397305535665   120.45260247     3.49539485
 H      3   2   1     1.044868044300   117.41821544   131.37371083
 H      5   4   3     1.082727227883   120.21896162   357.01974033
 H      6   5   4     1.082399283998   119.88647344   180.27663254
 H      9   7   6     1.082364014553   119.98485011   180.73049195
 H     10   9   7     1.081228051800   118.45867084   181.87505661
 H     12  11   2     1.111916408729   109.13624938   262.20891490
 H     12  11   2     1.110850169915   111.58628735    21.26729286
 H     13  12  11     1.112058910310   108.72136449   176.68275780
 H     13  12  11     1.110690731032   109.84102314   295.02358311
 H     15  14  13     1.083012502236   120.45635215   359.47420915
 H     16  15  14     1.082308555819   119.97523867   179.60288144
 H     17  16  15     1.082365853120   119.95028147   179.98139244
 H     18  17  16     1.083036075115   119.18787087   180.75053974
 H     20  11   2     1.112713395264   107.32750396    66.18058353
 H     22  21  20     1.082803375503   120.47280833     2.55618709
 H     23  22  21     1.082801486885   118.95246385   179.36936546
 H     29  24  23     1.082657937670   120.63842910   182.55016804
 H     30  29  24     1.081746777208   119.13235718   178.06271593

---------------------------
INTERNAL COORDINATES (A.U.)
---------------------------
 O      0   0   0     0.000000000000     0.00000000     0.00000000
 C      1   0   0     2.382987439329     0.00000000     0.00000000
 N      2   1   0     2.708347814651   119.13621995     0.00000000
 C      3   2   1     2.720477630019   123.43878659   302.04286575
 C      4   3   2     2.653905480026   119.21433635   177.57868968
 C      5   4   3     2.641942825301   120.51744286   176.17747998
 C      6   5   4     2.639592003024   120.10726522   359.76191960
 F      7   6   5     2.561844136616   120.03666030   180.56438623
 C      7   6   5     2.639645820247   119.94945850     0.11016715
 C      9   7   6     2.642071988814   120.14638095     0.00000000
 N      2   1   3     2.733395396879   120.32534332   180.71286357
 C     11   2   1     2.778676973775   119.28094902   336.04307113
 C     12  11   2     2.880145803688   110.31047933   141.51139540
 C     13  12  11     2.834554561990   110.08947673    55.44373698
 C     14  13  12     2.653274781547   119.94625558   148.41964521
 C     15  14  13     2.639108383447   120.30277848   179.78751973
 C     16  15  14     2.637185699611   120.06355268   359.59331965
 C     17  16  15     2.639401570804   120.08916995   359.54428517
 C     18  17  16     2.657998100860   120.50866250     0.18228083
 C     11   2   1     2.802888859848   119.83050486   164.94582409
 C     20  11   2     2.868296259274   110.39230620   306.68205729
 C     21  20  11     2.654202885529   120.26398922   126.18689053
 C     22  21  20     2.640138687894   120.45100083   184.17997147
 C     23  22  21     2.654559160453   120.47016467     0.21433110
 C     24  23  22     2.848694849277   120.33708026   180.33346858
 F     25  24  23     2.612077344239   109.25598522    86.43361439
 F     25  24  23     2.615817993446   110.54622197   326.40539707
 F     25  24  23     2.615768457387   110.74224933   206.56430732
 C     24  23  22     2.655335401624   118.99653117   356.67117207
 C     29  24  23     2.640524787819   120.45260247     3.49539485
 H      3   2   1     1.974514449814   117.41821544   131.37371083
 H      5   4   3     2.046057938439   120.21896162   357.01974033
 H      6   5   4     2.045438214309   119.88647344   180.27663254
 H      9   7   6     2.045371564717   119.98485011   180.73049195
 H     10   9   7     2.043224906216   118.45867084   181.87505661
 H     12  11   2     2.101217496310   109.13624938   262.20891490
 H     12  11   2     2.099202596959   111.58628735    21.26729286
 H     13  12  11     2.101486785273   108.72136449   176.68275780
 H     13  12  11     2.098901301135   109.84102314   295.02358311
 H     15  14  13     2.046597028839   120.45635215   359.47420915
 H     16  15  14     2.045266762899   119.97523867   179.60288144
 H     17  16  15     2.045375039105   119.95028147   179.98139244
 H     18  17  16     2.046641575124   119.18787087   180.75053974
 H     20  11   2     2.102723582595   107.32750396    66.18058353
 H     22  21  20     2.046201836586   120.47280833     2.55618709
 H     23  22  21     2.046198267615   118.95246385   179.36936546
 H     29  24  23     2.045926998912   120.63842910   182.55016804
 H     30  29  24     2.044205155175   119.13235718   178.06271593

---------------------
BASIS SET INFORMATION
---------------------
There are 5 groups of distinct atoms

 Group   1 Type O   : 10s4p1d contracted to 3s2p1d pattern {631/31/1}
 Group   2 Type C   : 10s4p1d contracted to 3s2p1d pattern {631/31/1}
 Group   3 Type N   : 10s4p1d contracted to 3s2p1d pattern {631/31/1}
 Group   4 Type F   : 10s4p1d contracted to 3s2p1d pattern {631/31/1}
 Group   5 Type H   : 4s contracted to 2s pattern {31}

Atom   0O    basis set group =>   1
Atom   1C    basis set group =>   2
Atom   2N    basis set group =>   3
Atom   3C    basis set group =>   2
Atom   4C    basis set group =>   2
Atom   5C    basis set group =>   2
Atom   6C    basis set group =>   2
Atom   7F    basis set group =>   4
Atom   8C    basis set group =>   2
Atom   9C    basis set group =>   2
Atom  10N    basis set group =>   3
Atom  11C    basis set group =>   2
Atom  12C    basis set group =>   2
Atom  13C    basis set group =>   2
Atom  14C    basis set group =>   2
Atom  15C    basis set group =>   2
Atom  16C    basis set group =>   2
Atom  17C    basis set group =>   2
Atom  18C    basis set group =>   2
Atom  19C    basis set group =>   2
Atom  20C    basis set group =>   2
Atom  21C    basis set group =>   2
Atom  22C    basis set group =>   2
Atom  23C    basis set group =>   2
Atom  24C    basis set group =>   2
Atom  25F    basis set group =>   4
Atom  26F    basis set group =>   4
Atom  27F    basis set group =>   4
Atom  28C    basis set group =>   2
Atom  29C    basis set group =>   2
Atom  30H    basis set group =>   5
Atom  31H    basis set group =>   5
Atom  32H    basis set group =>   5
Atom  33H    basis set group =>   5
Atom  34H    basis set group =>   5
Atom  35H    basis set group =>   5
Atom  36H    basis set group =>   5
Atom  37H    basis set group =>   5
Atom  38H    basis set group =>   5
Atom  39H    basis set group =>   5
Atom  40H    basis set group =>   5
Atom  41H    basis set group =>   5
Atom  42H    basis set group =>   5
Atom  43H    basis set group =>   5
Atom  44H    basis set group =>   5
Atom  45H    basis set group =>   5
Atom  46H    basis set group =>   5
Atom  47H    basis set group =>   5
---------------------------------
AUXILIARY/J BASIS SET INFORMATION
---------------------------------
There are 5 groups of distinct atoms

 Group   1 Type O   : 12s5p4d2f1g contracted to 6s4p3d1f1g pattern {711111/2111/211/2/1}
 Group   2 Type C   : 12s5p4d2f1g contracted to 6s4p3d1f1g pattern {711111/2111/211/2/1}
 Group   3 Type N   : 12s5p4d2f1g contracted to 6s4p3d1f1g pattern {711111/2111/211/2/1}
 Group   4 Type F   : 12s5p4d2f1g contracted to 6s4p3d1f1g pattern {711111/2111/211/2/1}
 Group   5 Type H   : 5s2p1d contracted to 3s1p1d pattern {311/2/1}

Atom   0O    basis set group =>   1
Atom   1C    basis set group =>   2
Atom   2N    basis set group =>   3
Atom   3C    basis set group =>   2
Atom   4C    basis set group =>   2
Atom   5C    basis set group =>   2
Atom   6C    basis set group =>   2
Atom   7F    basis set group =>   4
Atom   8C    basis set group =>   2
Atom   9C    basis set group =>   2
Atom  10N    basis set group =>   3
Atom  11C    basis set group =>   2
Atom  12C    basis set group =>   2
Atom  13C    basis set group =>   2
Atom  14C    basis set group =>   2
Atom  15C    basis set group =>   2
Atom  16C    basis set group =>   2
Atom  17C    basis set group =>   2
Atom  18C    basis set group =>   2
Atom  19C    basis set group =>   2
Atom  20C    basis set group =>   2
Atom  21C    basis set group =>   2
Atom  22C    basis set group =>   2
Atom  23C    basis set group =>   2
Atom  24C    basis set group =>   2
Atom  25F    basis set group =>   4
Atom  26F    basis set group =>   4
Atom  27F    basis set group =>   4
Atom  28C    basis set group =>   2
Atom  29C    basis set group =>   2
Atom  30H    basis set group =>   5
Atom  31H    basis set group =>   5
Atom  32H    basis set group =>   5
Atom  33H    basis set group =>   5
Atom  34H    basis set group =>   5
Atom  35H    basis set group =>   5
Atom  36H    basis set group =>   5
Atom  37H    basis set group =>   5
Atom  38H    basis set group =>   5
Atom  39H    basis set group =>   5
Atom  40H    basis set group =>   5
Atom  41H    basis set group =>   5
Atom  42H    basis set group =>   5
Atom  43H    basis set group =>   5
Atom  44H    basis set group =>   5
Atom  45H    basis set group =>   5
Atom  46H    basis set group =>   5
Atom  47H    basis set group =>   5
------------------------------------------------------------------------------
                             ORCA STARTUP CALCULATIONS
                           -- RI-GTO INTEGRALS CHOSEN --
------------------------------------------------------------------------------
------------------------------------------------------------------------------
                   ___                                                        
                  /   \      - P O W E R E D   B Y -                         
                 /     \                                                     
                 |  |  |   _    _      __       _____    __    __             
                 |  |  |  | |  | |    /  \     |  _  \  |  |  /  |          
                  \  \/   | |  | |   /    \    | | | |  |  | /  /          
                 / \  \   | |__| |  /  /\  \   | |_| |  |  |/  /          
                |  |  |   |  __  | /  /__\  \  |    /   |      \           
                |  |  |   | |  | | |   __   |  |    \   |  |\   \          
                \     /   | |  | | |  |  |  |  | |\  \  |  | \   \       
                 \___/    |_|  |_| |__|  |__|  |_| \__\ |__|  \__/        
                                                                              
                      - O R C A' S   B I G   F R I E N D -                    
                                      &                                       
                       - I N T E G R A L  F E E D E R -                       
                                                                              
 v1 FN, 2020, v2 2021, v3 2022-2024                                           
------------------------------------------------------------------------------


----------------------
SHARK INTEGRAL PACKAGE
----------------------

Number of atoms                             ...     48
Number of basis functions                   ...    456
Number of shells                            ...    216
Maximum angular momentum                    ...      2
Integral batch strategy                     ... SHARK/LIBINT Hybrid
RI-J (if used) integral strategy            ... SPLIT-RIJ (Revised 2003 algorithm where possible)
Printlevel                                  ...      1
Contraction scheme used                     ... SEGMENTED contraction
Prescreening option                         ... SCHWARTZ
   Thresh                                   ... 1.000e-10
   Tcut                                     ... 1.000e-11
   Tpresel                                  ... 1.000e-11 
Coulomb Range Separation                    ... NOT USED
Exchange Range Separation                   ... NOT USED
Multipole approximations                    ... NOT USED
Finite Nucleus Model                        ... NOT USED
CABS basis                                  ... NOT available
Auxiliary Coulomb fitting basis             ... AVAILABLE
   # of basis functions in Aux-J            ...   1668
   # of shells in Aux-J                     ...    540
   Maximum angular momentum in Aux-J        ...      4
Auxiliary J/K fitting basis                 ... NOT available
Auxiliary Correlation fitting basis         ... NOT available
Auxiliary 'external' fitting basis          ... NOT available

Checking pre-screening integrals            ... done (  0.0 sec) Dimension = 216
Check shell pair data                       ... done (  0.0 sec)
Shell pair information
Shell pair cut-off parameter TPreSel        ...   1.0e-11
Total number of shell pairs                 ...     23436
Shell pairs after pre-screening             ...     15560
Total number of primitive shell pairs       ...    137187
Primitive shell pairs kept                  ...     47208
          la=0 lb=0:   5010 shell pairs
          la=1 lb=0:   5433 shell pairs
          la=1 lb=1:   1470 shell pairs
          la=2 lb=0:   2141 shell pairs
          la=2 lb=1:   1259 shell pairs
          la=2 lb=2:    247 shell pairs

Calculating one electron integrals          ... done (  0.1 sec)
Calculating RI/J V-Matrix + Cholesky decomp.... done (  0.3 sec)
Calculating Nuclear repulsion               ... done (  0.0 sec) ENN=   2976.401992769439 Eh

Diagonalization of the overlap matrix:
Smallest eigenvalue                        ... 3.987e-04
Time for diagonalization                   ...    0.021 sec
Threshold for overlap eigenvalues          ... 1.000e-07
Number of eigenvalues below threshold      ... 0
Time for construction of square roots      ...    0.030 sec
Total time needed                          ...    0.065 sec

-------------------
DFT GRID GENERATION
-------------------

General Integration Accuracy     IntAcc      ... 4.388
Radial Grid Type                 RadialGrid  ... OptM3 with GC (2021)
Angular Grid (max. ang.)         AngularGrid ... 4 (Lebedev-302)
Angular grid pruning method      GridPruning ... 4 (adaptive)
Weight generation scheme         WeightScheme... mBecke (2022)
Basis function cutoff            BFCut       ... 1.0000e-10
Integration weight cutoff        WCut        ... 1.0000e-14
Partially contracted basis set               ... off
Rotationally invariant grid construction     ... off
Angular grids for H and He will be reduced by one unit

Total number of grid points                  ...   235572
Total number of batches                      ...     3707
Average number of points per batch           ...       63
Average number of grid points per atom       ...     4908

--------------------
COSX GRID GENERATION
--------------------

GRIDX 1
-------
General Integration Accuracy     IntAcc      ... 3.816
Radial Grid Type                 RadialGrid  ... OptM3 with GC (2021)
Angular Grid (max. ang.)         AngularGrid ... 1 (Lebedev-50)
Angular grid pruning method      GridPruning ... 4 (adaptive)
Weight generation scheme         WeightScheme... mBecke (2022)
Basis function cutoff            BFCut       ... 1.0000e-10
Integration weight cutoff        WCut        ... 1.0000e-14
Partially contracted basis set               ... on
Rotationally invariant grid construction     ... off
Angular grids for H and He will be reduced by one unit

Total number of grid points                  ...    29840
Total number of batches                      ...      261
Average number of points per batch           ...      114
Average number of grid points per atom       ...      622
UseSFitting                                  ... on

GRIDX 2
-------
General Integration Accuracy     IntAcc      ... 4.020
Radial Grid Type                 RadialGrid  ... OptM3 with GC (2021)
Angular Grid (max. ang.)         AngularGrid ... 2 (Lebedev-110)
Angular grid pruning method      GridPruning ... 4 (adaptive)
Weight generation scheme         WeightScheme... mBecke (2022)
Basis function cutoff            BFCut       ... 1.0000e-10
Integration weight cutoff        WCut        ... 1.0000e-14
Partially contracted basis set               ... on
Rotationally invariant grid construction     ... off
Angular grids for H and He will be reduced by one unit

Total number of grid points                  ...    65206
Total number of batches                      ...      534
Average number of points per batch           ...      122
Average number of grid points per atom       ...     1358
UseSFitting                                  ... on

GRIDX 3
-------
General Integration Accuracy     IntAcc      ... 4.338
Radial Grid Type                 RadialGrid  ... OptM3 with GC (2021)
Angular Grid (max. ang.)         AngularGrid ... 3 (Lebedev-194)
Angular grid pruning method      GridPruning ... 4 (adaptive)
Weight generation scheme         WeightScheme... mBecke (2022)
Basis function cutoff            BFCut       ... 1.0000e-10
Integration weight cutoff        WCut        ... 1.0000e-14
Partially contracted basis set               ... on
Rotationally invariant grid construction     ... off
Angular grids for H and He will be reduced by one unit

Total number of grid points                  ...   142618
Total number of batches                      ...     1141
Average number of points per batch           ...      124
Average number of grid points per atom       ...     2971
UseSFitting                                  ... on
Initializing property integral containers    ... done (  0.0 sec)

SHARK setup successfully completed in   8.8 seconds

Maximum memory used throughout the entire STARTUP-calculation: 103.9 MB
-------------------------------------------------------------------------------
                                 ORCA GUESS
                   Start orbitals & Density for SCF / CASSCF
-------------------------------------------------------------------------------

------------
SCF SETTINGS
------------
Hamiltonian:
 Density Functional     Method          .... DFT(GTOs)
 Exchange Functional    Exchange        .... B88
   X-Alpha parameter    XAlpha          ....  0.666667
   Becke's b parameter  XBeta           ....  0.004200
 Correlation Functional Correlation     .... LYP
 LDA part of GGA corr.  LDAOpt          .... VWN-5
 Gradients option       PostSCFGGA      .... off
 Hybrid DFT is turned on
   Fraction HF Exchange ScalHFX         ....  0.200000
   Scaling of DF-GGA-X  ScalDFX         ....  0.720000
   Scaling of DF-GGA-C  ScalDFC         ....  0.810000
   Scaling of DF-LDA-C  ScalLDAC        ....  1.000000
   Perturbative correction              ....  0.000000
   NL short-range parameter             ....  4.800000
 RI-approximation to the Coulomb term is turned on
   Number of AuxJ basis functions       .... 1668
   RIJ-COSX (HFX calculated with COS-X)).... on


General Settings:
 Integral files         IntName         .... /home/nmrbox/aojoawo/Documents/ERDOS/inputs/CHEMBL2032210
 Hartree-Fock type      HFTyp           .... RHF
 Total Charge           Charge          ....    0
 Multiplicity           Mult            ....    1
 Number of Electrons    NEL             ....  214
 Basis Dimension        Dim             ....  456
 Nuclear Repulsion      ENuc            ....   2976.4019927694 Eh

Convergence Acceleration:
 AO-DIIS                CNVDIIS         .... on
   Start iteration      DIISMaxIt       ....    12
   Startup error        DIISStart       ....  0.200000
   # of expansion vecs  DIISMaxEq       ....     5
   Bias factor          DIISBfac        ....   1.050
   Max. coefficient     DIISMaxC        ....  10.000
 MO-DIIS                CNVKDIIS        .... off
 Trust-Rad. Augm. Hess. CNVTRAH         .... auto
   Auto Start mean grad. ratio tolernc. ....  1.125000
   Auto Start start iteration           ....    50
   Auto Start num. interpolation iter.  ....    10
   Max. Number of Micro iterations      ....    24
   Max. Number of Macro iterations      .... Maxiter - #DIIS iter
   Number of Davidson start vectors     ....     2
   Converg. threshold    (grad. norm)   ....   5.000e-05
   Grad. Scal. Fac. for Micro threshold ....   0.100
   Minimum threshold for Micro iter.    ....   1.000e-02
   NR start threshold (gradient norm)   ....   1.000e-04
   Initial trust radius                 ....   0.400
   Minimum AH scaling param. (alpha)    ....   1.000
   Maximum AH scaling param. (alpha)    .... 1000.000
   Quad. conv. algorithm                .... NR
   White noise on init. David. guess    .... on
   Maximum white noise                  ....   0.010
   Pseudo random numbers                .... off
   Inactive MOs                         .... canonical
   Orbital update algorithm             .... Taylor
   Preconditioner                       .... Diag
   Full preconditioner red. dimension   ....   250
 SOSCF                  CNVSOSCF        .... on
   Start iteration      SOSCFMaxIt      ....   150
   Startup grad/error   SOSCFStart      ....  0.003300
   Hessian update       SOSCFHessUp     .... L-BFGS
 Level Shifting         CNVShift        .... on
   Level shift para.    LevelShift      ....    0.2500
   Turn off err/grad.   ShiftErr        ....    0.0010
 Zerner damping         CNVZerner       .... off
 Static damping         CNVDamp         .... on
   Fraction old density DampFac         ....    0.7000
   Max. Damping (<1)    DampMax         ....    0.9800
   Min. Damping (>=0)   DampMin         ....    0.0000
   Turn off err/grad.   DampErr         ....    0.1000

SCF Procedure:
 Maximum # iterations   MaxIter         ....   125
 SCF integral mode      SCFMode         .... Direct
   Integral package                     .... SHARK and LIBINT hybrid scheme
 Reset frequency        DirectResetFreq ....    20
 Integral Threshold     Thresh          ....  1.000e-10 Eh
 Primitive CutOff       TCut            ....  1.000e-11 Eh

Convergence Tolerance:
 Convergence Check Mode ConvCheckMode   .... Total+1el-Energy
 Convergence forced     ConvForced      .... 0
 Energy Change          TolE            ....  1.000e-06 Eh
 1-El. energy change                    ....  1.000e-03 Eh
 Orbital Gradient       TolG            ....  5.000e-05
 Orbital Rotation angle TolX            ....  5.000e-05
 DIIS Error             TolErr          ....  1.000e-06

------------------------------
INITIAL GUESS: MODEL POTENTIAL
------------------------------
Loading Hartree-Fock densities                     ... done
Calculating cut-offs                               ... done
Initializing the effective Hamiltonian             ... done
Setting up the integral package (SHARK)            ... done
Starting the Coulomb interaction                   ... done (   2.0 sec)
Making the grid                                    ... done (   1.2 sec)
Mapping shells                                     ... done
Starting the XC term evaluation                    ... done (   1.0 sec)
  promolecular density results
     # of electrons  =    213.981834571
     EX              =   -185.116059490
     EC              =     -7.435819788
     EX+EC           =   -192.551879278
Transforming the Hamiltonian                       ... done (   0.0 sec)
Diagonalizing the Hamiltonian                      ... done (   0.0 sec)
Back transforming the eigenvectors                 ... done (   0.0 sec)
Now organizing SCF variables                       ... done
                      ------------------
                      INITIAL GUESS DONE (   4.2 sec)
                      ------------------
             **** ENERGY FILE WAS UPDATED (/home/nmrbox/aojoawo/Documents/ERDOS/inputs/CHEMBL2032210.en.tmp) ****
Finished Guess after   4.5 sec
Maximum memory used throughout the entire GUESS-calculation: 57.8 MB

-------------------------------------------------------------------------------------------
                                      ORCA LEAN-SCF
                              memory conserving SCF solver
-------------------------------------------------------------------------------------------

----------------------------------------D-I-I-S--------------------------------------------
Iteration    Energy (Eh)           Delta-E    RMSDP     MaxDP     DIISErr   Damp  Time(sec)
-------------------------------------------------------------------------------------------
               ***  Starting incremental Fock matrix formation  ***
    1    -1469.9067559967247689     0.00e+00  1.96e-03  1.07e-01  2.81e-01  0.700  41.1
    2    -1470.2072094284008017    -3.00e-01  1.31e-03  5.75e-02  9.85e-02  0.700  18.4
                               ***Turning on AO-DIIS***
    3    -1470.3244950435141618    -1.17e-01  5.60e-04  1.77e-02  3.62e-02  0.700  17.6
    4    -1470.3965461724151282    -7.21e-02  9.52e-04  2.63e-02  1.66e-02  0.000  16.3
    5    -1470.5546181682670976    -1.58e-01  2.04e-04  7.56e-03  6.35e-03  0.000  17.5
                              *** Initializing SOSCF ***
---------------------------------------S-O-S-C-F--------------------------------------
Iteration    Energy (Eh)           Delta-E    RMSDP     MaxDP     MaxGrad    Time(sec)
--------------------------------------------------------------------------------------
    6    -1470.5556262744535161    -1.01e-03  6.31e-05  2.21e-03  1.70e-03    15.0
               *** Restarting incremental Fock matrix formation ***
    7    -1470.5557650816404021    -1.39e-04  5.31e-05  3.27e-03  3.42e-04    41.3
    8    -1470.5557325985814714     3.25e-05  3.23e-05  2.32e-03  9.59e-04    23.2
    9    -1470.5557767931645685    -4.42e-05  1.10e-05  4.83e-04  8.20e-05    21.0
   10    -1470.5557757006586144     1.09e-06  6.79e-06  2.69e-04  1.36e-04    17.6
   11    -1470.5557773678833655    -1.67e-06  2.19e-06  8.21e-05  1.93e-05    15.5
   12    -1470.5557773657878897     2.10e-09  1.31e-06  5.30e-05  2.90e-05    12.7
                 **** Energy Check signals convergence ****

               *****************************************************
               *                     SUCCESS                       *
               *           SCF CONVERGED AFTER  12 CYCLES          *
               *****************************************************

Recomputing exchange energy using gridx3       ... done (   71.179 sec)
Old exchange energy                            :    -37.471557604 Eh
New exchange energy                            :    -37.471633726 Eh
Exchange energy change after final integration :     -0.000076122 Eh
Total energy after final integration           :  -1470.555853488 Eh
             **** ENERGY FILE WAS UPDATED (/home/nmrbox/aojoawo/Documents/ERDOS/inputs/CHEMBL2032210.en.tmp) ****

----------------
TOTAL SCF ENERGY
----------------

Total Energy       :      -1470.55585348792533 Eh          -40015.85914 eV

Components:
Nuclear Repulsion  :       2976.40199276943940 Eh           80992.01578 eV
Electronic Energy  :      -4446.95777013522729 Eh         -121007.87285 eV
One Electron Energy:      -7933.59593118012799 Eh         -215884.12062 eV
Two Electron Energy:       3486.63816104490070 Eh           94876.24778 eV

Virial components:
Potential Energy   :      -2932.13393095750371 Eh          -79787.42058 eV
Kinetic Energy     :       1461.57807746957837 Eh           39771.56144 eV
Virial Ratio       :          2.00614252235768

DFT components:
N(Alpha)           :      106.999990552034 electrons
N(Beta)            :      106.999990552034 electrons
N(Total)           :      213.999981104067 electrons
E(X)               :     -148.916704969228 Eh       
E(C)               :       -8.737788624069 Eh       
E(XC)              :     -157.654493593297 Eh       

---------------
SCF CONVERGENCE
---------------

  Last Energy change         ...   -2.0955e-09  Tolerance :   1.0000e-06
  Last MAX-Density change    ...    5.3007e-05  Tolerance :   1.0000e-05
  Last RMS-Density change    ...    1.3080e-06  Tolerance :   1.0000e-06
  Last DIIS Error            ...    1.6980e-03  Tolerance :   1.0000e-06
  Last Orbital Gradient      ...    2.9021e-05  Tolerance :   5.0000e-05
  Last Orbital Rotation      ...    4.3681e-05  Tolerance :   5.0000e-05


----------------
ORBITAL ENERGIES
----------------

  NO   OCC          E(Eh)            E(eV) 
   0   2.0000     -24.714506      -672.5159 
   1   2.0000     -24.713429      -672.4866 
   2   2.0000     -24.711066      -672.4223 
   3   2.0000     -24.684588      -671.7018 
   4   2.0000     -19.112293      -520.0719 
   5   2.0000     -14.366814      -390.9409 
   6   2.0000     -14.362202      -390.8154 
   7   2.0000     -10.429379      -283.7978 
   8   2.0000     -10.320714      -280.8409 
   9   2.0000     -10.254373      -279.0357 
  10   2.0000     -10.248063      -278.8640 
  11   2.0000     -10.232423      -278.4384 
  12   2.0000     -10.222339      -278.1640 
  13   2.0000     -10.209887      -277.8251 
  14   2.0000     -10.209727      -277.8208 
  15   2.0000     -10.206034      -277.7203 
  16   2.0000     -10.201889      -277.6075 
  17   2.0000     -10.201221      -277.5893 
  18   2.0000     -10.200348      -277.5656 
  19   2.0000     -10.198823      -277.5241 
  20   2.0000     -10.196625      -277.4643 
  21   2.0000     -10.195187      -277.4252 
  22   2.0000     -10.193641      -277.3831 
  23   2.0000     -10.190167      -277.2886 
  24   2.0000     -10.189705      -277.2760 
  25   2.0000     -10.189292      -277.2647 
  26   2.0000     -10.187591      -277.2185 
  27   2.0000     -10.184815      -277.1429 
  28   2.0000     -10.182425      -277.0779 
  29   2.0000     -10.181394      -277.0498 
  30   2.0000      -1.273921       -34.6651 
  31   2.0000      -1.199295       -32.6345 
  32   2.0000      -1.198481       -32.6123 
  33   2.0000      -1.198377       -32.6095 
  34   2.0000      -1.024548       -27.8794 
  35   2.0000      -0.938102       -25.5271 
  36   2.0000      -0.915864       -24.9219 
  37   2.0000      -0.871342       -23.7104 
  38   2.0000      -0.862194       -23.4615 
  39   2.0000      -0.840742       -22.8778 
  40   2.0000      -0.809411       -22.0252 
  41   2.0000      -0.788854       -21.4658 
  42   2.0000      -0.764586       -20.8055 
  43   2.0000      -0.759916       -20.6784 
  44   2.0000      -0.748189       -20.3593 
  45   2.0000      -0.740926       -20.1616 
  46   2.0000      -0.729868       -19.8607 
  47   2.0000      -0.700319       -19.0566 
  48   2.0000      -0.668949       -18.2030 
  49   2.0000      -0.650792       -17.7089 
  50   2.0000      -0.628808       -17.1107 
  51   2.0000      -0.623718       -16.9722 
  52   2.0000      -0.616575       -16.7778 
  53   2.0000      -0.609467       -16.5845 
  54   2.0000      -0.600394       -16.3376 
  55   2.0000      -0.581585       -15.8257 
  56   2.0000      -0.565154       -15.3786 
  57   2.0000      -0.562324       -15.3016 
  58   2.0000      -0.559006       -15.2113 
  59   2.0000      -0.552127       -15.0242 
  60   2.0000      -0.538588       -14.6557 
  61   2.0000      -0.531133       -14.4529 
  62   2.0000      -0.517548       -14.0832 
  63   2.0000      -0.514555       -14.0017 
  64   2.0000      -0.499224       -13.5846 
  65   2.0000      -0.480083       -13.0637 
  66   2.0000      -0.474216       -12.9041 
  67   2.0000      -0.468498       -12.7485 
  68   2.0000      -0.465461       -12.6658 
  69   2.0000      -0.459821       -12.5124 
  70   2.0000      -0.447401       -12.1744 
  71   2.0000      -0.444825       -12.1043 
  72   2.0000      -0.443604       -12.0711 
  73   2.0000      -0.442054       -12.0289 
  74   2.0000      -0.441389       -12.0108 
  75   2.0000      -0.439857       -11.9691 
  76   2.0000      -0.436226       -11.8703 
  77   2.0000      -0.424789       -11.5591 
  78   2.0000      -0.423527       -11.5248 
  79   2.0000      -0.416097       -11.3226 
  80   2.0000      -0.412586       -11.2270 
  81   2.0000      -0.411600       -11.2002 
  82   2.0000      -0.408222       -11.1083 
  83   2.0000      -0.403882       -10.9902 
  84   2.0000      -0.397913       -10.8278 
  85   2.0000      -0.392650       -10.6846 
  86   2.0000      -0.389628       -10.6023 
  87   2.0000      -0.386685       -10.5222 
  88   2.0000      -0.384575       -10.4648 
  89   2.0000      -0.380064       -10.3421 
  90   2.0000      -0.366737        -9.9794 
  91   2.0000      -0.360637        -9.8134 
  92   2.0000      -0.358685        -9.7603 
  93   2.0000      -0.355475        -9.6730 
  94   2.0000      -0.350337        -9.5331 
  95   2.0000      -0.340314        -9.2604 
  96   2.0000      -0.336748        -9.1634 
  97   2.0000      -0.333497        -9.0749 
  98   2.0000      -0.298901        -8.1335 
  99   2.0000      -0.272073        -7.4035 
 100   2.0000      -0.266579        -7.2540 
 101   2.0000      -0.256049        -6.9675 
 102   2.0000      -0.251345        -6.8394 
 103   2.0000      -0.246668        -6.7122 
 104   2.0000      -0.243055        -6.6139 
 105   2.0000      -0.236152        -6.4260 
 106   2.0000      -0.201860        -5.4929 
 107   0.0000      -0.032486        -0.8840 
 108   0.0000      -0.023117        -0.6291 
 109   0.0000      -0.011093        -0.3019 
 110   0.0000      -0.005089        -0.1385 
 111   0.0000      -0.003293        -0.0896 
 112   0.0000       0.000660         0.0180 
 113   0.0000       0.028814         0.7841 
 114   0.0000       0.052820         1.4373 
 115   0.0000       0.083262         2.2657 
 116   0.0000       0.093201         2.5361 
 117   0.0000       0.095380         2.5954 
*Only the first 10 virtual orbitals were printed.

                    ********************************
                    * MULLIKEN POPULATION ANALYSIS *
                    ********************************

-----------------------
MULLIKEN ATOMIC CHARGES
-----------------------
   0 O :   -0.467618
   1 C :    0.654018
   2 N :   -0.710748
   3 C :    0.356515
   4 C :   -0.181216
   5 C :   -0.209989
   6 C :    0.406363
   7 F :   -0.322829
   8 C :   -0.218368
   9 C :   -0.149077
  10 N :   -0.454950
  11 C :   -0.132588
  12 C :   -0.355257
  13 C :    0.112737
  14 C :   -0.185034
  15 C :   -0.121468
  16 C :   -0.127840
  17 C :   -0.172668
  18 C :    0.098500
  19 C :   -0.096811
  20 C :    0.189907
  21 C :   -0.186207
  22 C :   -0.150053
  23 C :   -0.007679
  24 C :    0.895484
  25 F :   -0.298543
  26 F :   -0.303710
  27 F :   -0.305968
  28 C :   -0.157229
  29 C :   -0.167239
  30 H :    0.324966
  31 H :    0.122905
  32 H :    0.141602
  33 H :    0.147099
  34 H :    0.156671
  35 H :    0.143912
  36 H :    0.190642
  37 H :    0.150262
  38 H :    0.165966
  39 H :    0.128398
  40 H :    0.131189
  41 H :    0.132345
  42 H :    0.127365
  43 H :    0.135272
  44 H :    0.123725
  45 H :    0.151479
  46 H :    0.152432
  47 H :    0.143330
Sum of atomic charges:    0.0000000

--------------------------------
MULLIKEN REDUCED ORBITAL CHARGES
--------------------------------
  0 O s       :     3.892390  s :     3.892390
      pz      :     1.472508  p :     4.549870
      px      :     1.521805
      py      :     1.555557
      dz2     :     0.006027  d :     0.025358
      dxz     :     0.007497
      dyz     :     0.003697
      dx2y2   :     0.003554
      dxy     :     0.004582

  1 C s       :     2.929920  s :     2.929920
      pz      :     0.769437  p :     2.300914
      px      :     0.747174
      py      :     0.784303
      dz2     :     0.022724  d :     0.115147
      dxz     :     0.027826
      dyz     :     0.021195
      dx2y2   :     0.020788
      dxy     :     0.022615

  2 N s       :     3.626510  s :     3.626510
      pz      :     1.156234  p :     4.054912
      px      :     1.691522
      py      :     1.207157
      dz2     :     0.008170  d :     0.029325
      dxz     :     0.002950
      dyz     :     0.008426
      dx2y2   :     0.005224
      dxy     :     0.004554

  3 C s       :     3.059257  s :     3.059257
      pz      :     0.864583  p :     2.529406
      px      :     0.955413
      py      :     0.709409
      dz2     :     0.012309  d :     0.054822
      dxz     :     0.006820
      dyz     :     0.013304
      dx2y2   :     0.010181
      dxy     :     0.012208

  4 C s       :     3.176547  s :     3.176547
      pz      :     0.941454  p :     2.969527
      px      :     1.050604
      py      :     0.977468
      dz2     :     0.009322  d :     0.035143
      dxz     :     0.002881
      dyz     :     0.012114
      dx2y2   :     0.005055
      dxy     :     0.005770

  5 C s       :     3.204549  s :     3.204549
      pz      :     0.956524  p :     2.970353
      px      :     1.030765
      py      :     0.983064
      dz2     :     0.007731  d :     0.035087
      dxz     :     0.004483
      dyz     :     0.012830
      dx2y2   :     0.004570
      dxy     :     0.005473

  6 C s       :     3.075795  s :     3.075795
      pz      :     0.879061  p :     2.445733
      px      :     0.994531
      py      :     0.572141
      dz2     :     0.015417  d :     0.072109
      dxz     :     0.007244
      dyz     :     0.021599
      dx2y2   :     0.013997
      dxy     :     0.013852

  7 F s       :     3.970820  s :     3.970820
      pz      :     1.921497  p :     5.334927
      px      :     1.893579
      py      :     1.519852
      dz2     :     0.002088  d :     0.017082
      dxz     :     0.000251
      dyz     :     0.004218
      dx2y2   :     0.005744
      dxy     :     0.004781

  8 C s       :     3.210506  s :     3.210506
      pz      :     0.966918  p :     2.972664
      px      :     1.024856
      py      :     0.980890
      dz2     :     0.008490  d :     0.035198
      dxz     :     0.003193
      dyz     :     0.012627
      dx2y2   :     0.004990
      dxy     :     0.005898

  9 C s       :     3.176567  s :     3.176567
      pz      :     0.967736  p :     2.937658
      px      :     1.012525
      py      :     0.957397
      dz2     :     0.008241  d :     0.034852
      dxz     :     0.004331
      dyz     :     0.012560
      dx2y2   :     0.004538
      dxy     :     0.005182

 10 N s       :     3.581644  s :     3.581644
      pz      :     1.446725  p :     3.840428
      px      :     1.133491
      py      :     1.260212
      dz2     :     0.004874  d :     0.032878
      dxz     :     0.006480
      dyz     :     0.004869
      dx2y2   :     0.008508
      dxy     :     0.008148

 11 C s       :     3.217783  s :     3.217783
      pz      :     0.991223  p :     2.861004
      px      :     1.020675
      py      :     0.849107
      dz2     :     0.005527  d :     0.053801
      dxz     :     0.011023
      dyz     :     0.017344
      dx2y2   :     0.015552
      dxy     :     0.004354

 12 C s       :     3.267764  s :     3.267764
      pz      :     1.012669  p :     3.046867
      px      :     0.964604
      py      :     1.069593
      dz2     :     0.004264  d :     0.040626
      dxz     :     0.010026
      dyz     :     0.011690
      dx2y2   :     0.011242
      dxy     :     0.003404

 13 C s       :     3.136945  s :     3.136945
      pz      :     0.881649  p :     2.709480
      px      :     0.880295
      py      :     0.947536
      dz2     :     0.008136  d :     0.040838
      dxz     :     0.010124
      dyz     :     0.006601
      dx2y2   :     0.008610
      dxy     :     0.007367

 14 C s       :     3.206094  s :     3.206094
      pz      :     0.980446  p :     2.942924
      px      :     0.959524
      py      :     1.002955
      dz2     :     0.006270  d :     0.036016
      dxz     :     0.008224
      dyz     :     0.007371
      dx2y2   :     0.007170
      dxy     :     0.006981

 15 C s       :     3.189138  s :     3.189138
      pz      :     0.950032  p :     2.895999
      px      :     0.976785
      py      :     0.969182
      dz2     :     0.008873  d :     0.036331
      dxz     :     0.007900
      dyz     :     0.005681
      dx2y2   :     0.005948
      dxy     :     0.007929

 16 C s       :     3.189422  s :     3.189422
      pz      :     0.966800  p :     2.902148
      px      :     0.967617
      py      :     0.967731
      dz2     :     0.006122  d :     0.036269
      dxz     :     0.011440
      dyz     :     0.005008
      dx2y2   :     0.007719
      dxy     :     0.005980

 17 C s       :     3.201209  s :     3.201209
      pz      :     0.990445  p :     2.935538
      px      :     0.960647
      py      :     0.984446
      dz2     :     0.006034  d :     0.035921
      dxz     :     0.008362
      dyz     :     0.007444
      dx2y2   :     0.007282
      dxy     :     0.006799

 18 C s       :     3.137366  s :     3.137366
      pz      :     0.911387  p :     2.724687
      px      :     0.860971
      py      :     0.952329
      dz2     :     0.008888  d :     0.039447
      dxz     :     0.009201
      dyz     :     0.006019
      dx2y2   :     0.007443
      dxy     :     0.007895

 19 C s       :     3.190707  s :     3.190707
      pz      :     0.978245  p :     2.846392
      px      :     0.890254
      py      :     0.977893
      dz2     :     0.016719  d :     0.059712
      dxz     :     0.011584
      dyz     :     0.005808
      dx2y2   :     0.012219
      dxy     :     0.013381

 20 C s       :     3.135292  s :     3.135292
      pz      :     0.841324  p :     2.634625
      px      :     0.943900
      py      :     0.849401
      dz2     :     0.010397  d :     0.040176
      dxz     :     0.006463
      dyz     :     0.012243
      dx2y2   :     0.005888
      dxy     :     0.005184

 21 C s       :     3.205160  s :     3.205160
      pz      :     0.967378  p :     2.945186
      px      :     1.012423
      py      :     0.965386
      dz2     :     0.010847  d :     0.035860
      dxz     :     0.002598
      dyz     :     0.011824
      dx2y2   :     0.005120
      dxy     :     0.005471

 22 C s       :     3.202209  s :     3.202209
      pz      :     0.971922  p :     2.911704
      px      :     0.970981
      py      :     0.968801
      dz2     :     0.008594  d :     0.036140
      dxz     :     0.003943
      dyz     :     0.013989
      dx2y2   :     0.004888
      dxy     :     0.004725

 23 C s       :     3.157147  s :     3.157147
      pz      :     0.895549  p :     2.812584
      px      :     1.014900
      py      :     0.902135
      dz2     :     0.010810  d :     0.037948
      dxz     :     0.006219
      dyz     :     0.010697
      dx2y2   :     0.006685
      dxy     :     0.003537

 24 C s       :     2.804232  s :     2.804232
      pz      :     0.621869  p :     2.162196
      px      :     0.629089
      py      :     0.911237
      dz2     :     0.031642  d :     0.138088
      dxz     :     0.029540
      dyz     :     0.023795
      dx2y2   :     0.030119
      dxy     :     0.022992

 25 F s       :     3.976324  s :     3.976324
      pz      :     1.899008  p :     5.305907
      px      :     1.508280
      py      :     1.898619
      dz2     :     0.002275  d :     0.016312
      dxz     :     0.003381
      dyz     :     0.000361
      dx2y2   :     0.006083
      dxy     :     0.004211

 26 F s       :     3.980621  s :     3.980621
      pz      :     1.703743  p :     5.306726
      px      :     1.801255
      py      :     1.801729
      dz2     :     0.003221  d :     0.016363
      dxz     :     0.003976
      dyz     :     0.004172
      dx2y2   :     0.002287
      dxy     :     0.002708

 27 F s       :     3.980287  s :     3.980287
      pz      :     1.571644  p :     5.309384
      px      :     1.848860
      py      :     1.888881
      dz2     :     0.005873  d :     0.016296
      dxz     :     0.004534
      dyz     :     0.003853
      dx2y2   :     0.001082
      dxy     :     0.000954

 28 C s       :     3.206672  s :     3.206672
      pz      :     0.987847  p :     2.914345
      px      :     0.974695
      py      :     0.951803
      dz2     :     0.010344  d :     0.036212
      dxz     :     0.002829
      dyz     :     0.011918
      dx2y2   :     0.005048
      dxy     :     0.006073

 29 C s       :     3.200648  s :     3.200648
      pz      :     0.975634  p :     2.930860
      px      :     0.991896
      py      :     0.963330
      dz2     :     0.008661  d :     0.035730
      dxz     :     0.003617
      dyz     :     0.014152
      dx2y2   :     0.004938
      dxy     :     0.004362

 30 H s       :     0.675034  s :     0.675034

 31 H s       :     0.877095  s :     0.877095

 32 H s       :     0.858398  s :     0.858398

 33 H s       :     0.852901  s :     0.852901

 34 H s       :     0.843329  s :     0.843329

 35 H s       :     0.856088  s :     0.856088

 36 H s       :     0.809358  s :     0.809358

 37 H s       :     0.849738  s :     0.849738

 38 H s       :     0.834034  s :     0.834034

 39 H s       :     0.871602  s :     0.871602

 40 H s       :     0.868811  s :     0.868811

 41 H s       :     0.867655  s :     0.867655

 42 H s       :     0.872635  s :     0.872635

 43 H s       :     0.864728  s :     0.864728

 44 H s       :     0.876275  s :     0.876275

 45 H s       :     0.848521  s :     0.848521

 46 H s       :     0.847568  s :     0.847568

 47 H s       :     0.856670  s :     0.856670



                     *******************************
                     * LOEWDIN POPULATION ANALYSIS *
                     *******************************

----------------------
LOEWDIN ATOMIC CHARGES
----------------------
   0 O :   -0.282564
   1 C :    0.161103
   2 N :   -0.229646
   3 C :    0.045287
   4 C :   -0.152971
   5 C :   -0.153563
   6 C :    0.099998
   7 F :   -0.108691
   8 C :   -0.149715
   9 C :   -0.136512
  10 N :   -0.113738
  11 C :   -0.145646
  12 C :   -0.228774
  13 C :   -0.024984
  14 C :   -0.130443
  15 C :   -0.125354
  16 C :   -0.129011
  17 C :   -0.123746
  18 C :   -0.024664
  19 C :   -0.040398
  20 C :   -0.003510
  21 C :   -0.134358
  22 C :   -0.105097
  23 C :   -0.067351
  24 C :    0.309969
  25 F :   -0.115145
  26 F :   -0.112105
  27 F :   -0.113406
  28 C :   -0.107559
  29 C :   -0.122251
  30 H :    0.253744
  31 H :    0.129635
  32 H :    0.142588
  33 H :    0.145008
  34 H :    0.147633
  35 H :    0.117396
  36 H :    0.152347
  37 H :    0.134051
  38 H :    0.135459
  39 H :    0.132296
  40 H :    0.133193
  41 H :    0.133979
  42 H :    0.132065
  43 H :    0.120615
  44 H :    0.128945
  45 H :    0.143564
  46 H :    0.143691
  47 H :    0.138640

-------------------------------
LOEWDIN REDUCED ORBITAL CHARGES
-------------------------------
  0 O s       :     3.591786  s :     3.591786
      pz      :     1.524762  p :     4.640703
      px      :     1.565911
      py      :     1.550030
      dz2     :     0.010060  d :     0.050075
      dxz     :     0.019281
      dyz     :     0.006185
      dx2y2   :     0.007532
      dxy     :     0.007017

  1 C s       :     2.842496  s :     2.842496
      pz      :     0.926417  p :     2.731763
      px      :     0.933406
      py      :     0.871940
      dz2     :     0.052413  d :     0.264639
      dxz     :     0.065248
      dyz     :     0.048799
      dx2y2   :     0.048308
      dxy     :     0.049870

  2 N s       :     3.140435  s :     3.140435
      pz      :     1.171796  p :     4.020892
      px      :     1.648848
      py      :     1.200249
      dz2     :     0.018893  d :     0.068318
      dxz     :     0.006023
      dyz     :     0.023289
      dx2y2   :     0.010863
      dxy     :     0.009251

  3 C s       :     2.856188  s :     2.856188
      pz      :     1.079255  p :     2.966772
      px      :     0.973722
      py      :     0.913795
      dz2     :     0.032151  d :     0.131753
      dxz     :     0.014699
      dyz     :     0.035755
      dx2y2   :     0.022814
      dxy     :     0.026334

  4 C s       :     2.911801  s :     2.911801
      pz      :     1.056671  p :     3.158541
      px      :     1.041811
      py      :     1.060059
      dz2     :     0.020907  d :     0.082629
      dxz     :     0.005502
      dyz     :     0.030389
      dx2y2   :     0.012823
      dxy     :     0.013008

  5 C s       :     2.919604  s :     2.919604
      pz      :     1.063022  p :     3.151232
      px      :     1.022454
      py      :     1.065756
      dz2     :     0.020003  d :     0.082727
      dxz     :     0.008569
      dyz     :     0.031166
      dx2y2   :     0.011178
      dxy     :     0.011811

  6 C s       :     2.862755  s :     2.862755
      pz      :     1.079653  p :     2.858299
      px      :     0.995731
      py      :     0.782916
      dz2     :     0.038710  d :     0.178948
      dxz     :     0.015704
      dyz     :     0.058867
      dx2y2   :     0.035245
      dxy     :     0.030422

  7 F s       :     3.734377  s :     3.734377
      pz      :     1.914813  p :     5.339830
      px      :     1.886703
      py      :     1.538315
      dz2     :     0.004198  d :     0.034484
      dxz     :     0.000470
      dyz     :     0.008261
      dx2y2   :     0.011736
      dxy     :     0.009817

  8 C s       :     2.920651  s :     2.920651
      pz      :     1.068299  p :     3.146236
      px      :     1.014420
      py      :     1.063517
      dz2     :     0.019601  d :     0.082828
      dxz     :     0.005953
      dyz     :     0.031317
      dx2y2   :     0.012739
      dxy     :     0.013219

  9 C s       :     2.914086  s :     2.914086
      pz      :     1.061781  p :     3.140915
      px      :     1.017156
      py      :     1.061978
      dz2     :     0.020563  d :     0.081512
      dxz     :     0.008170
      dyz     :     0.030695
      dx2y2   :     0.011165
      dxy     :     0.010919

 10 N s       :     3.124017  s :     3.124017
      pz      :     1.453610  p :     3.906585
      px      :     1.164677
      py      :     1.288297
      dz2     :     0.011065  d :     0.083136
      dxz     :     0.015370
      dyz     :     0.011433
      dx2y2   :     0.022757
      dxy     :     0.022512

 11 C s       :     2.926547  s :     2.926547
      pz      :     1.064715  p :     3.105805
      px      :     1.085892
      py      :     0.955198
      dz2     :     0.011066  d :     0.113294
      dxz     :     0.023410
      dyz     :     0.035908
      dx2y2   :     0.033903
      dxy     :     0.009007

 12 C s       :     2.930287  s :     2.930287
      pz      :     1.071257  p :     3.212592
      px      :     1.036575
      py      :     1.104761
      dz2     :     0.008685  d :     0.085894
      dxz     :     0.023726
      dyz     :     0.022541
      dx2y2   :     0.024260
      dxy     :     0.006682

 13 C s       :     2.872783  s :     2.872783
      pz      :     1.014790  p :     3.050537
      px      :     1.032176
      py      :     1.003571
      dz2     :     0.019754  d :     0.101665
      dxz     :     0.026734
      dyz     :     0.015977
      dx2y2   :     0.020529
      dxy     :     0.018671

 14 C s       :     2.917563  s :     2.917563
      pz      :     1.048413  p :     3.128440
      px      :     1.054056
      py      :     1.025971
      dz2     :     0.014301  d :     0.084440
      dxz     :     0.021600
      dyz     :     0.013335
      dx2y2   :     0.018380
      dxy     :     0.016825

 15 C s       :     2.917307  s :     2.917307
      pz      :     1.043742  p :     3.122527
      px      :     1.063919
      py      :     1.014866
      dz2     :     0.020891  d :     0.085520
      dxz     :     0.020699
      dyz     :     0.014466
      dx2y2   :     0.013150
      dxy     :     0.016314

 16 C s       :     2.915843  s :     2.915843
      pz      :     1.046988  p :     3.127771
      px      :     1.061759
      py      :     1.019025
      dz2     :     0.014843  d :     0.085397
      dxz     :     0.025193
      dyz     :     0.012771
      dx2y2   :     0.017259
      dxy     :     0.015333

 17 C s       :     2.915630  s :     2.915630
      pz      :     1.044968  p :     3.123969
      px      :     1.054990
      py      :     1.024011
      dz2     :     0.013779  d :     0.084147
      dxz     :     0.021343
      dyz     :     0.013643
      dx2y2   :     0.018494
      dxy     :     0.016887

 18 C s       :     2.875815  s :     2.875815
      pz      :     1.040684  p :     3.050563
      px      :     1.011967
      py      :     0.997912
      dz2     :     0.021539  d :     0.098285
      dxz     :     0.024507
      dyz     :     0.015028
      dx2y2   :     0.017619
      dxy     :     0.019593

 19 C s       :     2.879806  s :     2.879806
      pz      :     1.034335  p :     3.030799
      px      :     0.967546
      py      :     1.028918
      dz2     :     0.035930  d :     0.129792
      dxz     :     0.025527
      dyz     :     0.011567
      dx2y2   :     0.027975
      dxy     :     0.028793

 20 C s       :     2.884270  s :     2.884270
      pz      :     1.071154  p :     3.019539
      px      :     0.941915
      py      :     1.006471
      dz2     :     0.029105  d :     0.099701
      dxz     :     0.013889
      dyz     :     0.033185
      dx2y2   :     0.013209
      dxy     :     0.010313

 21 C s       :     2.916615  s :     2.916615
      pz      :     1.064650  p :     3.133488
      px      :     1.003637
      py      :     1.065201
      dz2     :     0.023830  d :     0.084255
      dxz     :     0.004638
      dyz     :     0.030249
      dx2y2   :     0.013793
      dxy     :     0.011745

 22 C s       :     2.916875  s :     2.916875
      pz      :     1.067255  p :     3.103738
      px      :     0.963953
      py      :     1.072531
      dz2     :     0.021130  d :     0.084484
      dxz     :     0.007700
      dyz     :     0.034072
      dx2y2   :     0.011592
      dxy     :     0.009990

 23 C s       :     2.887456  s :     2.887456
      pz      :     1.074295  p :     3.083535
      px      :     1.003203
      py      :     1.006037
      dz2     :     0.030686  d :     0.096360
      dxz     :     0.013041
      dyz     :     0.030549
      dx2y2   :     0.015462
      dxy     :     0.006622

 24 C s       :     2.850070  s :     2.850070
      pz      :     0.765003  p :     2.510633
      px      :     0.776212
      py      :     0.969417
      dz2     :     0.078210  d :     0.329328
      dxz     :     0.071800
      dyz     :     0.052891
      dx2y2   :     0.077067
      dxy     :     0.049361

 25 F s       :     3.761428  s :     3.761428
      pz      :     1.896964  p :     5.322481
      px      :     1.533036
      py      :     1.892481
      dz2     :     0.004772  d :     0.031236
      dxz     :     0.005340
      dyz     :     0.000464
      dx2y2   :     0.012193
      dxy     :     0.008467

 26 F s       :     3.759444  s :     3.759444
      pz      :     1.712528  p :     5.321641
      px      :     1.805358
      py      :     1.803756
      dz2     :     0.005436  d :     0.031020
      dxz     :     0.007751
      dyz     :     0.008941
      dx2y2   :     0.003796
      dxy     :     0.005097

 27 F s       :     3.759017  s :     3.759017
      pz      :     1.589494  p :     5.323453
      px      :     1.849391
      py      :     1.884567
      dz2     :     0.011522  d :     0.030936
      dxz     :     0.008425
      dyz     :     0.007699
      dx2y2   :     0.001731
      dxy     :     0.001559

 28 C s       :     2.917156  s :     2.917156
      pz      :     1.075302  p :     3.105792
      px      :     0.966651
      py      :     1.063839
      dz2     :     0.022922  d :     0.084611
      dxz     :     0.004929
      dyz     :     0.030273
      dx2y2   :     0.013450
      dxy     :     0.013037

 29 C s       :     2.915001  s :     2.915001
      pz      :     1.066855  p :     3.123567
      px      :     0.988817
      py      :     1.067895
      dz2     :     0.021190  d :     0.083683
      dxz     :     0.007207
      dyz     :     0.034420
      dx2y2   :     0.011787
      dxy     :     0.009079

 30 H s       :     0.746256  s :     0.746256

 31 H s       :     0.870365  s :     0.870365

 32 H s       :     0.857412  s :     0.857412

 33 H s       :     0.854992  s :     0.854992

 34 H s       :     0.852367  s :     0.852367

 35 H s       :     0.882604  s :     0.882604

 36 H s       :     0.847653  s :     0.847653

 37 H s       :     0.865949  s :     0.865949

 38 H s       :     0.864541  s :     0.864541

 39 H s       :     0.867704  s :     0.867704

 40 H s       :     0.866807  s :     0.866807

 41 H s       :     0.866021  s :     0.866021

 42 H s       :     0.867935  s :     0.867935

 43 H s       :     0.879385  s :     0.879385

 44 H s       :     0.871055  s :     0.871055

 45 H s       :     0.856436  s :     0.856436

 46 H s       :     0.856309  s :     0.856309

 47 H s       :     0.861360  s :     0.861360



                      *****************************
                      * MAYER POPULATION ANALYSIS *
                      *****************************

  NA   - Mulliken gross atomic population
  ZA   - Total nuclear charge
  QA   - Mulliken gross atomic charge
  VA   - Mayer's total valence
  BVA  - Mayer's bonded valence
  FA   - Mayer's free valence

  ATOM       NA         ZA         QA         VA         BVA        FA
  0 O      8.4676     8.0000    -0.4676     2.0488     2.0488     0.0000
  1 C      5.3460     6.0000     0.6540     3.9537     3.9537     0.0000
  2 N      7.7107     7.0000    -0.7107     2.8502     2.8502    -0.0000
  3 C      5.6435     6.0000     0.3565     3.8760     3.8760    -0.0000
  4 C      6.1812     6.0000    -0.1812     3.9047     3.9047    -0.0000
  5 C      6.2100     6.0000    -0.2100     3.9121     3.9121     0.0000
  6 C      5.5936     6.0000     0.4064     3.8276     3.8276    -0.0000
  7 F      9.3228     9.0000    -0.3228     1.0376     1.0376    -0.0000
  8 C      6.2184     6.0000    -0.2184     3.8971     3.8971    -0.0000
  9 C      6.1491     6.0000    -0.1491     3.9012     3.9012     0.0000
 10 N      7.4550     7.0000    -0.4550     2.9922     2.9922     0.0000
 11 C      6.1326     6.0000    -0.1326     3.8151     3.8151    -0.0000
 12 C      6.3553     6.0000    -0.3553     3.8412     3.8412     0.0000
 13 C      5.8873     6.0000     0.1127     3.9632     3.9632     0.0000
 14 C      6.1850     6.0000    -0.1850     3.9300     3.9300     0.0000
 15 C      6.1215     6.0000    -0.1215     3.9370     3.9370     0.0000
 16 C      6.1278     6.0000    -0.1278     3.9453     3.9453     0.0000
 17 C      6.1727     6.0000    -0.1727     3.9135     3.9135    -0.0000
 18 C      5.9015     6.0000     0.0985     3.9585     3.9585    -0.0000
 19 C      6.0968     6.0000    -0.0968     3.8400     3.8400     0.0000
 20 C      5.8101     6.0000     0.1899     3.9040     3.9040    -0.0000
 21 C      6.1862     6.0000    -0.1862     3.9300     3.9300     0.0000
 22 C      6.1501     6.0000    -0.1501     3.9337     3.9337    -0.0000
 23 C      6.0077     6.0000    -0.0077     3.9678     3.9678    -0.0000
 24 C      5.1045     6.0000     0.8955     3.9154     3.9154     0.0000
 25 F      9.2985     9.0000    -0.2985     1.0539     1.0539     0.0000
 26 F      9.3037     9.0000    -0.3037     1.0566     1.0566     0.0000
 27 F      9.3060     9.0000    -0.3060     1.0547     1.0547    -0.0000
 28 C      6.1572     6.0000    -0.1572     3.9310     3.9310     0.0000
 29 C      6.1672     6.0000    -0.1672     3.9117     3.9117     0.0000
 30 H      0.6750     1.0000     0.3250     0.8688     0.8688     0.0000
 31 H      0.8771     1.0000     0.1229     0.9394     0.9394    -0.0000
 32 H      0.8584     1.0000     0.1416     0.9376     0.9376    -0.0000
 33 H      0.8529     1.0000     0.1471     0.9373     0.9373     0.0000
 34 H      0.8433     1.0000     0.1567     0.9497     0.9497     0.0000
 35 H      0.8561     1.0000     0.1439     0.9271     0.9271    -0.0000
 36 H      0.8094     1.0000     0.1906     0.9392     0.9392     0.0000
 37 H      0.8497     1.0000     0.1503     0.9350     0.9350    -0.0000
 38 H      0.8340     1.0000     0.1660     0.9265     0.9265     0.0000
 39 H      0.8716     1.0000     0.1284     0.9391     0.9391    -0.0000
 40 H      0.8688     1.0000     0.1312     0.9367     0.9367    -0.0000
 41 H      0.8677     1.0000     0.1323     0.9369     0.9369     0.0000
 42 H      0.8726     1.0000     0.1274     0.9435     0.9435     0.0000
 43 H      0.8647     1.0000     0.1353     0.9307     0.9307    -0.0000
 44 H      0.8763     1.0000     0.1237     0.9425     0.9425    -0.0000
 45 H      0.8485     1.0000     0.1515     0.9411     0.9411     0.0000
 46 H      0.8476     1.0000     0.1524     0.9411     0.9411     0.0000
 47 H      0.8567     1.0000     0.1433     0.9424     0.9424     0.0000

  Mayer bond orders larger than 0.100000
B(  0-O ,  1-C ) :   1.8176 B(  1-C ,  2-N ) :   0.9812 B(  1-C , 10-N ) :   1.0619 
B(  2-N ,  3-C ) :   0.8976 B(  2-N , 30-H ) :   0.8258 B(  3-C ,  4-C ) :   1.3928 
B(  3-C ,  9-C ) :   1.4137 B(  4-C ,  5-C ) :   1.4322 B(  4-C , 31-H ) :   0.9251 
B(  5-C ,  6-C ) :   1.3970 B(  5-C , 32-H ) :   0.9210 B(  6-C ,  7-F ) :   0.9108 
B(  6-C ,  8-C ) :   1.3866 B(  8-C ,  9-C ) :   1.4241 B(  8-C , 33-H ) :   0.9206 
B(  9-C , 34-H ) :   0.9060 B( 10-N , 11-C ) :   0.9275 B( 10-N , 19-C ) :   0.8880 
B( 11-C , 12-C ) :   0.9918 B( 11-C , 35-H ) :   0.9290 B( 11-C , 36-H ) :   0.9133 
B( 12-C , 13-C ) :   0.9858 B( 12-C , 37-H ) :   0.9298 B( 12-C , 38-H ) :   0.9144 
B( 13-C , 14-C ) :   1.4096 B( 13-C , 18-C ) :   1.4420 B( 14-C , 15-C ) :   1.4480 
B( 14-C , 39-H ) :   0.9247 B( 15-C , 16-C ) :   1.4389 B( 15-C , 40-H ) :   0.9291 
B( 16-C , 17-C ) :   1.4505 B( 16-C , 41-H ) :   0.9293 B( 17-C , 18-C ) :   1.3965 
B( 17-C , 42-H ) :   0.9218 B( 18-C , 19-C ) :   0.9669 B( 19-C , 20-C ) :   0.9479 
B( 19-C , 43-H ) :   0.9123 B( 20-C , 21-C ) :   1.4115 B( 20-C , 29-C ) :   1.4164 
B( 21-C , 22-C ) :   1.4192 B( 21-C , 44-H ) :   0.9247 B( 22-C , 23-C ) :   1.4164 
B( 22-C , 45-H ) :   0.9192 B( 23-C , 24-C ) :   0.9803 B( 23-C , 28-C ) :   1.4025 
B( 24-C , 25-F ) :   0.9837 B( 24-C , 26-F ) :   0.9493 B( 24-C , 27-F ) :   0.9466 
B( 28-C , 29-C ) :   1.4298 B( 28-C , 46-H ) :   0.9200 B( 29-C , 47-H ) :   0.9157 


-------
TIMINGS
-------

Total SCF time: 0 days 0 hours 5 min 29 sec 

Total time                  ....     329.174 sec
Sum of individual times     ....     328.575 sec  ( 99.8%)

SCF preparation             ....       0.343 sec  (  0.1%)
Fock matrix formation       ....     326.240 sec  ( 99.1%)
  Startup                   ....       0.114 sec  (  0.0% of F)
  Split-RI-J                ....      42.228 sec  ( 12.9% of F)
  Chain of spheres X        ....     252.575 sec  ( 77.4% of F)
  XC integration            ....      30.291 sec  (  9.3% of F)
    XC Preparation          ....       0.000 sec  (  0.0% of XC)
    Basis function eval.    ....      11.741 sec  ( 38.8% of XC)
    Density eval.           ....       7.394 sec  ( 24.4% of XC)
    XC-Functional eval.     ....       1.194 sec  (  3.9% of XC)
    XC-Potential eval.      ....       8.397 sec  ( 27.7% of XC)
Diagonalization             ....       0.000 sec  (  0.0%)
Density matrix formation    ....       0.404 sec  (  0.1%)
Total Energy calculation    ....       0.136 sec  (  0.0%)
Population analysis         ....       0.065 sec  (  0.0%)
Orbital Transformation      ....       0.154 sec  (  0.0%)
Orbital Orthonormalization  ....       0.000 sec  (  0.0%)
DIIS solution               ....       0.718 sec  (  0.2%)
SOSCF solution              ....       0.515 sec  (  0.2%)
Finished LeanSCF after 329.3 sec

Maximum memory used throughout the entire LEANSCF-calculation: 81.2 MB

-------------------------   --------------------
FINAL SINGLE POINT ENERGY     -1470.555853487925
-------------------------   --------------------


------------------------------------------------------------------------------
                              ORCA PROPERTY CALCULATIONS
------------------------------------------------------------------------------

GBWName                                 ... /home/nmrbox/aojoawo/Documents/ERDOS/inputs/CHEMBL2032210.gbw
Number of atoms                         ...     48
Number of basis functions               ...    456
Max core memory                         ...   1024 MB

Electric properties:
Dipole moment                           ... YES
Quadrupole moment                       ...  NO
Static polarizability (Dipole/Dipole)   ...  NO
Static polarizability (Dipole/Quad.)    ...  NO
Static polarizability (Quad./Quad.)     ...  NO
Static polarizability (Velocity)        ...  NO

Atomic electric properties:
Dipole moment                           ...  NO
Quadrupole moment                       ...  NO
Static polarizability                   ...  NO

Choice of electric origin               ... Center of mass
Position of electric origin             ...     0.264415    -1.289157     0.040137

General magnetic properties:
Magnetizability                         ...  NO

EPR properties:
g-Tensor (aka g-matrix)                 ...  NO
Zero-Field splitting spin-orbit         ...  NO
Zero-field splitting spin-spin          ...  NO
Hyperfine couplings                     ...  NO (   0 nuclei)
Quadrupole couplings                    ...  NO (   0 nuclei)
Contact density                         ...  NO (   0 nuclei)

NMR properties:
Chemical shifts                         ...  NO (   0 nuclei)
Spin-rotation constants                 ...  NO (   0 nuclei)
Spin-spin couplings                     ...  NO (   0 nuclei,    0 pairs)

Choice of magnetic origin               ... GIAO
Position of magnetic origin             ...     0.000000     0.000000     0.000000

Properties with geometric perturbations:
SCF Hessian                             ...  NO
IR spectrum                             ...  NO
VCD spectrum                            ...  NO
X-ray spectroscopy properties:
SCF XES/XAS/RIXS spectra                ...  NO


-------------
DIPOLE MOMENT
-------------

Method             : SCF
Type of density    : Electron Density
Multiplicity       :   1
Irrep              :   0
Energy             : -1470.5558534879253330 Eh
Relativity type    : 
Basis              : AO
                                X                 Y                 Z
Electronic contribution:      3.881793488     -38.652477931      -1.217584918
Nuclear contribution   :     -5.238401842      40.379324564       2.158951357
                        -----------------------------------------
Total Dipole Moment    :     -1.356608354       1.726846633       0.941366440
                        -----------------------------------------
Magnitude (a.u.)       :      2.389258524
Magnitude (Debye)      :      6.073012538



--------------------
Rotational spectrum 
--------------------
 
Rotational constants in cm-1:             0.008396             0.003742             0.002956 
Rotational constants in MHz :           251.692034           112.179386            88.616390 

Dipole components along the rotational axes: 
x,y,z [a.u.] :     2.091175    -0.483583     1.049615 
x,y,z [Debye]:     5.315344    -1.229171     2.667908 

 

Dipole moment calculation done in   0.0 sec 

Maximum memory used throughout the entire PROP-calculation: 39.5 MB

--------------------------------
SUGGESTED CITATIONS FOR THIS RUN
--------------------------------

Below you find a list of papers that are relevant to this ORCA run
We neither can nor want to force you to cite these papers, but we appreciate if you do
You receive ORCA, which is the product of decades of hard work by many enthusiastic individuals, for free
The only thing we kindly ask in return is that you cite our papers,
We deeply appreciate it, if you show your appreciation for ORCA by not just citing the generic ORCA reference.

Please note that relegating all ORCA citations to the supporting information does *not* help us.
SI sections are not indexed - citations you put there will not count into any citation statistics
But we need these citations in order to attract the funding resources that allow us to do what we are doing

Therefore, if you are a happy ORCA user, please consider citing a few of the papers listed below in the main body of your paper

In addition to the list printed below, the program has created the file /home/nmrbox/aojoawo/Documents/ERDOS/inputs/CHEMBL2032210.bibtex that contains the list in bibtex format
You can import this file easily into all common literature databanks and citation aid programs


List of essential papers. We consider these as the minimum necessary citations

  1. Neese,F.
     Software update: the ORCA program system, version 5.0
     WIRES Comput. Molec. Sci., 2022 12(1)e1606
     doi.org/10.1002/wcms.1606

List of papers to cite with high priority. The work reported in these papers was absolutely
necessary for this run to complete.
Our perspective: the developers of density functionals and basis sets usually get cited in chemistry papers
Good! But without the algorithms to do something with them, the functionals or basis sets would not do anything.
Hence, in our opinion, the algorithm design and method developments papers are equally worthy of getting cited

  1. Neese,F.
     An improvement of the resolution of the identity approximation for the formation of the Coulomb matrix
     J. Comp. Chem., 2003 24(14)1740-1747
     doi.org/10.1002/jcc.10318
  2. Neese,F.; Wennmohs,F.; Hansen,A.; Becker,U.
     Efficient, approximate and parallel Hartree-Fock and hybrid DFT calculations. A 'chain-of-spheres' algorithm for the Hartree-Fock exchange
     Chem. Phys., 2009 356(1-3)98-109
     doi.org/10.1016/j.chemphys.2008.10.036
  3. Helmich-Paris,B.; de Souza,B.; Neese,F.; Izsák,R.
     An improved chain of spheres for exchange algorithm
     J. Chem. Phys., 2021 155 104109
     doi.org/doi: 10.1063/5.0058766.
  4. Neese,F.
     The SHARK Integral Generation and Digestion System
     J. Comp. Chem., 2022  1-16
     doi.org/10.1002/jcc.26942

List of suggested additional citations. These are papers that are important in the 'surrounding' of 
of this run, or papers that preceded the highly important papers. If you like your results we are grateful for a citation.

  1. Izsak,R.; Neese,F.
     An overlap fitted chain of spheres exchange method
     J. Chem. Phys., 2011 135 144105
     doi.org/10.1063/1.3646921
  2. Izsak,R.; Hansen,A.; Neese,F.
     The resolution of identity and chain of spheres approximations for the LPNO-CCSD singles Fock term
     Molec. Phys., 2012 110 2413-2417
     doi.org/10.1080/00268976.2012.687466
  3. Neese,F.
     The ORCA program system
     WIRES Comput. Molec. Sci., 2012 2(1)73-78
     doi.org/10.1002/wcms.81
  4. Izsak,R.; Neese,F.; Klopper,W.
     Robust fitting techniques in the chain of spheres approximation to the Fock exchange: The role of the complementary space
     J. Chem. Phys., 2013 139 
     doi.org/10.1063/1.4819264
  5. Neese,F.
     Software update: the ORCA program system, version 4.0
     WIRES Comput. Molec. Sci., 2018 8(1)1-6
     doi.org/10.1002/wcms.1327
  6. Neese,F.; Wennmohs,F.; Becker,U.; Riplinger,C.
     The ORCA quantum chemistry program package
     J. Chem. Phys., 2020 152 Art. No. L224108
     doi.org/10.1063/5.0004608

List of optional additional citations

  1. Neese,F.
     Approximate second-order SCF convergence for spin unrestricted wavefunctions
     Chem. Phys. Lett., 2000 325(1-3)93-98
     doi.org/10.1016/s0009-2614(00)00662-x

Timings for individual modules:

Sum of individual times          ...      342.990 sec (=   5.716 min)
Startup calculation              ...        8.911 sec (=   0.149 min)   2.6 %
SCF iterations                   ...      333.904 sec (=   5.565 min)  97.4 %
Property calculations            ...        0.175 sec (=   0.003 min)   0.1 %
                             ****ORCA TERMINATED NORMALLY****
TOTAL RUN TIME: 0 days 0 hours 5 minutes 44 seconds 51 msec
