
                                 *****************
                                 * O   R   C   A *
                                 *****************

                                            #,                                       
                                            ###                                      
                                            ####                                     
                                            #####                                    
                                            ######                                   
                                           ########,                                 
                                     ,,################,,,,,                         
                               ,,#################################,,                 
                          ,,##########################################,,             
                       ,#########################################, ''#####,          
                    ,#############################################,,   '####,        
                  ,##################################################,,,,####,       
                ,###########''''           ''''###############################       
              ,#####''   ,,,,##########,,,,          '''####'''          '####       
            ,##' ,,,,###########################,,,                        '##       
           ' ,,###''''                  '''############,,,                           
         ,,##''                                '''############,,,,        ,,,,,,###''
      ,#''                                            '''#######################'''  
     '                                                          ''''####''''         
             ,#######,   #######,   ,#######,      ##                                
            ,#'     '#,  ##    ##  ,#'     '#,    #''#        ,####,   ,####,        
            ##       ##  ##   ,#'  ##            #'  '#       #'       #'  '#        
            ##       ##  #######   ##           ,######,      #####,   #    #        
            '#,     ,#'  ##    ##  '#,     ,#' ,#      #,     #,   #   #,  ,#        
             '#######'   ##     ##  '#######'  #'      '#     '####' # '####'        



                #########################################################
                #                        -***-                          #
                #          Department of theory and spectroscopy        #
                #                                                       #
                #                      Frank Neese                      #
                #                                                       #
                #     Directorship, Architecture, Infrastructure        #
                #                    SHARK, DRIVERS                     #
                #        Core code/Algorithms in most modules           #
                #                                                       #
                #        Max Planck Institute fuer Kohlenforschung      #
                #                Kaiser Wilhelm Platz 1                 #
                #                 D-45470 Muelheim/Ruhr                 #
                #                      Germany                          #
                #                                                       #
                #                  All rights reserved                  #
                #                        -***-                          #
                #########################################################


                         Program Version 6.0.0  -   RELEASE  -


 With contributions from (in alphabetic order):
   Daniel Aravena         : Magnetic Suceptibility
   Michael Atanasov       : Ab Initio Ligand Field Theory (pilot matlab implementation)
   Alexander A. Auer      : GIAO ZORA, VPT2 properties, NMR spectrum
   Ute Becker             : All parallelization in ORCA, NUMFREQ, NUMCALC
   Giovanni Bistoni       : ED, misc. LED, open-shell LED, HFLD
   Martin Brehm           : Molecular dynamics
   Dmytro Bykov           : pre 5.0 version of the SCF Hessian
   Marcos Casanova-Páez   : Triplet and SCS-CIS(D). UHF-(DLPNO)-IP/EA/STEOM-CCSD. UHF-CVS-IP/STEOM-CCSD
   Vijay G. Chilkuri      : MRCI spin determinant printing, contributions to CSF-ICE
   Pauline Colinet        : FMM embedding
   Dipayan Datta          : RHF DLPNO-CCSD density
   Achintya Kumar Dutta   : EOM-CC, STEOM-CC
   Nicolas Foglia         : Exact transition moments, OPA infrastructure, MCD improvements
   Dmitry Ganyushin       : Spin-Orbit,Spin-Spin,Magnetic field MRCI
   Miquel Garcia          : C-PCM and meta-GGA Hessian, CCSD/C-PCM, Gaussian charge scheme
   Tiago L. C. Gouveia    : GS-ROHF, GS-ROCIS
   Yang Guo               : DLPNO-NEVPT2, F12-NEVPT2, CIM, IAO-localization
   Andreas Hansen         : Spin unrestricted coupled pair/coupled cluster methods
   Ingolf Harden          : AUTO-CI MPn and infrastructure 
   Benjamin Helmich-Paris : MC-RPA, TRAH-(SCF,CASSCF), AVAS, COSX integrals, SCF dyn. polar.
   Lee Huntington         : MR-EOM, pCC
   Robert Izsak           : Overlap fitted RIJCOSX, COSX-SCS-MP3, EOM
   Riya Kayal             : Wick's Theorem for AUTO-CI, AUTO-CI UHF-CCSDT
   Emily Kempfer          : AUTO-CI, RHF CISDT and CCSDT
   Christian Kollmar      : KDIIS, OOCD, Brueckner-CCSD(T), CCSD density, CASPT2, CASPT2-K, improved NEVPT2
   Axel Koslowski         : Symmetry handling
   Simone Kossmann        : Meta GGA functionals, TD-DFT gradient, OOMP2, (MP2 Hessian; deprecated post 5.0)
   Lucas Lang             : DCDCAS
   Marvin Lechner         : AUTO-CI (C++ implementation), FIC-MRCC
   Spencer Leger          : CASSCF response
   Dagmar Lenk            : GEPOL surface, SMD, ORCA-2-JSON
   Dimitrios Liakos       : Extrapolation schemes; Compound Job, initial MDCI parallelization
   Dimitrios Manganas     : Further ROCIS development; embedding schemes. LFT, Crystal Embedding
   Dimitrios Pantazis     : SARC Basis sets
   Anastasios Papadopoulos: AUTO-CI, single reference methods and gradients
   Taras Petrenko         : pre 6.0 DFT Hessian and TD-DFT gradient, (ASA, deprecated), ECA, 1-Electron XAS/XES, NRVS
   Peter Pinski           : DLPNO-MP2, DLPNO-MP2 Gradient
   Christoph Reimann      : Effective Core Potentials
   Marius Retegan         : Local ZFS, SOC
   Christoph Riplinger    : Optimizer, TS searches, QM/MM, DLPNO-CCSD(T), (RO)-DLPNO pert. Triples
   Michael Roemelt        : Original ROCIS implementation
   Masaaki Saitow         : Open-shell DLPNO-CCSD energy and density
   Barbara Sandhoefer     : DKH picture change effects
   Kantharuban Sivalingam : CASSCF convergence/infrastructure, NEVPT2 and variants, FIC-MRCI
   Bernardo de Souza      : ESD, SOC TD-DFT
   Georgi Stoychev        : AutoAux, RI-MP2 NMR, DLPNO-MP2 response, X2C
   Van Anh Tran           : RI-MP2 g-tensors
   Willem Van den Heuvel  : Paramagnetic NMR
   Zikuan Wang            : NOTCH, Electric field optimization 
   Frank Wennmohs         : Technical directorship and infrastructure
   Hang Xu                : AUTO-CI-Response properties 


 We gratefully acknowledge several colleagues who have allowed us to
 interface, adapt or use parts of their codes:
   Stefan Grimme, W. Hujo, H. Kruse, P. Pracht,  : VdW corrections, initial TS optimization,
                  C. Bannwarth, S. Ehlert,         DFT functionals, gCP, sTDA/sTD-DF
                  L. Wittmann, M. Mueller
   Ed Valeev, F. Pavosevic, A. Kumar             : LibInt (2-el integral package), F12 methods
   Garnet Chan, S. Sharma, J. Yang, R. Olivares  : DMRG
   Ulf Ekstrom                                   : XCFun DFT Library
   Mihaly Kallay                                 : mrcc  (arbitrary order and MRCC methods)
   Frank Weinhold                                : gennbo (NPA and NBO analysis)
   Simon Mueller                                 : openCOSMO-RS
   Christopher J. Cramer and Donald G. Truhlar   : smd solvation model
   Lars Goerigk                                  : TD-DFT with DH, B97 family of functionals
   V. Asgeirsson, H. Jonsson                     : NEB implementation
   FAccTs GmbH                                   : IRC, NEB, NEB-TS, DLPNO-Multilevel, CI-OPT
                                                   MM, QMMM, 2- and 3-layer-ONIOM, Crystal-QMMM,
                                                   LR-CPCM, SF, NACMEs, symmetry and pop. for TD-DFT,
                                                   nearIR, NL-DFT gradient (VV10), updates on ESD,
                                                   ML-optimized integration grids, MBIS, APM,
                                                   GOAT, DOCKER, SOLVATOR, interface openCOSMO-RS
   S Lehtola, MJT Oliveira, MAL Marques          : LibXC Library
   Liviu Ungur et al                             : ANISO software


 Your calculation uses the libint2 library for the computation of 2-el integrals
 For citations please refer to: http://libint.valeyev.net

 Your ORCA version has been built with support for libXC version: 6.2.2
 For citations please refer to: https://libxc.gitlab.io

 This ORCA versions uses:
   CBLAS   interface :  Fast vector & matrix operations
   LAPACKE interface :  Fast linear algebra routines
   SCALAPACK package :  Parallel linear algebra routines
   Shared memory     :  Shared parallel matrices
   BLAS/LAPACK       :  OpenBLAS 0.3.27  USE64BITINT DYNAMIC_ARCH NO_AFFINITY SkylakeX SINGLE_THREADED
        Core in use  :  SkylakeX
   Copyright (c) 2011-2014, The OpenBLAS Project


Warning: RI is on but no J-basis has been assigned. Assigning Def2/J (nothing to worry about!)
================================================================================

----- Orbital basis set information -----
Your calculation utilizes the basis: 6-31G*
   H-He, Li-Ne : W. J. Hehre, R. Ditchfield and J.A. Pople, J. Chem. Phys. 56, 2257 (1972).
                 Note: He and Ne are unpublished basis sets taken from the Gaussian program.
                 Note: Li and B from J. D. Dill and J. A. Pople, J. Chem. Phys. 62, 2921 (1975).
   Na - Ar     : M. M. Francl, W. J. Pietro, W. J. Hehre, J. S. Binkley, M. S. Gordon, 
                 D. J. DeFrees and J. A. Pople, J. Chem. Phys. 77, 3654 (1982).
   K - Zn      : V. A. Rassolov, J. A. Pople, M. A. Ratner, and T. L. Windus, J. Chem. Phys. 109, 1223 (1998).

----- AuxJ basis set information -----
Your calculation utilizes the auxiliary basis: def2/J
   F. Weigend, Phys. Chem. Chem. Phys. 8, 1057 (2006).

================================================================================
                                        WARNINGS
                       Please study these warnings very carefully!
================================================================================


================================================================================
                                       INPUT FILE
================================================================================
NAME = /home/nmrbox/aojoawo/Documents/ERDOS/inputs/CHEMBL3235963.inp
|  1> ! B3LYP 6-31G* SP
|  2> 
|  3> * xyz 0 1
|  4> N 6.1708 4.9956 -2.5690
|  5> C 5.3573 4.1865 -2.4153
|  6> C 4.3451 3.1804 -2.2240
|  7> C 3.0052 3.5542 -2.0639
|  8> C 2.0222 2.5768 -1.8792
|  9> C 2.3696 1.2180 -1.8379
| 10> N 1.3377 0.2347 -1.6590
| 11> C 1.4543 -0.8853 -0.7611
| 12> O 2.5688 -1.1482 -0.2313
| 13> N 0.3013 -1.6920 -0.4226
| 14> C 0.5305 -3.0291 0.1439
| 15> C -0.5525 -3.9936 -0.3167
| 16> C -1.9095 -3.4538 0.0224
| 17> C -2.9617 -4.3417 0.2999
| 18> C -4.2474 -3.8573 0.5461
| 19> C -4.4987 -2.4867 0.4929
| 20> C -3.4637 -1.5959 0.1995
| 21> C -2.1528 -2.0643 -0.0189
| 22> C -1.0464 -1.0760 -0.3700
| 23> C -1.0385 0.0884 0.6050
| 24> C -0.7637 -0.1214 1.9664
| 25> C -0.7368 0.9541 2.8581
| 26> C -1.0028 2.2591 2.4080
| 27> C -0.9310 3.4348 3.3492
| 28> F 0.3036 4.0433 3.2234
| 29> F -1.1033 3.0341 4.6629
| 30> F -1.9200 4.3535 3.0427
| 31> C -1.2580 2.4702 1.0433
| 32> C -1.2863 1.3946 0.1525
| 33> C 3.7129 0.8468 -2.0249
| 34> C 4.6959 1.8249 -2.2103
| 35> H 2.7205 4.5992 -2.0832
| 36> H 0.9892 2.8774 -1.7559
| 37> H 0.4179 0.4373 -2.1047
| 38> H 0.5387 -2.9684 1.2531
| 39> H 1.5116 -3.4355 -0.1867
| 40> H -0.3876 -4.9773 0.1752
| 41> H -0.4840 -4.1343 -1.4172
| 42> H -2.7872 -5.4106 0.3180
| 43> H -5.0528 -4.5466 0.7641
| 44> H -5.4992 -2.1137 0.6711
| 45> H -3.6864 -0.5375 0.1417
| 46> H -1.3040 -0.7200 -1.3895
| 47> H -0.5683 -1.1185 2.3382
| 48> H -0.5064 0.7629 3.8981
| 49> H -1.4355 3.4699 0.6656
| 50> H -1.4956 1.5841 -0.8923
| 51> H 3.9995 -0.1961 -2.0552
| 52> H 5.7273 1.5232 -2.3524
| 53> *
| 54> 
| 55>                          ****END OF INPUT****
================================================================================

                       ****************************
                       * Single Point Calculation *
                       ****************************

---------------------------------
CARTESIAN COORDINATES (ANGSTROEM)
---------------------------------
  N      6.170800    4.995600   -2.569000
  C      5.357300    4.186500   -2.415300
  C      4.345100    3.180400   -2.224000
  C      3.005200    3.554200   -2.063900
  C      2.022200    2.576800   -1.879200
  C      2.369600    1.218000   -1.837900
  N      1.337700    0.234700   -1.659000
  C      1.454300   -0.885300   -0.761100
  O      2.568800   -1.148200   -0.231300
  N      0.301300   -1.692000   -0.422600
  C      0.530500   -3.029100    0.143900
  C     -0.552500   -3.993600   -0.316700
  C     -1.909500   -3.453800    0.022400
  C     -2.961700   -4.341700    0.299900
  C     -4.247400   -3.857300    0.546100
  C     -4.498700   -2.486700    0.492900
  C     -3.463700   -1.595900    0.199500
  C     -2.152800   -2.064300   -0.018900
  C     -1.046400   -1.076000   -0.370000
  C     -1.038500    0.088400    0.605000
  C     -0.763700   -0.121400    1.966400
  C     -0.736800    0.954100    2.858100
  C     -1.002800    2.259100    2.408000
  C     -0.931000    3.434800    3.349200
  F      0.303600    4.043300    3.223400
  F     -1.103300    3.034100    4.662900
  F     -1.920000    4.353500    3.042700
  C     -1.258000    2.470200    1.043300
  C     -1.286300    1.394600    0.152500
  C      3.712900    0.846800   -2.024900
  C      4.695900    1.824900   -2.210300
  H      2.720500    4.599200   -2.083200
  H      0.989200    2.877400   -1.755900
  H      0.417900    0.437300   -2.104700
  H      0.538700   -2.968400    1.253100
  H      1.511600   -3.435500   -0.186700
  H     -0.387600   -4.977300    0.175200
  H     -0.484000   -4.134300   -1.417200
  H     -2.787200   -5.410600    0.318000
  H     -5.052800   -4.546600    0.764100
  H     -5.499200   -2.113700    0.671100
  H     -3.686400   -0.537500    0.141700
  H     -1.304000   -0.720000   -1.389500
  H     -0.568300   -1.118500    2.338200
  H     -0.506400    0.762900    3.898100
  H     -1.435500    3.469900    0.665600
  H     -1.495600    1.584100   -0.892300
  H      3.999500   -0.196100   -2.055200
  H      5.727300    1.523200   -2.352400

----------------------------
CARTESIAN COORDINATES (A.U.)
----------------------------
  NO LB      ZA    FRAG     MASS         X           Y           Z
   0 N     7.0000    0    14.007   11.661122    9.440316   -4.854706
   1 C     6.0000    0    12.011   10.123830    7.911338   -4.564256
   2 C     6.0000    0    12.011    8.211049    6.010085   -4.202751
   3 C     6.0000    0    12.011    5.679005    6.716465   -3.900206
   4 C     6.0000    0    12.011    3.821404    4.869446   -3.551173
   5 C     6.0000    0    12.011    4.477895    2.301686   -3.473128
   6 N     7.0000    0    14.007    2.527887    0.443519   -3.135056
   7 C     6.0000    0    12.011    2.748229   -1.672975   -1.438271
   8 O     8.0000    0    15.999    4.854328   -2.169784   -0.437094
   9 N     7.0000    0    14.007    0.569374   -3.197417   -0.798598
  10 C     6.0000    0    12.011    1.002500   -5.724169    0.271932
  11 C     6.0000    0    12.011   -1.044074   -7.546810   -0.598476
  12 C     6.0000    0    12.011   -3.608432   -6.526736    0.042330
  13 C     6.0000    0    12.011   -5.596802   -8.204624    0.566729
  14 C     6.0000    0    12.011   -8.026423   -7.289241    1.031979
  15 C     6.0000    0    12.011   -8.501311   -4.699182    0.931446
  16 C     6.0000    0    12.011   -6.545444   -3.015814    0.377000
  17 C     6.0000    0    12.011   -4.068202   -3.900962   -0.035716
  18 C     6.0000    0    12.011   -1.977409   -2.033345   -0.699199
  19 C     6.0000    0    12.011   -1.962481    0.167052    1.143284
  20 C     6.0000    0    12.011   -1.443184   -0.229413    3.715957
  21 C     6.0000    0    12.011   -1.392350    1.802988    5.401026
  22 C     6.0000    0    12.011   -1.895017    4.269080    4.550461
  23 C     6.0000    0    12.011   -1.759335    6.490831    6.329071
  24 F     9.0000    0    18.998    0.573721    7.640730    6.091343
  25 F     9.0000    0    18.998   -2.084935    5.733618    8.811604
  26 F     9.0000    0    18.998   -3.628274    8.226923    5.749870
  27 C     6.0000    0    12.011   -2.377275    4.668001    1.971551
  28 C     6.0000    0    12.011   -2.430755    2.635412    0.288183
  29 C     6.0000    0    12.011    7.016364    1.600220   -3.826506
  30 C     6.0000    0    12.011    8.873965    3.448561   -4.176862
  31 H     1.0000    0     1.008    5.141000    8.691228   -3.936677
  32 H     1.0000    0     1.008    1.869317    5.437498   -3.318170
  33 H     1.0000    0     1.008    0.789717    0.826377   -3.977307
  34 H     1.0000    0     1.008    1.017995   -5.609463    2.368016
  35 H     1.0000    0     1.008    2.856510   -6.492154   -0.352812
  36 H     1.0000    0     1.008   -0.732458   -9.405734    0.331080
  37 H     1.0000    0     1.008   -0.914627   -7.812695   -2.678120
  38 H     1.0000    0     1.008   -5.267045  -10.224552    0.600933
  39 H     1.0000    0     1.008   -9.548408   -8.591829    1.443940
  40 H     1.0000    0     1.008  -10.391982   -3.994314    1.268195
  41 H     1.0000    0     1.008   -6.966286   -1.015728    0.267774
  42 H     1.0000    0     1.008   -2.464203   -1.360603   -2.625774
  43 H     1.0000    0     1.008   -1.073931   -2.113659    4.418558
  44 H     1.0000    0     1.008   -0.956957    1.441672    7.366341
  45 H     1.0000    0     1.008   -2.712702    6.557161    1.257802
  46 H     1.0000    0     1.008   -2.826274    2.993515   -1.686203
  47 H     1.0000    0     1.008    7.557960   -0.370575   -3.883765
  48 H     1.0000    0     1.008   10.823028    2.878431   -4.445392

--------------------------------
INTERNAL COORDINATES (ANGSTROEM)
--------------------------------
 N      0   0   0     0.000000000000     0.00000000     0.00000000
 C      1   0   0     1.157604746880     0.00000000     0.00000000
 C      2   1   0     1.439924213283   179.98176211     0.00000000
 C      3   2   1     1.400246571144   120.08762549    11.50693229
 C      4   3   2     1.398468394351   120.07570119   179.94850655
 C      5   4   3     1.403114353857   120.44334190     0.70382138
 N      6   5   4     1.436558982430   119.25397328   180.55757649
 C      7   6   5     1.440215251273   123.48932209   224.17625843
 O      8   7   6     1.261711020797   119.69239945   349.74434402
 N      8   7   6     1.447327240122   120.98158424   167.79282709
 C     10   8   7     1.470133089213   118.22001109   161.58405345
 C     11  10   8     1.521611517438   110.42005208   214.00790225
 C     12  11  10     1.499273774199   110.33577730   304.89153679
 C     13  12  11     1.404456300495   119.68050182   210.47965759
 C     14  13  12     1.395808830034   120.36716042   183.47774299
 C     15  14  13     1.394462724493   120.02432389     1.19567736
 C     16  15  14     1.396722305972   120.08853616   359.70010654
 C     17  16  15     1.409097558723   120.65940181   358.70964509
 C     10   8   7     1.482740048019   120.05461235   328.44691012
 C     19  10   8     1.518721426069   109.66795591   303.50314400
 C     20  19  10     1.404614196141   120.57967735   297.68978694
 C     21  20  19     1.397337736555   120.48498181   179.01713236
 C     22  21  20     1.405834631100   120.43220338     0.88551595
 C     23  22  21     1.507741081884   120.99568109   182.11102862
 F     24  23  22     1.382148707629   109.20938074    97.05128347
 F     24  23  22     1.384216554590   111.14863485   336.79861964
 F     24  23  22     1.384222865004   110.19921295   216.77860047
 C     23  22  21     1.404313476400   119.01636850   358.20005387
 C     28  23  22     1.396868243608   120.50778851     1.87463075
 C      6   5   4     1.406134179230   119.22644643   358.08817330
 C     30   6   5     1.399050310032   120.28413914     1.87752101
 H      4   3   2     1.083259701087   120.46278035     0.03605996
 H      5   4   3     1.082890691621   119.44287664   179.96767621
 H      7   6   5     1.041982384688   116.59796847    35.10261164
 H     11  10   8     1.110889900035   109.64598116    92.63905496
 H     11  10   8     1.112211549122   110.81295586   333.42190071
 H     12  11  10     1.112125581938   108.73839846   183.36836792
 H     12  11  10     1.111570506086   109.63719939    64.92856480
 H     14  13  12     1.083201306314   120.42867028     3.00720553
 H     15  14  13     1.082278915068   119.99782020   180.29943222
 H     16  15  14     1.082536137965   119.92994798   179.18549473
 H     17  16  15     1.083118963919   118.82082841   178.65208378
 H     19  10   8     1.110168460190   108.15259577    63.67819583
 H     21  20  19     1.081954162615   120.40097259   359.12099190
 H     22  21  20     1.082239160260   118.77390723   180.97718550
 H     28  23  22     1.083311418753   120.48510768   181.89864752
 H     29  28  23     1.082277127172   118.99438212   179.36284647
 H     30   6   5     1.081988012873   120.74512144   183.57326463
 H     31  30   6     1.083974750628   119.42801554   179.95009330

---------------------------
INTERNAL COORDINATES (A.U.)
---------------------------
 N      0   0   0     0.000000000000     0.00000000     0.00000000
 C      1   0   0     2.187555942931     0.00000000     0.00000000
 C      2   1   0     2.721062416708   179.98176211     0.00000000
 C      3   2   1     2.646082539424   120.08762549    11.50693229
 C      4   3   2     2.642722272269   120.07570119   179.94850655
 C      5   4   3     2.651501863364   120.44334190     0.70382138
 N      6   5   4     2.714703052017   119.25397328   180.55757649
 C      7   6   5     2.721612398803   123.48932209   224.17625843
 O      8   7   6     2.384288289456   119.69239945   349.74434402
 N      8   7   6     2.735052109995   120.98158424   167.79282709
 C     10   8   7     2.778148919029   118.22001109   161.58405345
 C     11  10   8     2.875429050178   110.42005208   214.00790225
 C     12  11  10     2.833216833006   110.33577730   304.89153679
 C     13  12  11     2.654037774996   119.68050182   210.47965759
 C     14  13  12     2.637696424073   120.36716042   183.47774299
 C     15  14  13     2.635152653253   120.02432389     1.19567736
 C     16  15  14     2.639422643426   120.08853616   359.70010654
 C     17  16  15     2.662808481964   120.65940181   358.70964509
 C     10   8   7     2.801972618554   120.05461235   328.44691012
 C     19  10   8     2.869967568988   109.66795591   303.50314400
 C     20  19  10     2.654336154524   120.57967735   297.68978694
 C     21  20  19     2.640585638682   120.48498181   179.01713236
 C     22  21  20     2.656642442361   120.43220338     0.88551595
 C     23  22  21     2.849217725622   120.99568109   182.11102862
 F     24  23  22     2.611882533772   109.20938074    97.05128347
 F     24  23  22     2.615790198214   111.14863485   336.79861964
 F     24  23  22     2.615802123169   110.19921295   216.77860047
 C     23  22  21     2.653767876572   119.01636850   358.20005387
 C     28  23  22     2.639698425590   120.50778851     1.87463075
 C      6   5   4     2.657208506292   119.22644643   358.08817330
 C     30   6   5     2.643821933538   120.28413914     1.87752101
 H      4   3   2     2.047064166969   120.46278035     0.03605996
 H      5   4   3     2.046366840137   119.44287664   179.96767621
 H      7   6   5     1.969061343430   116.59796847    35.10261164
 H     11  10   8     2.099277676006   109.64598116    92.63905496
 H     11  10   8     2.101775230825   110.81295586   333.42190071
 H     12  11  10     2.101612776390   108.73839846   183.36836792
 H     12  11  10     2.100563835047   109.63719939    64.92856480
 H     14  13  12     2.046953816839   120.42867028     3.00720553
 H     15  14  13     2.045210749995   119.99782020   180.29943222
 H     16  15  14     2.045696830826   119.92994798   179.18549473
 H     17  16  15     2.046798212263   118.82082841   178.65208378
 H     19  10   8     2.097914352276   108.15259577    63.67819583
 H     21  20  19     2.044597056799   120.40097259   359.12099190
 H     22  21  20     2.045135624296   118.77390723   180.97718550
 H     28  23  22     2.047161899192   120.48510768   181.89864752
 H     29  28  23     2.045207371362   118.99438212   179.36284647
 H     30   6   5     2.044661024515   120.74512144   183.57326463
 H     31  30   6     2.048415414773   119.42801554   179.95009330

---------------------
BASIS SET INFORMATION
---------------------
There are 5 groups of distinct atoms

 Group   1 Type N   : 10s4p1d contracted to 3s2p1d pattern {631/31/1}
 Group   2 Type C   : 10s4p1d contracted to 3s2p1d pattern {631/31/1}
 Group   3 Type O   : 10s4p1d contracted to 3s2p1d pattern {631/31/1}
 Group   4 Type F   : 10s4p1d contracted to 3s2p1d pattern {631/31/1}
 Group   5 Type H   : 4s contracted to 2s pattern {31}

Atom   0N    basis set group =>   1
Atom   1C    basis set group =>   2
Atom   2C    basis set group =>   2
Atom   3C    basis set group =>   2
Atom   4C    basis set group =>   2
Atom   5C    basis set group =>   2
Atom   6N    basis set group =>   1
Atom   7C    basis set group =>   2
Atom   8O    basis set group =>   3
Atom   9N    basis set group =>   1
Atom  10C    basis set group =>   2
Atom  11C    basis set group =>   2
Atom  12C    basis set group =>   2
Atom  13C    basis set group =>   2
Atom  14C    basis set group =>   2
Atom  15C    basis set group =>   2
Atom  16C    basis set group =>   2
Atom  17C    basis set group =>   2
Atom  18C    basis set group =>   2
Atom  19C    basis set group =>   2
Atom  20C    basis set group =>   2
Atom  21C    basis set group =>   2
Atom  22C    basis set group =>   2
Atom  23C    basis set group =>   2
Atom  24F    basis set group =>   4
Atom  25F    basis set group =>   4
Atom  26F    basis set group =>   4
Atom  27C    basis set group =>   2
Atom  28C    basis set group =>   2
Atom  29C    basis set group =>   2
Atom  30C    basis set group =>   2
Atom  31H    basis set group =>   5
Atom  32H    basis set group =>   5
Atom  33H    basis set group =>   5
Atom  34H    basis set group =>   5
Atom  35H    basis set group =>   5
Atom  36H    basis set group =>   5
Atom  37H    basis set group =>   5
Atom  38H    basis set group =>   5
Atom  39H    basis set group =>   5
Atom  40H    basis set group =>   5
Atom  41H    basis set group =>   5
Atom  42H    basis set group =>   5
Atom  43H    basis set group =>   5
Atom  44H    basis set group =>   5
Atom  45H    basis set group =>   5
Atom  46H    basis set group =>   5
Atom  47H    basis set group =>   5
Atom  48H    basis set group =>   5
---------------------------------
AUXILIARY/J BASIS SET INFORMATION
---------------------------------
There are 5 groups of distinct atoms

 Group   1 Type N   : 12s5p4d2f1g contracted to 6s4p3d1f1g pattern {711111/2111/211/2/1}
 Group   2 Type C   : 12s5p4d2f1g contracted to 6s4p3d1f1g pattern {711111/2111/211/2/1}
 Group   3 Type O   : 12s5p4d2f1g contracted to 6s4p3d1f1g pattern {711111/2111/211/2/1}
 Group   4 Type F   : 12s5p4d2f1g contracted to 6s4p3d1f1g pattern {711111/2111/211/2/1}
 Group   5 Type H   : 5s2p1d contracted to 3s1p1d pattern {311/2/1}

Atom   0N    basis set group =>   1
Atom   1C    basis set group =>   2
Atom   2C    basis set group =>   2
Atom   3C    basis set group =>   2
Atom   4C    basis set group =>   2
Atom   5C    basis set group =>   2
Atom   6N    basis set group =>   1
Atom   7C    basis set group =>   2
Atom   8O    basis set group =>   3
Atom   9N    basis set group =>   1
Atom  10C    basis set group =>   2
Atom  11C    basis set group =>   2
Atom  12C    basis set group =>   2
Atom  13C    basis set group =>   2
Atom  14C    basis set group =>   2
Atom  15C    basis set group =>   2
Atom  16C    basis set group =>   2
Atom  17C    basis set group =>   2
Atom  18C    basis set group =>   2
Atom  19C    basis set group =>   2
Atom  20C    basis set group =>   2
Atom  21C    basis set group =>   2
Atom  22C    basis set group =>   2
Atom  23C    basis set group =>   2
Atom  24F    basis set group =>   4
Atom  25F    basis set group =>   4
Atom  26F    basis set group =>   4
Atom  27C    basis set group =>   2
Atom  28C    basis set group =>   2
Atom  29C    basis set group =>   2
Atom  30C    basis set group =>   2
Atom  31H    basis set group =>   5
Atom  32H    basis set group =>   5
Atom  33H    basis set group =>   5
Atom  34H    basis set group =>   5
Atom  35H    basis set group =>   5
Atom  36H    basis set group =>   5
Atom  37H    basis set group =>   5
Atom  38H    basis set group =>   5
Atom  39H    basis set group =>   5
Atom  40H    basis set group =>   5
Atom  41H    basis set group =>   5
Atom  42H    basis set group =>   5
Atom  43H    basis set group =>   5
Atom  44H    basis set group =>   5
Atom  45H    basis set group =>   5
Atom  46H    basis set group =>   5
Atom  47H    basis set group =>   5
Atom  48H    basis set group =>   5
------------------------------------------------------------------------------
                             ORCA STARTUP CALCULATIONS
                           -- RI-GTO INTEGRALS CHOSEN --
------------------------------------------------------------------------------
------------------------------------------------------------------------------
                   ___                                                        
                  /   \      - P O W E R E D   B Y -                         
                 /     \                                                     
                 |  |  |   _    _      __       _____    __    __             
                 |  |  |  | |  | |    /  \     |  _  \  |  |  /  |          
                  \  \/   | |  | |   /    \    | | | |  |  | /  /          
                 / \  \   | |__| |  /  /\  \   | |_| |  |  |/  /          
                |  |  |   |  __  | /  /__\  \  |    /   |      \           
                |  |  |   | |  | | |   __   |  |    \   |  |\   \          
                \     /   | |  | | |  |  |  |  | |\  \  |  | \   \       
                 \___/    |_|  |_| |__|  |__|  |_| \__\ |__|  \__/        
                                                                              
                      - O R C A' S   B I G   F R I E N D -                    
                                      &                                       
                       - I N T E G R A L  F E E D E R -                       
                                                                              
 v1 FN, 2020, v2 2021, v3 2022-2024                                           
------------------------------------------------------------------------------


----------------------
SHARK INTEGRAL PACKAGE
----------------------

Number of atoms                             ...     49
Number of basis functions                   ...    470
Number of shells                            ...    222
Maximum angular momentum                    ...      2
Integral batch strategy                     ... SHARK/LIBINT Hybrid
RI-J (if used) integral strategy            ... SPLIT-RIJ (Revised 2003 algorithm where possible)
Printlevel                                  ...      1
Contraction scheme used                     ... SEGMENTED contraction
Prescreening option                         ... SCHWARTZ
   Thresh                                   ... 1.000e-10
   Tcut                                     ... 1.000e-11
   Tpresel                                  ... 1.000e-11 
Coulomb Range Separation                    ... NOT USED
Exchange Range Separation                   ... NOT USED
Multipole approximations                    ... NOT USED
Finite Nucleus Model                        ... NOT USED
CABS basis                                  ... NOT available
Auxiliary Coulomb fitting basis             ... AVAILABLE
   # of basis functions in Aux-J            ...   1717
   # of shells in Aux-J                     ...    555
   Maximum angular momentum in Aux-J        ...      4
Auxiliary J/K fitting basis                 ... NOT available
Auxiliary Correlation fitting basis         ... NOT available
Auxiliary 'external' fitting basis          ... NOT available

Checking pre-screening integrals            ... done (  0.0 sec) Dimension = 222
Check shell pair data                       ... done (  0.0 sec)
Shell pair information
Shell pair cut-off parameter TPreSel        ...   1.0e-11
Total number of shell pairs                 ...     24753
Shell pairs after pre-screening             ...     14624
Total number of primitive shell pairs       ...    145158
Primitive shell pairs kept                  ...     44627
          la=0 lb=0:   4722 shell pairs
          la=1 lb=0:   5151 shell pairs
          la=1 lb=1:   1397 shell pairs
          la=2 lb=0:   1988 shell pairs
          la=2 lb=1:   1150 shell pairs
          la=2 lb=2:    216 shell pairs

Calculating one electron integrals          ... done (  0.1 sec)
Calculating RI/J V-Matrix + Cholesky decomp.... done (  0.3 sec)
Calculating Nuclear repulsion               ... done (  0.0 sec) ENN=   2890.875274316710 Eh

Diagonalization of the overlap matrix:
Smallest eigenvalue                        ... 4.066e-04
Time for diagonalization                   ...    0.026 sec
Threshold for overlap eigenvalues          ... 1.000e-07
Number of eigenvalues below threshold      ... 0
Time for construction of square roots      ...    0.028 sec
Total time needed                          ...    0.063 sec

-------------------
DFT GRID GENERATION
-------------------

General Integration Accuracy     IntAcc      ... 4.388
Radial Grid Type                 RadialGrid  ... OptM3 with GC (2021)
Angular Grid (max. ang.)         AngularGrid ... 4 (Lebedev-302)
Angular grid pruning method      GridPruning ... 4 (adaptive)
Weight generation scheme         WeightScheme... mBecke (2022)
Basis function cutoff            BFCut       ... 1.0000e-10
Integration weight cutoff        WCut        ... 1.0000e-14
Partially contracted basis set               ... off
Rotationally invariant grid construction     ... off
Angular grids for H and He will be reduced by one unit

Total number of grid points                  ...   242098
Total number of batches                      ...     3805
Average number of points per batch           ...       63
Average number of grid points per atom       ...     4941

--------------------
COSX GRID GENERATION
--------------------

GRIDX 1
-------
General Integration Accuracy     IntAcc      ... 3.816
Radial Grid Type                 RadialGrid  ... OptM3 with GC (2021)
Angular Grid (max. ang.)         AngularGrid ... 1 (Lebedev-50)
Angular grid pruning method      GridPruning ... 4 (adaptive)
Weight generation scheme         WeightScheme... mBecke (2022)
Basis function cutoff            BFCut       ... 1.0000e-10
Integration weight cutoff        WCut        ... 1.0000e-14
Partially contracted basis set               ... on
Rotationally invariant grid construction     ... off
Angular grids for H and He will be reduced by one unit

Total number of grid points                  ...    30663
Total number of batches                      ...      264
Average number of points per batch           ...      116
Average number of grid points per atom       ...      626
UseSFitting                                  ... on

GRIDX 2
-------
General Integration Accuracy     IntAcc      ... 4.020
Radial Grid Type                 RadialGrid  ... OptM3 with GC (2021)
Angular Grid (max. ang.)         AngularGrid ... 2 (Lebedev-110)
Angular grid pruning method      GridPruning ... 4 (adaptive)
Weight generation scheme         WeightScheme... mBecke (2022)
Basis function cutoff            BFCut       ... 1.0000e-10
Integration weight cutoff        WCut        ... 1.0000e-14
Partially contracted basis set               ... on
Rotationally invariant grid construction     ... off
Angular grids for H and He will be reduced by one unit

Total number of grid points                  ...    67357
Total number of batches                      ...      552
Average number of points per batch           ...      122
Average number of grid points per atom       ...     1375
UseSFitting                                  ... on

GRIDX 3
-------
General Integration Accuracy     IntAcc      ... 4.338
Radial Grid Type                 RadialGrid  ... OptM3 with GC (2021)
Angular Grid (max. ang.)         AngularGrid ... 3 (Lebedev-194)
Angular grid pruning method      GridPruning ... 4 (adaptive)
Weight generation scheme         WeightScheme... mBecke (2022)
Basis function cutoff            BFCut       ... 1.0000e-10
Integration weight cutoff        WCut        ... 1.0000e-14
Partially contracted basis set               ... on
Rotationally invariant grid construction     ... off
Angular grids for H and He will be reduced by one unit

Total number of grid points                  ...   147438
Total number of batches                      ...     1176
Average number of points per batch           ...      125
Average number of grid points per atom       ...     3009
UseSFitting                                  ... on
Initializing property integral containers    ... done (  0.0 sec)

SHARK setup successfully completed in   8.6 seconds

Maximum memory used throughout the entire STARTUP-calculation: 104.1 MB
-------------------------------------------------------------------------------
                                 ORCA GUESS
                   Start orbitals & Density for SCF / CASSCF
-------------------------------------------------------------------------------

------------
SCF SETTINGS
------------
Hamiltonian:
 Density Functional     Method          .... DFT(GTOs)
 Exchange Functional    Exchange        .... B88
   X-Alpha parameter    XAlpha          ....  0.666667
   Becke's b parameter  XBeta           ....  0.004200
 Correlation Functional Correlation     .... LYP
 LDA part of GGA corr.  LDAOpt          .... VWN-5
 Gradients option       PostSCFGGA      .... off
 Hybrid DFT is turned on
   Fraction HF Exchange ScalHFX         ....  0.200000
   Scaling of DF-GGA-X  ScalDFX         ....  0.720000
   Scaling of DF-GGA-C  ScalDFC         ....  0.810000
   Scaling of DF-LDA-C  ScalLDAC        ....  1.000000
   Perturbative correction              ....  0.000000
   NL short-range parameter             ....  4.800000
 RI-approximation to the Coulomb term is turned on
   Number of AuxJ basis functions       .... 1717
   RIJ-COSX (HFX calculated with COS-X)).... on


General Settings:
 Integral files         IntName         .... /home/nmrbox/aojoawo/Documents/ERDOS/inputs/CHEMBL3235963
 Hartree-Fock type      HFTyp           .... RHF
 Total Charge           Charge          ....    0
 Multiplicity           Mult            ....    1
 Number of Electrons    NEL             ....  218
 Basis Dimension        Dim             ....  470
 Nuclear Repulsion      ENuc            ....   2890.8752743167 Eh

Convergence Acceleration:
 AO-DIIS                CNVDIIS         .... on
   Start iteration      DIISMaxIt       ....    12
   Startup error        DIISStart       ....  0.200000
   # of expansion vecs  DIISMaxEq       ....     5
   Bias factor          DIISBfac        ....   1.050
   Max. coefficient     DIISMaxC        ....  10.000
 MO-DIIS                CNVKDIIS        .... off
 Trust-Rad. Augm. Hess. CNVTRAH         .... auto
   Auto Start mean grad. ratio tolernc. ....  1.125000
   Auto Start start iteration           ....    50
   Auto Start num. interpolation iter.  ....    10
   Max. Number of Micro iterations      ....    24
   Max. Number of Macro iterations      .... Maxiter - #DIIS iter
   Number of Davidson start vectors     ....     2
   Converg. threshold    (grad. norm)   ....   5.000e-05
   Grad. Scal. Fac. for Micro threshold ....   0.100
   Minimum threshold for Micro iter.    ....   1.000e-02
   NR start threshold (gradient norm)   ....   1.000e-04
   Initial trust radius                 ....   0.400
   Minimum AH scaling param. (alpha)    ....   1.000
   Maximum AH scaling param. (alpha)    .... 1000.000
   Quad. conv. algorithm                .... NR
   White noise on init. David. guess    .... on
   Maximum white noise                  ....   0.010
   Pseudo random numbers                .... off
   Inactive MOs                         .... canonical
   Orbital update algorithm             .... Taylor
   Preconditioner                       .... Diag
   Full preconditioner red. dimension   ....   250
 SOSCF                  CNVSOSCF        .... on
   Start iteration      SOSCFMaxIt      ....   150
   Startup grad/error   SOSCFStart      ....  0.003300
   Hessian update       SOSCFHessUp     .... L-BFGS
 Level Shifting         CNVShift        .... on
   Level shift para.    LevelShift      ....    0.2500
   Turn off err/grad.   ShiftErr        ....    0.0010
 Zerner damping         CNVZerner       .... off
 Static damping         CNVDamp         .... on
   Fraction old density DampFac         ....    0.7000
   Max. Damping (<1)    DampMax         ....    0.9800
   Min. Damping (>=0)   DampMin         ....    0.0000
   Turn off err/grad.   DampErr         ....    0.1000

SCF Procedure:
 Maximum # iterations   MaxIter         ....   125
 SCF integral mode      SCFMode         .... Direct
   Integral package                     .... SHARK and LIBINT hybrid scheme
 Reset frequency        DirectResetFreq ....    20
 Integral Threshold     Thresh          ....  1.000e-10 Eh
 Primitive CutOff       TCut            ....  1.000e-11 Eh

Convergence Tolerance:
 Convergence Check Mode ConvCheckMode   .... Total+1el-Energy
 Convergence forced     ConvForced      .... 0
 Energy Change          TolE            ....  1.000e-06 Eh
 1-El. energy change                    ....  1.000e-03 Eh
 Orbital Gradient       TolG            ....  5.000e-05
 Orbital Rotation angle TolX            ....  5.000e-05
 DIIS Error             TolErr          ....  1.000e-06

------------------------------
INITIAL GUESS: MODEL POTENTIAL
------------------------------
Loading Hartree-Fock densities                     ... done
Calculating cut-offs                               ... done
Initializing the effective Hamiltonian             ... done
Setting up the integral package (SHARK)            ... done
Starting the Coulomb interaction                   ... done (   1.8 sec)
Making the grid                                    ... done (   1.1 sec)
Mapping shells                                     ... done
Starting the XC term evaluation                    ... done (   0.8 sec)
  promolecular density results
     # of electrons  =    217.986095678
     EX              =   -186.716971633
     EC              =     -7.534393233
     EX+EC           =   -194.251364866
Transforming the Hamiltonian                       ... done (   0.0 sec)
Diagonalizing the Hamiltonian                      ... done (   0.0 sec)
Back transforming the eigenvectors                 ... done (   0.0 sec)
Now organizing SCF variables                       ... done
                      ------------------
                      INITIAL GUESS DONE (   3.8 sec)
                      ------------------
             **** ENERGY FILE WAS UPDATED (/home/nmrbox/aojoawo/Documents/ERDOS/inputs/CHEMBL3235963.en.tmp) ****
Finished Guess after   4.1 sec
Maximum memory used throughout the entire GUESS-calculation: 56.8 MB

-------------------------------------------------------------------------------------------
                                      ORCA LEAN-SCF
                              memory conserving SCF solver
-------------------------------------------------------------------------------------------

----------------------------------------D-I-I-S--------------------------------------------
Iteration    Energy (Eh)           Delta-E    RMSDP     MaxDP     DIISErr   Damp  Time(sec)
-------------------------------------------------------------------------------------------
               ***  Starting incremental Fock matrix formation  ***
    1    -1462.8611664832087627     0.00e+00  2.11e-03  1.04e-01  2.82e-01  0.700  38.5
    2    -1463.1884538621889078    -3.27e-01  1.38e-03  5.47e-02  9.68e-02  0.700  17.0
                               ***Turning on AO-DIIS***
    3    -1463.3114736195802834    -1.23e-01  5.81e-04  1.73e-02  3.59e-02  0.700  16.3
    4    -1463.3891742125078963    -7.77e-02  9.74e-04  2.56e-02  1.93e-02  0.000  15.3
    5    -1463.5599776159842804    -1.71e-01  2.16e-04  7.76e-03  7.55e-03  0.000  15.8
                              *** Initializing SOSCF ***
---------------------------------------S-O-S-C-F--------------------------------------
Iteration    Energy (Eh)           Delta-E    RMSDP     MaxDP     MaxGrad    Time(sec)
--------------------------------------------------------------------------------------
    6    -1463.5612057141461264    -1.23e-03  6.98e-05  2.95e-03  2.08e-03    13.6
               *** Restarting incremental Fock matrix formation ***
    7    -1463.5613877925243287    -1.82e-04  6.42e-05  4.37e-03  7.55e-04    37.6
    8    -1463.5613211876052446     6.66e-05  4.19e-05  3.00e-03  2.16e-03    21.5
    9    -1463.5614072434373156    -8.61e-05  1.09e-05  5.06e-04  1.68e-04    19.1
   10    -1463.5614055220075898     1.72e-06  7.07e-06  3.41e-04  3.29e-04    16.0
   11    -1463.5614077913269284    -2.27e-06  2.89e-06  1.14e-04  4.59e-05    14.7
   12    -1463.5614077166883362     7.46e-08  1.88e-06  7.89e-05  7.95e-05    12.2
                 **** Energy Check signals convergence ****

               *****************************************************
               *                     SUCCESS                       *
               *           SCF CONVERGED AFTER  12 CYCLES          *
               *****************************************************

Recomputing exchange energy using gridx3       ... done (   64.530 sec)
Old exchange energy                            :    -37.806794073 Eh
New exchange energy                            :    -37.806810357 Eh
Exchange energy change after final integration :     -0.000016284 Eh
Total energy after final integration           :  -1463.561424001 Eh
             **** ENERGY FILE WAS UPDATED (/home/nmrbox/aojoawo/Documents/ERDOS/inputs/CHEMBL3235963.en.tmp) ****

----------------
TOTAL SCF ENERGY
----------------

Total Energy       :      -1463.56142400070235 Eh          -39825.53104 eV

Components:
Nuclear Repulsion  :       2890.87527431670969 Eh           78664.71545 eV
Electronic Energy  :      -4354.43668203339803 Eh         -118490.24605 eV
One Electron Energy:      -7746.19317149036851 Eh         -210784.63228 eV
Two Electron Energy:       3391.75648945697003 Eh           92294.38623 eV

Virial components:
Potential Energy   :      -2917.98985859069580 Eh          -79402.54080 eV
Kinetic Energy     :       1454.42843458999369 Eh           39577.00976 eV
Virial Ratio       :          2.00627943540810

DFT components:
N(Alpha)           :      109.000166401686 electrons
N(Beta)            :      109.000166401686 electrons
N(Total)           :      218.000332803372 electrons
E(X)               :     -150.243962303822 Eh       
E(C)               :       -8.860604098935 Eh       
E(XC)              :     -159.104566402757 Eh       

---------------
SCF CONVERGENCE
---------------

  Last Energy change         ...   -7.4639e-08  Tolerance :   1.0000e-06
  Last MAX-Density change    ...    7.8941e-05  Tolerance :   1.0000e-05
  Last RMS-Density change    ...    1.8776e-06  Tolerance :   1.0000e-06
  Last DIIS Error            ...    2.0773e-03  Tolerance :   1.0000e-06
  Last Orbital Gradient      ...    7.9482e-05  Tolerance :   5.0000e-05
  Last Orbital Rotation      ...    6.6423e-05  Tolerance :   5.0000e-05


----------------
ORBITAL ENERGIES
----------------

  NO   OCC          E(Eh)            E(eV) 
   0   2.0000     -24.722093      -672.7224 
   1   2.0000     -24.720694      -672.6843 
   2   2.0000     -24.716914      -672.5814 
   3   2.0000     -19.115053      -520.1470 
   4   2.0000     -14.381970      -391.3533 
   5   2.0000     -14.367433      -390.9577 
   6   2.0000     -14.324277      -389.7834 
   7   2.0000     -10.436937      -284.0035 
   8   2.0000     -10.328527      -281.0535 
   9   2.0000     -10.255018      -279.0532 
  10   2.0000     -10.250523      -278.9309 
  11   2.0000     -10.226412      -278.2748 
  12   2.0000     -10.225878      -278.2603 
  13   2.0000     -10.219317      -278.0817 
  14   2.0000     -10.216293      -277.9995 
  15   2.0000     -10.214387      -277.9476 
  16   2.0000     -10.211365      -277.8654 
  17   2.0000     -10.210474      -277.8411 
  18   2.0000     -10.209207      -277.8067 
  19   2.0000     -10.209071      -277.8029 
  20   2.0000     -10.209006      -277.8012 
  21   2.0000     -10.205842      -277.7151 
  22   2.0000     -10.204965      -277.6912 
  23   2.0000     -10.204566      -277.6804 
  24   2.0000     -10.204035      -277.6659 
  25   2.0000     -10.197643      -277.4920 
  26   2.0000     -10.197591      -277.4906 
  27   2.0000     -10.196835      -277.4700 
  28   2.0000     -10.193226      -277.3718 
  29   2.0000     -10.192849      -277.3615 
  30   2.0000     -10.192479      -277.3515 
  31   2.0000      -1.280978       -34.8572 
  32   2.0000      -1.206841       -32.8398 
  33   2.0000      -1.204770       -32.7835 
  34   2.0000      -1.030482       -28.0409 
  35   2.0000      -0.941048       -25.6072 
  36   2.0000      -0.930530       -25.3210 
  37   2.0000      -0.897952       -24.4345 
  38   2.0000      -0.879649       -23.9365 
  39   2.0000      -0.866576       -23.5807 
  40   2.0000      -0.861064       -23.4308 
  41   2.0000      -0.815635       -22.1946 
  42   2.0000      -0.793504       -21.5923 
  43   2.0000      -0.771473       -20.9929 
  44   2.0000      -0.768561       -20.9136 
  45   2.0000      -0.768302       -20.9066 
  46   2.0000      -0.763935       -20.7877 
  47   2.0000      -0.742020       -20.1914 
  48   2.0000      -0.707267       -19.2457 
  49   2.0000      -0.677415       -18.4334 
  50   2.0000      -0.662542       -18.0287 
  51   2.0000      -0.637350       -17.3432 
  52   2.0000      -0.635859       -17.3026 
  53   2.0000      -0.632539       -17.2123 
  54   2.0000      -0.624608       -16.9964 
  55   2.0000      -0.604240       -16.4422 
  56   2.0000      -0.592586       -16.1251 
  57   2.0000      -0.571802       -15.5595 
  58   2.0000      -0.570170       -15.5151 
  59   2.0000      -0.567018       -15.4293 
  60   2.0000      -0.560888       -15.2625 
  61   2.0000      -0.558754       -15.2045 
  62   2.0000      -0.545796       -14.8519 
  63   2.0000      -0.523632       -14.2487 
  64   2.0000      -0.520040       -14.1510 
  65   2.0000      -0.508305       -13.8317 
  66   2.0000      -0.486704       -13.2439 
  67   2.0000      -0.480188       -13.0666 
  68   2.0000      -0.475635       -12.9427 
  69   2.0000      -0.471305       -12.8249 
  70   2.0000      -0.463954       -12.6248 
  71   2.0000      -0.456877       -12.4323 
  72   2.0000      -0.454330       -12.3630 
  73   2.0000      -0.450247       -12.2518 
  74   2.0000      -0.447490       -12.1768 
  75   2.0000      -0.446802       -12.1581 
  76   2.0000      -0.444597       -12.0981 
  77   2.0000      -0.438552       -11.9336 
  78   2.0000      -0.427334       -11.6284 
  79   2.0000      -0.424670       -11.5559 
  80   2.0000      -0.421689       -11.4748 
  81   2.0000      -0.413534       -11.2528 
  82   2.0000      -0.412714       -11.2305 
  83   2.0000      -0.407279       -11.0826 
  84   2.0000      -0.402523       -10.9532 
  85   2.0000      -0.400478       -10.8976 
  86   2.0000      -0.399504       -10.8711 
  87   2.0000      -0.394562       -10.7366 
  88   2.0000      -0.391337       -10.6488 
  89   2.0000      -0.382324       -10.4036 
  90   2.0000      -0.378814       -10.3080 
  91   2.0000      -0.371371       -10.1055 
  92   2.0000      -0.368366       -10.0238 
  93   2.0000      -0.365932        -9.9575 
  94   2.0000      -0.356482        -9.7004 
  95   2.0000      -0.348126        -9.4730 
  96   2.0000      -0.345217        -9.3938 
  97   2.0000      -0.342500        -9.3199 
  98   2.0000      -0.336703        -9.1622 
  99   2.0000      -0.322566        -8.7775 
 100   2.0000      -0.293194        -7.9782 
 101   2.0000      -0.281500        -7.6600 
 102   2.0000      -0.273299        -7.4368 
 103   2.0000      -0.271583        -7.3901 
 104   2.0000      -0.260689        -7.0937 
 105   2.0000      -0.254266        -6.9189 
 106   2.0000      -0.251118        -6.8333 
 107   2.0000      -0.238440        -6.4883 
 108   2.0000      -0.235431        -6.4064 
 109   0.0000      -0.043877        -1.1940 
 110   0.0000      -0.039106        -1.0641 
 111   0.0000      -0.027624        -0.7517 
 112   0.0000      -0.020379        -0.5545 
 113   0.0000      -0.018051        -0.4912 
 114   0.0000      -0.008342        -0.2270 
 115   0.0000       0.022562         0.6139 
 116   0.0000       0.041532         1.1301 
 117   0.0000       0.048194         1.3114 
 118   0.0000       0.075726         2.0606 
 119   0.0000       0.081917         2.2291 
*Only the first 10 virtual orbitals were printed.

                    ********************************
                    * MULLIKEN POPULATION ANALYSIS *
                    ********************************

-----------------------
MULLIKEN ATOMIC CHARGES
-----------------------
   0 N :   -0.309121
   1 C :    0.078027
   2 C :    0.121237
   3 C :   -0.141545
   4 C :   -0.176752
   5 C :    0.333025
   6 N :   -0.712263
   7 C :    0.693684
   8 O :   -0.485578
   9 N :   -0.462647
  10 C :   -0.125478
  11 C :   -0.347636
  12 C :    0.107847
  13 C :   -0.185241
  14 C :   -0.120815
  15 C :   -0.129196
  16 C :   -0.174921
  17 C :    0.091882
  18 C :   -0.124882
  19 C :    0.194866
  20 C :   -0.159758
  21 C :   -0.157089
  22 C :   -0.015283
  23 C :    0.897676
  24 F :   -0.294859
  25 F :   -0.304943
  26 F :   -0.305693
  27 C :   -0.156348
  28 C :   -0.196864
  29 C :   -0.127232
  30 C :   -0.150364
  31 H :    0.157533
  32 H :    0.134219
  33 H :    0.329444
  34 H :    0.148297
  35 H :    0.178401
  36 H :    0.150670
  37 H :    0.161827
  38 H :    0.128878
  39 H :    0.132196
  40 H :    0.133979
  41 H :    0.133929
  42 H :    0.145756
  43 H :    0.148733
  44 H :    0.159030
  45 H :    0.152156
  46 H :    0.121987
  47 H :    0.168547
  48 H :    0.160681
Sum of atomic charges:   -0.0000000

--------------------------------
MULLIKEN REDUCED ORBITAL CHARGES
--------------------------------
  0 N s       :     3.719229  s :     3.719229
      pz      :     1.089152  p :     3.549562
      px      :     1.231121
      py      :     1.229289
      dz2     :     0.003623  d :     0.040330
      dxz     :     0.006773
      dyz     :     0.006684
      dx2y2   :     0.013624
      dxy     :     0.009626

  1 C s       :     3.084316  s :     3.084316
      pz      :     0.940286  p :     2.794944
      px      :     0.926558
      py      :     0.928099
      dz2     :     0.003904  d :     0.042713
      dxz     :     0.008024
      dyz     :     0.007971
      dx2y2   :     0.013250
      dxy     :     0.009566

  2 C s       :     3.087350  s :     3.087350
      pz      :     1.036266  p :     2.748838
      px      :     0.855489
      py      :     0.857082
      dz2     :     0.003344  d :     0.042576
      dxz     :     0.005729
      dyz     :     0.005907
      dx2y2   :     0.012672
      dxy     :     0.014923

  3 C s       :     3.199864  s :     3.199864
      pz      :     0.973821  p :     2.905302
      px      :     0.942039
      py      :     0.989441
      dz2     :     0.003742  d :     0.036379
      dxz     :     0.006445
      dyz     :     0.002473
      dx2y2   :     0.013140
      dxy     :     0.010578

  4 C s       :     3.190913  s :     3.190913
      pz      :     1.023863  p :     2.951021
      px      :     0.984946
      py      :     0.942212
      dz2     :     0.003562  d :     0.034818
      dxz     :     0.002476
      dyz     :     0.005844
      dx2y2   :     0.013129
      dxy     :     0.009808

  5 C s       :     3.074165  s :     3.074165
      pz      :     0.957093  p :     2.537257
      px      :     0.790102
      py      :     0.790063
      dz2     :     0.004294  d :     0.055553
      dxz     :     0.008697
      dyz     :     0.007744
      dx2y2   :     0.016198
      dxy     :     0.018619

  6 N s       :     3.628045  s :     3.628045
      pz      :     1.486878  p :     4.054858
      px      :     1.240813
      py      :     1.327166
      dz2     :     0.003724  d :     0.029360
      dxz     :     0.005740
      dyz     :     0.005662
      dx2y2   :     0.008522
      dxy     :     0.005712

  7 C s       :     2.915443  s :     2.915443
      pz      :     0.778673  p :     2.276494
      px      :     0.734439
      py      :     0.763381
      dz2     :     0.019283  d :     0.114379
      dxz     :     0.025143
      dyz     :     0.015575
      dx2y2   :     0.025280
      dxy     :     0.029098

  8 O s       :     3.888809  s :     3.888809
      pz      :     1.530636  p :     4.571347
      px      :     1.415548
      py      :     1.625163
      dz2     :     0.004102  d :     0.025422
      dxz     :     0.007777
      dyz     :     0.001503
      dx2y2   :     0.005699
      dxy     :     0.006341

  9 N s       :     3.564530  s :     3.564530
      pz      :     1.609297  p :     3.865435
      px      :     1.082325
      py      :     1.173812
      dz2     :     0.004135  d :     0.032683
      dxz     :     0.004485
      dyz     :     0.004665
      dx2y2   :     0.008144
      dxy     :     0.011253

 10 C s       :     3.221176  s :     3.221176
      pz      :     1.019614  p :     2.849950
      px      :     1.029713
      py      :     0.800623
      dz2     :     0.017026  d :     0.054352
      dxz     :     0.004211
      dyz     :     0.010639
      dx2y2   :     0.012878
      dxy     :     0.009599

 11 C s       :     3.264144  s :     3.264144
      pz      :     1.058628  p :     3.042808
      px      :     0.974976
      py      :     1.009204
      dz2     :     0.011642  d :     0.040684
      dxz     :     0.005285
      dyz     :     0.006099
      dx2y2   :     0.009439
      dxy     :     0.008220

 12 C s       :     3.139272  s :     3.139272
      pz      :     0.956426  p :     2.711954
      px      :     0.870340
      py      :     0.885187
      dz2     :     0.003703  d :     0.040927
      dxz     :     0.005418
      dyz     :     0.006510
      dx2y2   :     0.012783
      dxy     :     0.012513

 13 C s       :     3.206764  s :     3.206764
      pz      :     1.006770  p :     2.942490
      px      :     0.955601
      py      :     0.980120
      dz2     :     0.003828  d :     0.035987
      dxz     :     0.005784
      dyz     :     0.002375
      dx2y2   :     0.013756
      dxy     :     0.010244

 14 C s       :     3.189500  s :     3.189500
      pz      :     0.981303  p :     2.894888
      px      :     0.965825
      py      :     0.947761
      dz2     :     0.003279  d :     0.036426
      dxz     :     0.004200
      dyz     :     0.005027
      dx2y2   :     0.009904
      dxy     :     0.014017

 15 C s       :     3.189698  s :     3.189698
      pz      :     0.991441  p :     2.903233
      px      :     0.977923
      py      :     0.933869
      dz2     :     0.003481  d :     0.036266
      dxz     :     0.002966
      dyz     :     0.005898
      dx2y2   :     0.012174
      dxy     :     0.011747

 16 C s       :     3.203109  s :     3.203109
      pz      :     0.998094  p :     2.935901
      px      :     0.955807
      py      :     0.982000
      dz2     :     0.003838  d :     0.035911
      dxz     :     0.006084
      dyz     :     0.002415
      dx2y2   :     0.013659
      dxy     :     0.009914

 17 C s       :     3.141625  s :     3.141625
      pz      :     0.994706  p :     2.727414
      px      :     0.858107
      py      :     0.874600
      dz2     :     0.003410  d :     0.039079
      dxz     :     0.005248
      dyz     :     0.006410
      dx2y2   :     0.011232
      dxy     :     0.012778

 18 C s       :     3.197632  s :     3.197632
      pz      :     1.019893  p :     2.867281
      px      :     0.850526
      py      :     0.996863
      dz2     :     0.011777  d :     0.059968
      dxz     :     0.010652
      dyz     :     0.012200
      dx2y2   :     0.011147
      dxy     :     0.014192

 19 C s       :     3.137143  s :     3.137143
      pz      :     0.835790  p :     2.628087
      px      :     0.937381
      py      :     0.854916
      dz2     :     0.010256  d :     0.039904
      dxz     :     0.005241
      dyz     :     0.012872
      dx2y2   :     0.005748
      dxy     :     0.005787

 20 C s       :     3.200246  s :     3.200246
      pz      :     0.953360  p :     2.923779
      px      :     0.983654
      py      :     0.986765
      dz2     :     0.009828  d :     0.035732
      dxz     :     0.005381
      dyz     :     0.011233
      dx2y2   :     0.006022
      dxy     :     0.003268

 21 C s       :     3.208800  s :     3.208800
      pz      :     1.001119  p :     2.912219
      px      :     0.968968
      py      :     0.942132
      dz2     :     0.011047  d :     0.036070
      dxz     :     0.003055
      dyz     :     0.009856
      dx2y2   :     0.005637
      dxy     :     0.006475

 22 C s       :     3.159336  s :     3.159336
      pz      :     0.911547  p :     2.817983
      px      :     1.011817
      py      :     0.894619
      dz2     :     0.008650  d :     0.037963
      dxz     :     0.004824
      dyz     :     0.014012
      dx2y2   :     0.005450
      dxy     :     0.005026

 23 C s       :     2.803160  s :     2.803160
      pz      :     0.730582  p :     2.161008
      px      :     0.628431
      py      :     0.801995
      dz2     :     0.031483  d :     0.138156
      dxz     :     0.022366
      dyz     :     0.026670
      dx2y2   :     0.024759
      dxy     :     0.032878

 24 F s       :     3.976891  s :     3.976891
      pz      :     1.905767  p :     5.301546
      px      :     1.566217
      py      :     1.829562
      dz2     :     0.002241  d :     0.016421
      dxz     :     0.003040
      dyz     :     0.001053
      dx2y2   :     0.004831
      dxy     :     0.005256

 25 F s       :     3.980534  s :     3.980534
      pz      :     1.534054  p :     5.308080
      px      :     1.898319
      py      :     1.875707
      dz2     :     0.007166  d :     0.016329
      dxz     :     0.003385
      dyz     :     0.004738
      dx2y2   :     0.000460
      dxy     :     0.000579

 26 F s       :     3.979948  s :     3.979948
      pz      :     1.889154  p :     5.309425
      px      :     1.690517
      py      :     1.729754
      dz2     :     0.002220  d :     0.016321
      dxz     :     0.002318
      dyz     :     0.002230
      dx2y2   :     0.003606
      dxy     :     0.005948

 27 C s       :     3.202882  s :     3.202882
      pz      :     0.948405  p :     2.917398
      px      :     0.977800
      py      :     0.991193
      dz2     :     0.009823  d :     0.036069
      dxz     :     0.006080
      dyz     :     0.011014
      dx2y2   :     0.006018
      dxy     :     0.003133

 28 C s       :     3.202288  s :     3.202288
      pz      :     0.979337  p :     2.958578
      px      :     1.014407
      py      :     0.964834
      dz2     :     0.011429  d :     0.035998
      dxz     :     0.002785
      dyz     :     0.010139
      dx2y2   :     0.005560
      dxy     :     0.006084

 29 C s       :     3.196374  s :     3.196374
      pz      :     0.972479  p :     2.896046
      px      :     0.939685
      py      :     0.983882
      dz2     :     0.003692  d :     0.034811
      dxz     :     0.005338
      dyz     :     0.002888
      dx2y2   :     0.012809
      dxy     :     0.010084

 30 C s       :     3.205810  s :     3.205810
      pz      :     0.974981  p :     2.908177
      px      :     0.994370
      py      :     0.938827
      dz2     :     0.003477  d :     0.036376
      dxz     :     0.002691
      dyz     :     0.006413
      dx2y2   :     0.013201
      dxy     :     0.010594

 31 H s       :     0.842467  s :     0.842467

 32 H s       :     0.865781  s :     0.865781

 33 H s       :     0.670556  s :     0.670556

 34 H s       :     0.851703  s :     0.851703

 35 H s       :     0.821599  s :     0.821599

 36 H s       :     0.849330  s :     0.849330

 37 H s       :     0.838173  s :     0.838173

 38 H s       :     0.871122  s :     0.871122

 39 H s       :     0.867804  s :     0.867804

 40 H s       :     0.866021  s :     0.866021

 41 H s       :     0.866071  s :     0.866071

 42 H s       :     0.854244  s :     0.854244

 43 H s       :     0.851267  s :     0.851267

 44 H s       :     0.840970  s :     0.840970

 45 H s       :     0.847844  s :     0.847844

 46 H s       :     0.878013  s :     0.878013

 47 H s       :     0.831453  s :     0.831453

 48 H s       :     0.839319  s :     0.839319



                     *******************************
                     * LOEWDIN POPULATION ANALYSIS *
                     *******************************

----------------------
LOEWDIN ATOMIC CHARGES
----------------------
   0 N :   -0.101649
   1 C :   -0.008388
   2 C :   -0.061739
   3 C :   -0.098664
   4 C :   -0.141490
   5 C :    0.050558
   6 N :   -0.221869
   7 C :    0.173849
   8 O :   -0.300868
   9 N :   -0.124125
  10 C :   -0.140040
  11 C :   -0.228339
  12 C :   -0.024098
  13 C :   -0.130912
  14 C :   -0.124216
  15 C :   -0.129694
  16 C :   -0.124485
  17 C :   -0.028804
  18 C :   -0.043251
  19 C :   -0.009831
  20 C :   -0.111996
  21 C :   -0.106486
  22 C :   -0.067818
  23 C :    0.310460
  24 F :   -0.111897
  25 F :   -0.112107
  26 F :   -0.114749
  27 C :   -0.109945
  28 C :   -0.143741
  29 C :   -0.115443
  30 C :   -0.097117
  31 H :    0.147965
  32 H :    0.135697
  33 H :    0.252385
  34 H :    0.116764
  35 H :    0.146874
  36 H :    0.134384
  37 H :    0.136899
  38 H :    0.132659
  39 H :    0.133644
  40 H :    0.134670
  41 H :    0.135737
  42 H :    0.126585
  43 H :    0.142148
  44 H :    0.147149
  45 H :    0.143314
  46 H :    0.126767
  47 H :    0.155826
  48 H :    0.149424

-------------------------------
LOEWDIN REDUCED ORBITAL CHARGES
-------------------------------
  0 N s       :     3.427449  s :     3.427449
      pz      :     1.086210  p :     3.603275
      px      :     1.259877
      py      :     1.257189
      dz2     :     0.007922  d :     0.070924
      dxz     :     0.010278
      dyz     :     0.010150
      dx2y2   :     0.020024
      dxy     :     0.022550

  1 C s       :     2.928848  s :     2.928848
      pz      :     0.927359  p :     2.975662
      px      :     1.024967
      py      :     1.023337
      dz2     :     0.010502  d :     0.103878
      dxz     :     0.017747
      dyz     :     0.017619
      dx2y2   :     0.029482
      dxy     :     0.028529

  2 C s       :     2.857751  s :     2.857751
      pz      :     1.019431  p :     3.095430
      px      :     1.036125
      py      :     1.039874
      dz2     :     0.007291  d :     0.108559
      dxz     :     0.012224
      dyz     :     0.012641
      dx2y2   :     0.034306
      dxy     :     0.042096

  3 C s       :     2.915728  s :     2.915728
      pz      :     0.969798  p :     3.098224
      px      :     1.047715
      py      :     1.080712
      dz2     :     0.006661  d :     0.084712
      dxz     :     0.014059
      dyz     :     0.004439
      dx2y2   :     0.031938
      dxy     :     0.027616

  4 C s       :     2.917271  s :     2.917271
      pz      :     1.015843  p :     3.142182
      px      :     1.075462
      py      :     1.050877
      dz2     :     0.006532  d :     0.082038
      dxz     :     0.004327
      dyz     :     0.012554
      dx2y2   :     0.032502
      dxy     :     0.026123

  5 C s       :     2.857014  s :     2.857014
      pz      :     0.955986  p :     2.959115
      px      :     1.005479
      py      :     0.997650
      dz2     :     0.008990  d :     0.133313
      dxz     :     0.018320
      dyz     :     0.016041
      dx2y2   :     0.041716
      dxy     :     0.048246

  6 N s       :     3.146255  s :     3.146255
      pz      :     1.468626  p :     4.006776
      px      :     1.231159
      py      :     1.306992
      dz2     :     0.007513  d :     0.068838
      dxz     :     0.012073
      dyz     :     0.014077
      dx2y2   :     0.019930
      dxy     :     0.015245

  7 C s       :     2.841491  s :     2.841491
      pz      :     0.880634  p :     2.723764
      px      :     0.956104
      py      :     0.887027
      dz2     :     0.041298  d :     0.260896
      dxz     :     0.057060
      dyz     :     0.035762
      dx2y2   :     0.060095
      dxy     :     0.066681

  8 O s       :     3.591000  s :     3.591000
      pz      :     1.545517  p :     4.659887
      px      :     1.490321
      py      :     1.624049
      dz2     :     0.006730  d :     0.049980
      dxz     :     0.016255
      dyz     :     0.002583
      dx2y2   :     0.013752
      dxy     :     0.010660

  9 N s       :     3.115822  s :     3.115822
      pz      :     1.587563  p :     3.926133
      px      :     1.132580
      py      :     1.205990
      dz2     :     0.007987  d :     0.082170
      dxz     :     0.010366
      dyz     :     0.009990
      dx2y2   :     0.023216
      dxy     :     0.030610

 10 C s       :     2.925125  s :     2.925125
      pz      :     1.083261  p :     3.100099
      px      :     1.093515
      py      :     0.923324
      dz2     :     0.034369  d :     0.114816
      dxz     :     0.007797
      dyz     :     0.023606
      dx2y2   :     0.027334
      dxy     :     0.021710

 11 C s       :     2.929867  s :     2.929867
      pz      :     1.101878  p :     3.212415
      px      :     1.039356
      py      :     1.071181
      dz2     :     0.022931  d :     0.086058
      dxz     :     0.011542
      dyz     :     0.011852
      dx2y2   :     0.020563
      dxy     :     0.019170

 12 C s       :     2.873324  s :     2.873324
      pz      :     0.966943  p :     3.049130
      px      :     1.029911
      py      :     1.052275
      dz2     :     0.007597  d :     0.101645
      dxz     :     0.010970
      dyz     :     0.014376
      dx2y2   :     0.034306
      dxy     :     0.034396

 13 C s       :     2.917474  s :     2.917474
      pz      :     0.999663  p :     3.128996
      px      :     1.060667
      py      :     1.068665
      dz2     :     0.006967  d :     0.084442
      dxz     :     0.013062
      dyz     :     0.004378
      dx2y2   :     0.033302
      dxy     :     0.026733

 14 C s       :     2.917253  s :     2.917253
      pz      :     0.978780  p :     3.121177
      px      :     1.069401
      py      :     1.072996
      dz2     :     0.006143  d :     0.085786
      dxz     :     0.008594
      dyz     :     0.010615
      dx2y2   :     0.026476
      dxy     :     0.033958

 15 C s       :     2.915702  s :     2.915702
      pz      :     0.988999  p :     3.128492
      px      :     1.068644
      py      :     1.070848
      dz2     :     0.006484  d :     0.085500
      dxz     :     0.005453
      dyz     :     0.013133
      dx2y2   :     0.030650
      dxy     :     0.029780

 16 C s       :     2.916727  s :     2.916727
      pz      :     0.992648  p :     3.123827
      px      :     1.053926
      py      :     1.077253
      dz2     :     0.006898  d :     0.083931
      dxz     :     0.013680
      dyz     :     0.004461
      dx2y2   :     0.033060
      dxy     :     0.025832

 17 C s       :     2.876831  s :     2.876831
      pz      :     0.993177  p :     3.054393
      px      :     1.025429
      py      :     1.035786
      dz2     :     0.007098  d :     0.097580
      dxz     :     0.010958
      dyz     :     0.013180
      dx2y2   :     0.030782
      dxy     :     0.035563

 18 C s       :     2.880031  s :     2.880031
      pz      :     1.068390  p :     3.032758
      px      :     0.936283
      py      :     1.028085
      dz2     :     0.024445  d :     0.130462
      dxz     :     0.020697
      dyz     :     0.028297
      dx2y2   :     0.025265
      dxy     :     0.031759

 19 C s       :     2.885351  s :     2.885351
      pz      :     1.047241  p :     3.025007
      px      :     0.943940
      py      :     1.033825
      dz2     :     0.026775  d :     0.099473
      dxz     :     0.011598
      dyz     :     0.035626
      dx2y2   :     0.013643
      dxy     :     0.011831

 20 C s       :     2.915343  s :     2.915343
      pz      :     1.054530  p :     3.113014
      px      :     0.980682
      py      :     1.077802
      dz2     :     0.026043  d :     0.083639
      dxz     :     0.011548
      dyz     :     0.028794
      dx2y2   :     0.011295
      dxy     :     0.005960

 21 C s       :     2.917798  s :     2.917798
      pz      :     1.083484  p :     3.104456
      px      :     0.967182
      py      :     1.053790
      dz2     :     0.023939  d :     0.084231
      dxz     :     0.005200
      dyz     :     0.026097
      dx2y2   :     0.014921
      dxy     :     0.014074

 22 C s       :     2.888016  s :     2.888016
      pz      :     1.045333  p :     3.083436
      px      :     1.005383
      py      :     1.032720
      dz2     :     0.023841  d :     0.096366
      dxz     :     0.010338
      dyz     :     0.038552
      dx2y2   :     0.013293
      dxy     :     0.010342

 23 C s       :     2.849881  s :     2.849881
      pz      :     0.842315  p :     2.510233
      px      :     0.773695
      py      :     0.894223
      dz2     :     0.076136  d :     0.329426
      dxz     :     0.047643
      dyz     :     0.067087
      dx2y2   :     0.057856
      dxy     :     0.080704

 24 F s       :     3.761688  s :     3.761688
      pz      :     1.899978  p :     5.318860
      px      :     1.587149
      py      :     1.831733
      dz2     :     0.004801  d :     0.031349
      dxz     :     0.004991
      dyz     :     0.001677
      dx2y2   :     0.008686
      dxy     :     0.011194

 25 F s       :     3.758653  s :     3.758653
      pz      :     1.554206  p :     5.322468
      px      :     1.895231
      py      :     1.873032
      dz2     :     0.015228  d :     0.030985
      dxz     :     0.005327
      dyz     :     0.008605
      dx2y2   :     0.000832
      dxy     :     0.000993

 26 F s       :     3.759996  s :     3.759996
      pz      :     1.883777  p :     5.323762
      px      :     1.701393
      py      :     1.738592
      dz2     :     0.004678  d :     0.030991
      dxz     :     0.004066
      dyz     :     0.003758
      dx2y2   :     0.005939
      dxy     :     0.012550

 27 C s       :     2.916603  s :     2.916603
      pz      :     1.054870  p :     3.108821
      px      :     0.972583
      py      :     1.081368
      dz2     :     0.025936  d :     0.084521
      dxz     :     0.013053
      dyz     :     0.028490
      dx2y2   :     0.011242
      dxy     :     0.005800

 28 C s       :     2.917022  s :     2.917022
      pz      :     1.067885  p :     3.142023
      px      :     1.011818
      py      :     1.062320
      dz2     :     0.024861  d :     0.084696
      dxz     :     0.004856
      dyz     :     0.026833
      dx2y2   :     0.014872
      dxy     :     0.013274

 29 C s       :     2.919943  s :     2.919943
      pz      :     0.975420  p :     3.114165
      px      :     1.048104
      py      :     1.090641
      dz2     :     0.006735  d :     0.081335
      dxz     :     0.011656
      dyz     :     0.004979
      dx2y2   :     0.031303
      dxy     :     0.026662

 30 C s       :     2.917097  s :     2.917097
      pz      :     0.965998  p :     3.095480
      px      :     1.081114
      py      :     1.048368
      dz2     :     0.006288  d :     0.084541
      dxz     :     0.004502
      dyz     :     0.013758
      dx2y2   :     0.032480
      dxy     :     0.027513

 31 H s       :     0.852035  s :     0.852035

 32 H s       :     0.864303  s :     0.864303

 33 H s       :     0.747615  s :     0.747615

 34 H s       :     0.883236  s :     0.883236

 35 H s       :     0.853126  s :     0.853126

 36 H s       :     0.865616  s :     0.865616

 37 H s       :     0.863101  s :     0.863101

 38 H s       :     0.867341  s :     0.867341

 39 H s       :     0.866356  s :     0.866356

 40 H s       :     0.865330  s :     0.865330

 41 H s       :     0.864263  s :     0.864263

 42 H s       :     0.873415  s :     0.873415

 43 H s       :     0.857852  s :     0.857852

 44 H s       :     0.852851  s :     0.852851

 45 H s       :     0.856686  s :     0.856686

 46 H s       :     0.873233  s :     0.873233

 47 H s       :     0.844174  s :     0.844174

 48 H s       :     0.850576  s :     0.850576



                      *****************************
                      * MAYER POPULATION ANALYSIS *
                      *****************************

  NA   - Mulliken gross atomic population
  ZA   - Total nuclear charge
  QA   - Mulliken gross atomic charge
  VA   - Mayer's total valence
  BVA  - Mayer's bonded valence
  FA   - Mayer's free valence

  ATOM       NA         ZA         QA         VA         BVA        FA
  0 N      7.3091     7.0000    -0.3091     3.1253     3.1253    -0.0000
  1 C      5.9220     6.0000     0.0780     4.0593     4.0593    -0.0000
  2 C      5.8788     6.0000     0.1212     3.8765     3.8765    -0.0000
  3 C      6.1415     6.0000    -0.1415     3.9419     3.9419    -0.0000
  4 C      6.1768     6.0000    -0.1768     3.9117     3.9117    -0.0000
  5 C      5.6670     6.0000     0.3330     3.8751     3.8751     0.0000
  6 N      7.7123     7.0000    -0.7123     2.8733     2.8733     0.0000
  7 C      5.3063     6.0000     0.6937     3.9261     3.9261     0.0000
  8 O      8.4856     8.0000    -0.4856     2.0455     2.0455     0.0000
  9 N      7.4626     7.0000    -0.4626     2.9812     2.9812     0.0000
 10 C      6.1255     6.0000    -0.1255     3.8285     3.8285     0.0000
 11 C      6.3476     6.0000    -0.3476     3.8319     3.8319    -0.0000
 12 C      5.8922     6.0000     0.1078     3.9651     3.9651     0.0000
 13 C      6.1852     6.0000    -0.1852     3.9309     3.9309    -0.0000
 14 C      6.1208     6.0000    -0.1208     3.9369     3.9369     0.0000
 15 C      6.1292     6.0000    -0.1292     3.9445     3.9445    -0.0000
 16 C      6.1749     6.0000    -0.1749     3.9070     3.9070     0.0000
 17 C      5.9081     6.0000     0.0919     3.9606     3.9606    -0.0000
 18 C      6.1249     6.0000    -0.1249     3.8673     3.8673    -0.0000
 19 C      5.8051     6.0000     0.1949     3.8812     3.8812    -0.0000
 20 C      6.1598     6.0000    -0.1598     3.9112     3.9112    -0.0000
 21 C      6.1571     6.0000    -0.1571     3.9263     3.9263    -0.0000
 22 C      6.0153     6.0000    -0.0153     3.9667     3.9667     0.0000
 23 C      5.1023     6.0000     0.8977     3.9152     3.9152    -0.0000
 24 F      9.2949     9.0000    -0.2949     1.0583     1.0583     0.0000
 25 F      9.3049     9.0000    -0.3049     1.0576     1.0576    -0.0000
 26 F      9.3057     9.0000    -0.3057     1.0514     1.0514     0.0000
 27 C      6.1563     6.0000    -0.1563     3.9337     3.9337     0.0000
 28 C      6.1969     6.0000    -0.1969     3.9263     3.9263    -0.0000
 29 C      6.1272     6.0000    -0.1272     3.9118     3.9118    -0.0000
 30 C      6.1504     6.0000    -0.1504     3.9240     3.9240    -0.0000
 31 H      0.8425     1.0000     0.1575     0.9326     0.9326    -0.0000
 32 H      0.8658     1.0000     0.1342     0.9425     0.9425    -0.0000
 33 H      0.6706     1.0000     0.3294     0.8691     0.8691    -0.0000
 34 H      0.8517     1.0000     0.1483     0.9278     0.9278     0.0000
 35 H      0.8216     1.0000     0.1784     0.9374     0.9374    -0.0000
 36 H      0.8493     1.0000     0.1507     0.9350     0.9350     0.0000
 37 H      0.8382     1.0000     0.1618     0.9276     0.9276     0.0000
 38 H      0.8711     1.0000     0.1289     0.9391     0.9391     0.0000
 39 H      0.8678     1.0000     0.1322     0.9365     0.9365     0.0000
 40 H      0.8660     1.0000     0.1340     0.9368     0.9368    -0.0000
 41 H      0.8661     1.0000     0.1339     0.9449     0.9449    -0.0000
 42 H      0.8542     1.0000     0.1458     0.9255     0.9255    -0.0000
 43 H      0.8513     1.0000     0.1487     0.9410     0.9410    -0.0000
 44 H      0.8410     1.0000     0.1590     0.9405     0.9405    -0.0000
 45 H      0.8478     1.0000     0.1522     0.9396     0.9396     0.0000
 46 H      0.8780     1.0000     0.1220     0.9431     0.9431    -0.0000
 47 H      0.8315     1.0000     0.1685     0.9449     0.9449    -0.0000
 48 H      0.8393     1.0000     0.1607     0.9320     0.9320     0.0000

  Mayer bond orders larger than 0.100000
B(  0-N ,  1-C ) :   3.0233 B(  1-C ,  2-C ) :   0.9846 B(  2-C ,  3-C ) :   1.4041 
B(  2-C , 30-C ) :   1.3923 B(  3-C ,  4-C ) :   1.4394 B(  3-C , 31-H ) :   0.9218 
B(  4-C ,  5-C ) :   1.4022 B(  4-C , 32-H ) :   0.9206 B(  5-C ,  6-N ) :   0.8810 
B(  5-C , 29-C ) :   1.4182 B(  6-N ,  7-C ) :   1.0025 B(  6-N , 33-H ) :   0.8157 
B(  7-C ,  8-O ) :   1.7939 B(  7-C ,  9-N ) :   1.0385 B(  9-N , 10-C ) :   0.9313 
B(  9-N , 18-C ) :   0.9218 B( 10-C , 11-C ) :   0.9835 B( 10-C , 34-H ) :   0.9241 
B( 10-C , 35-H ) :   0.9228 B( 11-C , 12-C ) :   0.9863 B( 11-C , 36-H ) :   0.9290 
B( 11-C , 37-H ) :   0.9190 B( 12-C , 13-C ) :   1.4090 B( 12-C , 17-C ) :   1.4417 
B( 13-C , 14-C ) :   1.4497 B( 13-C , 38-H ) :   0.9245 B( 14-C , 15-C ) :   1.4387 
B( 14-C , 39-H ) :   0.9288 B( 15-C , 16-C ) :   1.4499 B( 15-C , 40-H ) :   0.9292 
B( 16-C , 17-C ) :   1.3955 B( 16-C , 41-H ) :   0.9190 B( 17-C , 18-C ) :   0.9698 
B( 18-C , 19-C ) :   0.9379 B( 18-C , 42-H ) :   0.9072 B( 19-C , 20-C ) :   1.4167 
B( 19-C , 28-C ) :   1.4049 B( 20-C , 21-C ) :   1.4323 B( 20-C , 43-H ) :   0.9161 
B( 21-C , 22-C ) :   1.4051 B( 21-C , 44-H ) :   0.9184 B( 22-C , 23-C ) :   0.9792 
B( 22-C , 27-C ) :   1.4186 B( 23-C , 24-F ) :   0.9868 B( 23-C , 25-F ) :   0.9470 
B( 23-C , 26-F ) :   0.9501 B( 27-C , 28-C ) :   1.4177 B( 27-C , 45-H ) :   0.9195 
B( 28-C , 46-H ) :   0.9236 B( 29-C , 30-C ) :   1.4314 B( 29-C , 47-H ) :   0.9087 
B( 30-C , 48-H ) :   0.9222 

-------
TIMINGS
-------

Total SCF time: 0 days 0 hours 5 min 2 sec 

Total time                  ....     302.838 sec
Sum of individual times     ....     302.303 sec  ( 99.8%)

SCF preparation             ....       0.307 sec  (  0.1%)
Fock matrix formation       ....     299.816 sec  ( 99.0%)
  Startup                   ....       0.224 sec  (  0.1% of F)
  Split-RI-J                ....      39.154 sec  ( 13.1% of F)
  Chain of spheres X        ....     231.656 sec  ( 77.3% of F)
  XC integration            ....      27.805 sec  (  9.3% of F)
    XC Preparation          ....       0.000 sec  (  0.0% of XC)
    Basis function eval.    ....      11.043 sec  ( 39.7% of XC)
    Density eval.           ....       6.504 sec  ( 23.4% of XC)
    XC-Functional eval.     ....       1.236 sec  (  4.4% of XC)
    XC-Potential eval.      ....       7.492 sec  ( 26.9% of XC)
Diagonalization             ....       0.000 sec  (  0.0%)
Density matrix formation    ....       0.356 sec  (  0.1%)
Total Energy calculation    ....       0.085 sec  (  0.0%)
Population analysis         ....       0.058 sec  (  0.0%)
Orbital Transformation      ....       0.152 sec  (  0.1%)
Orbital Orthonormalization  ....       0.000 sec  (  0.0%)
DIIS solution               ....       0.866 sec  (  0.3%)
SOSCF solution              ....       0.663 sec  (  0.2%)
Finished LeanSCF after 302.9 sec

Maximum memory used throughout the entire LEANSCF-calculation: 78.3 MB

-------------------------   --------------------
FINAL SINGLE POINT ENERGY     -1463.561424000702
-------------------------   --------------------


------------------------------------------------------------------------------
                              ORCA PROPERTY CALCULATIONS
------------------------------------------------------------------------------

GBWName                                 ... /home/nmrbox/aojoawo/Documents/ERDOS/inputs/CHEMBL3235963.gbw
Number of atoms                         ...     49
Number of basis functions               ...    470
Max core memory                         ...   1024 MB

Electric properties:
Dipole moment                           ... YES
Quadrupole moment                       ...  NO
Static polarizability (Dipole/Dipole)   ...  NO
Static polarizability (Dipole/Quad.)    ...  NO
Static polarizability (Quad./Quad.)     ...  NO
Static polarizability (Velocity)        ...  NO

Atomic electric properties:
Dipole moment                           ...  NO
Quadrupole moment                       ...  NO
Static polarizability                   ...  NO

Choice of electric origin               ... Center of mass
Position of electric origin             ...     0.390907     1.104664     0.494609

General magnetic properties:
Magnetizability                         ...  NO

EPR properties:
g-Tensor (aka g-matrix)                 ...  NO
Zero-Field splitting spin-orbit         ...  NO
Zero-field splitting spin-spin          ...  NO
Hyperfine couplings                     ...  NO (   0 nuclei)
Quadrupole couplings                    ...  NO (   0 nuclei)
Contact density                         ...  NO (   0 nuclei)

NMR properties:
Chemical shifts                         ...  NO (   0 nuclei)
Spin-rotation constants                 ...  NO (   0 nuclei)
Spin-spin couplings                     ...  NO (   0 nuclei,    0 pairs)

Choice of magnetic origin               ... GIAO
Position of magnetic origin             ...     0.000000     0.000000     0.000000

Properties with geometric perturbations:
SCF Hessian                             ...  NO
IR spectrum                             ...  NO
VCD spectrum                            ...  NO
X-ray spectroscopy properties:
SCF XES/XAS/RIXS spectra                ...  NO


-------------
DIPOLE MOMENT
-------------

Method             : SCF
Type of density    : Electron Density
Multiplicity       :   1
Irrep              :   0
Energy             : -1463.5614240007023454 Eh
Relativity type    : 
Basis              : AO
                                X                 Y                 Z
Electronic contribution:      4.373543510      30.616255828      17.042890583
Nuclear contribution   :     -7.174712502     -32.836731371     -17.619730515
                        -----------------------------------------
Total Dipole Moment    :     -2.801168992      -2.220475543      -0.576839932
                        -----------------------------------------
Magnitude (a.u.)       :      3.620746286
Magnitude (Debye)      :      9.203205667



--------------------
Rotational spectrum 
--------------------
 
Rotational constants in cm-1:             0.005446             0.003193             0.002208 
Rotational constants in MHz :           163.267223            95.712002            66.180358 

Dipole components along the rotational axes: 
x,y,z [a.u.] :    -3.302609    -0.880614    -1.194611 
x,y,z [Debye]:    -8.394566    -2.238343    -3.036460 

 

Dipole moment calculation done in   0.0 sec 

Maximum memory used throughout the entire PROP-calculation: 38.1 MB

--------------------------------
SUGGESTED CITATIONS FOR THIS RUN
--------------------------------

Below you find a list of papers that are relevant to this ORCA run
We neither can nor want to force you to cite these papers, but we appreciate if you do
You receive ORCA, which is the product of decades of hard work by many enthusiastic individuals, for free
The only thing we kindly ask in return is that you cite our papers,
We deeply appreciate it, if you show your appreciation for ORCA by not just citing the generic ORCA reference.

Please note that relegating all ORCA citations to the supporting information does *not* help us.
SI sections are not indexed - citations you put there will not count into any citation statistics
But we need these citations in order to attract the funding resources that allow us to do what we are doing

Therefore, if you are a happy ORCA user, please consider citing a few of the papers listed below in the main body of your paper

In addition to the list printed below, the program has created the file /home/nmrbox/aojoawo/Documents/ERDOS/inputs/CHEMBL3235963.bibtex that contains the list in bibtex format
You can import this file easily into all common literature databanks and citation aid programs


List of essential papers. We consider these as the minimum necessary citations

  1. Neese,F.
     Software update: the ORCA program system, version 5.0
     WIRES Comput. Molec. Sci., 2022 12(1)e1606
     doi.org/10.1002/wcms.1606

List of papers to cite with high priority. The work reported in these papers was absolutely
necessary for this run to complete.
Our perspective: the developers of density functionals and basis sets usually get cited in chemistry papers
Good! But without the algorithms to do something with them, the functionals or basis sets would not do anything.
Hence, in our opinion, the algorithm design and method developments papers are equally worthy of getting cited

  1. Neese,F.
     An improvement of the resolution of the identity approximation for the formation of the Coulomb matrix
     J. Comp. Chem., 2003 24(14)1740-1747
     doi.org/10.1002/jcc.10318
  2. Neese,F.; Wennmohs,F.; Hansen,A.; Becker,U.
     Efficient, approximate and parallel Hartree-Fock and hybrid DFT calculations. A 'chain-of-spheres' algorithm for the Hartree-Fock exchange
     Chem. Phys., 2009 356(1-3)98-109
     doi.org/10.1016/j.chemphys.2008.10.036
  3. Helmich-Paris,B.; de Souza,B.; Neese,F.; Izsák,R.
     An improved chain of spheres for exchange algorithm
     J. Chem. Phys., 2021 155 104109
     doi.org/doi: 10.1063/5.0058766.
  4. Neese,F.
     The SHARK Integral Generation and Digestion System
     J. Comp. Chem., 2022  1-16
     doi.org/10.1002/jcc.26942

List of suggested additional citations. These are papers that are important in the 'surrounding' of 
of this run, or papers that preceded the highly important papers. If you like your results we are grateful for a citation.

  1. Izsak,R.; Neese,F.
     An overlap fitted chain of spheres exchange method
     J. Chem. Phys., 2011 135 144105
     doi.org/10.1063/1.3646921
  2. Izsak,R.; Hansen,A.; Neese,F.
     The resolution of identity and chain of spheres approximations for the LPNO-CCSD singles Fock term
     Molec. Phys., 2012 110 2413-2417
     doi.org/10.1080/00268976.2012.687466
  3. Neese,F.
     The ORCA program system
     WIRES Comput. Molec. Sci., 2012 2(1)73-78
     doi.org/10.1002/wcms.81
  4. Izsak,R.; Neese,F.; Klopper,W.
     Robust fitting techniques in the chain of spheres approximation to the Fock exchange: The role of the complementary space
     J. Chem. Phys., 2013 139 
     doi.org/10.1063/1.4819264
  5. Neese,F.
     Software update: the ORCA program system, version 4.0
     WIRES Comput. Molec. Sci., 2018 8(1)1-6
     doi.org/10.1002/wcms.1327
  6. Neese,F.; Wennmohs,F.; Becker,U.; Riplinger,C.
     The ORCA quantum chemistry program package
     J. Chem. Phys., 2020 152 Art. No. L224108
     doi.org/10.1063/5.0004608

List of optional additional citations

  1. Neese,F.
     Approximate second-order SCF convergence for spin unrestricted wavefunctions
     Chem. Phys. Lett., 2000 325(1-3)93-98
     doi.org/10.1016/s0009-2614(00)00662-x

Timings for individual modules:

Sum of individual times          ...      316.038 sec (=   5.267 min)
Startup calculation              ...        8.743 sec (=   0.146 min)   2.8 %
SCF iterations                   ...      307.132 sec (=   5.119 min)  97.2 %
Property calculations            ...        0.163 sec (=   0.003 min)   0.1 %
                             ****ORCA TERMINATED NORMALLY****
TOTAL RUN TIME: 0 days 0 hours 5 minutes 16 seconds 694 msec
