
                                 *****************
                                 * O   R   C   A *
                                 *****************

                                            #,                                       
                                            ###                                      
                                            ####                                     
                                            #####                                    
                                            ######                                   
                                           ########,                                 
                                     ,,################,,,,,                         
                               ,,#################################,,                 
                          ,,##########################################,,             
                       ,#########################################, ''#####,          
                    ,#############################################,,   '####,        
                  ,##################################################,,,,####,       
                ,###########''''           ''''###############################       
              ,#####''   ,,,,##########,,,,          '''####'''          '####       
            ,##' ,,,,###########################,,,                        '##       
           ' ,,###''''                  '''############,,,                           
         ,,##''                                '''############,,,,        ,,,,,,###''
      ,#''                                            '''#######################'''  
     '                                                          ''''####''''         
             ,#######,   #######,   ,#######,      ##                                
            ,#'     '#,  ##    ##  ,#'     '#,    #''#        ,####,   ,####,        
            ##       ##  ##   ,#'  ##            #'  '#       #'       #'  '#        
            ##       ##  #######   ##           ,######,      #####,   #    #        
            '#,     ,#'  ##    ##  '#,     ,#' ,#      #,     #,   #   #,  ,#        
             '#######'   ##     ##  '#######'  #'      '#     '####' # '####'        



                #########################################################
                #                        -***-                          #
                #          Department of theory and spectroscopy        #
                #                                                       #
                #                      Frank Neese                      #
                #                                                       #
                #     Directorship, Architecture, Infrastructure        #
                #                    SHARK, DRIVERS                     #
                #        Core code/Algorithms in most modules           #
                #                                                       #
                #        Max Planck Institute fuer Kohlenforschung      #
                #                Kaiser Wilhelm Platz 1                 #
                #                 D-45470 Muelheim/Ruhr                 #
                #                      Germany                          #
                #                                                       #
                #                  All rights reserved                  #
                #                        -***-                          #
                #########################################################


                         Program Version 6.0.0  -   RELEASE  -


 With contributions from (in alphabetic order):
   Daniel Aravena         : Magnetic Suceptibility
   Michael Atanasov       : Ab Initio Ligand Field Theory (pilot matlab implementation)
   Alexander A. Auer      : GIAO ZORA, VPT2 properties, NMR spectrum
   Ute Becker             : All parallelization in ORCA, NUMFREQ, NUMCALC
   Giovanni Bistoni       : ED, misc. LED, open-shell LED, HFLD
   Martin Brehm           : Molecular dynamics
   Dmytro Bykov           : pre 5.0 version of the SCF Hessian
   Marcos Casanova-Páez   : Triplet and SCS-CIS(D). UHF-(DLPNO)-IP/EA/STEOM-CCSD. UHF-CVS-IP/STEOM-CCSD
   Vijay G. Chilkuri      : MRCI spin determinant printing, contributions to CSF-ICE
   Pauline Colinet        : FMM embedding
   Dipayan Datta          : RHF DLPNO-CCSD density
   Achintya Kumar Dutta   : EOM-CC, STEOM-CC
   Nicolas Foglia         : Exact transition moments, OPA infrastructure, MCD improvements
   Dmitry Ganyushin       : Spin-Orbit,Spin-Spin,Magnetic field MRCI
   Miquel Garcia          : C-PCM and meta-GGA Hessian, CCSD/C-PCM, Gaussian charge scheme
   Tiago L. C. Gouveia    : GS-ROHF, GS-ROCIS
   Yang Guo               : DLPNO-NEVPT2, F12-NEVPT2, CIM, IAO-localization
   Andreas Hansen         : Spin unrestricted coupled pair/coupled cluster methods
   Ingolf Harden          : AUTO-CI MPn and infrastructure 
   Benjamin Helmich-Paris : MC-RPA, TRAH-(SCF,CASSCF), AVAS, COSX integrals, SCF dyn. polar.
   Lee Huntington         : MR-EOM, pCC
   Robert Izsak           : Overlap fitted RIJCOSX, COSX-SCS-MP3, EOM
   Riya Kayal             : Wick's Theorem for AUTO-CI, AUTO-CI UHF-CCSDT
   Emily Kempfer          : AUTO-CI, RHF CISDT and CCSDT
   Christian Kollmar      : KDIIS, OOCD, Brueckner-CCSD(T), CCSD density, CASPT2, CASPT2-K, improved NEVPT2
   Axel Koslowski         : Symmetry handling
   Simone Kossmann        : Meta GGA functionals, TD-DFT gradient, OOMP2, (MP2 Hessian; deprecated post 5.0)
   Lucas Lang             : DCDCAS
   Marvin Lechner         : AUTO-CI (C++ implementation), FIC-MRCC
   Spencer Leger          : CASSCF response
   Dagmar Lenk            : GEPOL surface, SMD, ORCA-2-JSON
   Dimitrios Liakos       : Extrapolation schemes; Compound Job, initial MDCI parallelization
   Dimitrios Manganas     : Further ROCIS development; embedding schemes. LFT, Crystal Embedding
   Dimitrios Pantazis     : SARC Basis sets
   Anastasios Papadopoulos: AUTO-CI, single reference methods and gradients
   Taras Petrenko         : pre 6.0 DFT Hessian and TD-DFT gradient, (ASA, deprecated), ECA, 1-Electron XAS/XES, NRVS
   Peter Pinski           : DLPNO-MP2, DLPNO-MP2 Gradient
   Christoph Reimann      : Effective Core Potentials
   Marius Retegan         : Local ZFS, SOC
   Christoph Riplinger    : Optimizer, TS searches, QM/MM, DLPNO-CCSD(T), (RO)-DLPNO pert. Triples
   Michael Roemelt        : Original ROCIS implementation
   Masaaki Saitow         : Open-shell DLPNO-CCSD energy and density
   Barbara Sandhoefer     : DKH picture change effects
   Kantharuban Sivalingam : CASSCF convergence/infrastructure, NEVPT2 and variants, FIC-MRCI
   Bernardo de Souza      : ESD, SOC TD-DFT
   Georgi Stoychev        : AutoAux, RI-MP2 NMR, DLPNO-MP2 response, X2C
   Van Anh Tran           : RI-MP2 g-tensors
   Willem Van den Heuvel  : Paramagnetic NMR
   Zikuan Wang            : NOTCH, Electric field optimization 
   Frank Wennmohs         : Technical directorship and infrastructure
   Hang Xu                : AUTO-CI-Response properties 


 We gratefully acknowledge several colleagues who have allowed us to
 interface, adapt or use parts of their codes:
   Stefan Grimme, W. Hujo, H. Kruse, P. Pracht,  : VdW corrections, initial TS optimization,
                  C. Bannwarth, S. Ehlert,         DFT functionals, gCP, sTDA/sTD-DF
                  L. Wittmann, M. Mueller
   Ed Valeev, F. Pavosevic, A. Kumar             : LibInt (2-el integral package), F12 methods
   Garnet Chan, S. Sharma, J. Yang, R. Olivares  : DMRG
   Ulf Ekstrom                                   : XCFun DFT Library
   Mihaly Kallay                                 : mrcc  (arbitrary order and MRCC methods)
   Frank Weinhold                                : gennbo (NPA and NBO analysis)
   Simon Mueller                                 : openCOSMO-RS
   Christopher J. Cramer and Donald G. Truhlar   : smd solvation model
   Lars Goerigk                                  : TD-DFT with DH, B97 family of functionals
   V. Asgeirsson, H. Jonsson                     : NEB implementation
   FAccTs GmbH                                   : IRC, NEB, NEB-TS, DLPNO-Multilevel, CI-OPT
                                                   MM, QMMM, 2- and 3-layer-ONIOM, Crystal-QMMM,
                                                   LR-CPCM, SF, NACMEs, symmetry and pop. for TD-DFT,
                                                   nearIR, NL-DFT gradient (VV10), updates on ESD,
                                                   ML-optimized integration grids, MBIS, APM,
                                                   GOAT, DOCKER, SOLVATOR, interface openCOSMO-RS
   S Lehtola, MJT Oliveira, MAL Marques          : LibXC Library
   Liviu Ungur et al                             : ANISO software


 Your calculation uses the libint2 library for the computation of 2-el integrals
 For citations please refer to: http://libint.valeyev.net

 Your ORCA version has been built with support for libXC version: 6.2.2
 For citations please refer to: https://libxc.gitlab.io

 This ORCA versions uses:
   CBLAS   interface :  Fast vector & matrix operations
   LAPACKE interface :  Fast linear algebra routines
   SCALAPACK package :  Parallel linear algebra routines
   Shared memory     :  Shared parallel matrices
   BLAS/LAPACK       :  OpenBLAS 0.3.27  USE64BITINT DYNAMIC_ARCH NO_AFFINITY SkylakeX SINGLE_THREADED
        Core in use  :  SkylakeX
   Copyright (c) 2011-2014, The OpenBLAS Project


Warning: RI is on but no J-basis has been assigned. Assigning Def2/J (nothing to worry about!)
================================================================================

----- Orbital basis set information -----
Your calculation utilizes the basis: 6-31G*
   H-He, Li-Ne : W. J. Hehre, R. Ditchfield and J.A. Pople, J. Chem. Phys. 56, 2257 (1972).
                 Note: He and Ne are unpublished basis sets taken from the Gaussian program.
                 Note: Li and B from J. D. Dill and J. A. Pople, J. Chem. Phys. 62, 2921 (1975).
   Na - Ar     : M. M. Francl, W. J. Pietro, W. J. Hehre, J. S. Binkley, M. S. Gordon, 
                 D. J. DeFrees and J. A. Pople, J. Chem. Phys. 77, 3654 (1982).
   K - Zn      : V. A. Rassolov, J. A. Pople, M. A. Ratner, and T. L. Windus, J. Chem. Phys. 109, 1223 (1998).

----- AuxJ basis set information -----
Your calculation utilizes the auxiliary basis: def2/J
   F. Weigend, Phys. Chem. Chem. Phys. 8, 1057 (2006).

================================================================================
                                        WARNINGS
                       Please study these warnings very carefully!
================================================================================


================================================================================
                                       INPUT FILE
================================================================================
NAME = /home/nmrbox/aojoawo/Documents/ERDOS/inputs/CHEMBL3959823.inp
|  1> ! B3LYP 6-31G* SP
|  2> 
|  3> * xyz 0 1
|  4> C 4.5122 -0.4495 -1.4857
|  5> C 3.5092 -1.2253 -0.6842
|  6> C 3.5818 -2.6256 -0.6327
|  7> C 2.6731 -3.3482 0.1424
|  8> C 1.6860 -2.6811 0.8709
|  9> C 1.5926 -1.2801 0.8231
| 10> C 0.5181 -0.5725 1.6118
| 11> N -0.1220 0.5076 0.8353
| 12> C 0.0859 1.8649 1.2887
| 13> O 1.2477 2.2445 1.6010
| 14> C -1.0308 2.8274 1.3927
| 15> C -2.2722 2.4295 1.9168
| 16> C -3.3225 3.3476 2.0158
| 17> C -3.1380 4.6711 1.6062
| 18> C -1.9001 5.0800 1.1036
| 19> C -0.8473 4.1643 1.0022
| 20> C -1.0796 0.2410 -0.2726
| 21> C -0.8300 1.1644 -1.4448
| 22> N -1.9194 1.6113 -2.2523
| 23> O 0.3453 1.5162 -1.7383
| 24> C -1.1045 -1.2152 -0.7231
| 25> C -1.9986 -2.1111 -0.1077
| 26> C -2.0172 -3.4604 -0.4726
| 27> C -1.1447 -3.9333 -1.4544
| 28> C -0.2504 -3.0582 -2.0732
| 29> C -0.2255 -1.7082 -1.7115
| 30> C 2.5300 -0.5555 0.0661
| 31> H 4.7540 -0.9876 -2.4268
| 32> H 4.1150 0.5520 -1.7554
| 33> H 5.4407 -0.3213 -0.8905
| 34> H 4.3438 -3.1559 -1.1901
| 35> H 2.7329 -4.4289 0.1778
| 36> H 0.9860 -3.2588 1.4605
| 37> H 0.9842 -0.1704 2.5381
| 38> H -0.2637 -1.2851 1.9531
| 39> H -2.4236 1.4145 2.2623
| 40> H -4.2778 3.0344 2.4160
| 41> H -3.9519 5.3808 1.6841
| 42> H -1.7564 6.1062 0.7917
| 43> H 0.1049 4.4943 0.6061
| 44> H -2.0979 0.4806 0.0972
| 45> H -1.7464 2.2351 -3.0705
| 46> H -2.8979 1.3134 -2.0430
| 47> H -2.6753 -1.7662 0.6645
| 48> H -2.7069 -4.1409 0.0100
| 49> H -1.1587 -4.9792 -1.7327
| 50> H 0.4320 -3.4282 -2.8270
| 51> H 0.4948 -1.0594 -2.1900
| 52> H 2.4889 0.5254 0.0435
| 53> *
| 54> 
| 55>                          ****END OF INPUT****
================================================================================

                       ****************************
                       * Single Point Calculation *
                       ****************************

---------------------------------
CARTESIAN COORDINATES (ANGSTROEM)
---------------------------------
  C      4.512200   -0.449500   -1.485700
  C      3.509200   -1.225300   -0.684200
  C      3.581800   -2.625600   -0.632700
  C      2.673100   -3.348200    0.142400
  C      1.686000   -2.681100    0.870900
  C      1.592600   -1.280100    0.823100
  C      0.518100   -0.572500    1.611800
  N     -0.122000    0.507600    0.835300
  C      0.085900    1.864900    1.288700
  O      1.247700    2.244500    1.601000
  C     -1.030800    2.827400    1.392700
  C     -2.272200    2.429500    1.916800
  C     -3.322500    3.347600    2.015800
  C     -3.138000    4.671100    1.606200
  C     -1.900100    5.080000    1.103600
  C     -0.847300    4.164300    1.002200
  C     -1.079600    0.241000   -0.272600
  C     -0.830000    1.164400   -1.444800
  N     -1.919400    1.611300   -2.252300
  O      0.345300    1.516200   -1.738300
  C     -1.104500   -1.215200   -0.723100
  C     -1.998600   -2.111100   -0.107700
  C     -2.017200   -3.460400   -0.472600
  C     -1.144700   -3.933300   -1.454400
  C     -0.250400   -3.058200   -2.073200
  C     -0.225500   -1.708200   -1.711500
  C      2.530000   -0.555500    0.066100
  H      4.754000   -0.987600   -2.426800
  H      4.115000    0.552000   -1.755400
  H      5.440700   -0.321300   -0.890500
  H      4.343800   -3.155900   -1.190100
  H      2.732900   -4.428900    0.177800
  H      0.986000   -3.258800    1.460500
  H      0.984200   -0.170400    2.538100
  H     -0.263700   -1.285100    1.953100
  H     -2.423600    1.414500    2.262300
  H     -4.277800    3.034400    2.416000
  H     -3.951900    5.380800    1.684100
  H     -1.756400    6.106200    0.791700
  H      0.104900    4.494300    0.606100
  H     -2.097900    0.480600    0.097200
  H     -1.746400    2.235100   -3.070500
  H     -2.897900    1.313400   -2.043000
  H     -2.675300   -1.766200    0.664500
  H     -2.706900   -4.140900    0.010000
  H     -1.158700   -4.979200   -1.732700
  H      0.432000   -3.428200   -2.827000
  H      0.494800   -1.059400   -2.190000
  H      2.488900    0.525400    0.043500

----------------------------
CARTESIAN COORDINATES (A.U.)
----------------------------
  NO LB      ZA    FRAG     MASS         X           Y           Z
   0 C     6.0000    0    12.011    8.526822   -0.849432   -2.807566
   1 C     6.0000    0    12.011    6.631427   -2.315481   -1.292951
   2 C     6.0000    0    12.011    6.768621   -4.961665   -1.195630
   3 C     6.0000    0    12.011    5.051427   -6.327181    0.269097
   4 C     6.0000    0    12.011    3.186078   -5.066545    1.645762
   5 C     6.0000    0    12.011    3.009578   -2.419038    1.555434
   6 C     6.0000    0    12.011    0.979067   -1.081868    3.045861
   7 N     7.0000    0    14.007   -0.230547    0.959225    1.578488
   8 C     6.0000    0    12.011    0.162327    3.524150    2.435290
   9 O     8.0000    0    15.999    2.357811    4.241490    3.025452
  10 C     6.0000    0    12.011   -1.947930    5.343012    2.631822
  11 C     6.0000    0    12.011   -4.293836    4.591090    3.622227
  12 C     6.0000    0    12.011   -6.278615    6.326047    3.809310
  13 C     6.0000    0    12.011   -5.929961    8.827100    3.035278
  14 C     6.0000    0    12.011   -3.590669    9.599809    2.085502
  15 C     6.0000    0    12.011   -1.601165    7.869387    1.893884
  16 C     6.0000    0    12.011   -2.040148    0.455424   -0.515139
  17 C     6.0000    0    12.011   -1.568473    2.200397   -2.730276
  18 N     7.0000    0    14.007   -3.627140    3.044916   -4.256230
  19 O     8.0000    0    15.999    0.652522    2.865203   -3.284911
  20 C     6.0000    0    12.011   -2.087203   -2.296395   -1.366461
  21 C     6.0000    0    12.011   -3.776807   -3.989401   -0.203524
  22 C     6.0000    0    12.011   -3.811956   -6.539208   -0.893085
  23 C     6.0000    0    12.011   -2.163170   -7.432860   -2.748418
  24 C     6.0000    0    12.011   -0.473187   -5.779160   -3.917780
  25 C     6.0000    0    12.011   -0.426133   -3.228030   -3.234266
  26 C     6.0000    0    12.011    4.781007   -1.049743    0.124911
  27 H     1.0000    0     1.008    8.983758   -1.866294   -4.585987
  28 H     1.0000    0     1.008    7.776223    1.043129   -3.317225
  29 H     1.0000    0     1.008   10.281433   -0.607169   -1.682801
  30 H     1.0000    0     1.008    8.208592   -5.963787   -2.248963
  31 H     1.0000    0     1.008    5.164433   -8.369408    0.335993
  32 H     1.0000    0     1.008    1.863270   -6.158240    2.759945
  33 H     1.0000    0     1.008    1.859868   -0.322009    4.796314
  34 H     1.0000    0     1.008   -0.498321   -2.428487    3.690824
  35 H     1.0000    0     1.008   -4.579940    2.673018    4.275127
  36 H     1.0000    0     1.008   -8.083870    5.734185    4.565578
  37 H     1.0000    0     1.008   -7.468009   10.168238    3.182488
  38 H     1.0000    0     1.008   -3.319115   11.539046    1.496096
  39 H     1.0000    0     1.008    0.198232    8.492996    1.145363
  40 H     1.0000    0     1.008   -3.964456    0.908202    0.183681
  41 H     1.0000    0     1.008   -3.300218    4.223727   -5.802404
  42 H     1.0000    0     1.008   -5.476237    2.481966   -3.860710
  43 H     1.0000    0     1.008   -5.055584   -3.337634    1.255723
  44 H     1.0000    0     1.008   -5.115300   -7.825167    0.018897
  45 H     1.0000    0     1.008   -2.189626   -9.409324   -3.274328
  46 H     1.0000    0     1.008    0.816362   -6.478359   -5.342256
  47 H     1.0000    0     1.008    0.935036   -2.001976   -4.138500
  48 H     1.0000    0     1.008    4.703339    0.992862    0.082203

--------------------------------
INTERNAL COORDINATES (ANGSTROEM)
--------------------------------
 C      0   0   0     0.000000000000     0.00000000     0.00000000
 C      1   0   0     1.500092293827     0.00000000     0.00000000
 C      2   1   0     1.403126188195   120.07555448     0.00000000
 C      3   2   1     1.395946438801   120.21838579   178.19129100
 C      4   3   2     1.396460192773   120.16643392     0.00000000
 C      5   4   3     1.404923271926   120.37232307     0.45072955
 C      6   5   4     1.509071138151   119.81112026   179.79778927
 N      7   6   5     1.476243973739   112.14176493   222.87603370
 C      8   7   6     1.446048844265   117.35405004   246.46991174
 O      9   8   7     1.261509686844   119.50305967    46.13510471
 C      9   8   7     1.477917839394   121.64914669   225.91805525
 C     11   9   8     1.405019281006   120.62478202    42.13997720
 C     12  11   9     1.398513031759   120.26795317   179.79310300
 C     13  12  11     1.397664001110   120.11680578   359.33216153
 C     14  13  12     1.397212360380   119.96680276   359.65367272
 C     15  14  13     1.398991168664   120.08299787     0.38840329
 C      8   7   6     1.488460859411   122.64431806    73.75190104
 C     17   8   7     1.512950944347   111.17593069   221.54099191
 N     18  17   8     1.427784374477   120.22140087   213.23411816
 O     18  17   8     1.261441865486   120.27764116    35.16469494
 C     17   8   7     1.524496211868   113.67505015   347.52578267
 C     21  17   8     1.407397875514   119.28865002    90.05883727
 C     22  21  17     1.397894295002   120.58051055   181.85839444
 C     23  22  21     1.396002113179   120.14869245     0.03723579
 C     24  23  22     1.395881778662   119.98821427     0.05254715
 C     25  24  23     1.397836506892   120.14338903     0.03796803
 C      2   1   3     1.403714632680   120.34689387   177.14874423
 H      1   2   3     1.110715111989   110.34780002    38.16680324
 H      1   2   3     1.110634134177   110.91443049   157.80305654
 H      1   2   3     1.110320012429   109.41635762   278.05126336
 H      3   2   1     1.082846641958   120.41492874   358.39183112
 H      4   3   2     1.082931987707   119.91926865   179.93485466
 H      5   4   3     1.082296378078   119.10305921   179.56694637
 H      7   6   5     1.112189421816   107.84315869   100.60493504
 H      7   6   5     1.111528537645   111.14180942   345.16857753
 H     12  11   9     1.082828338196   120.53177378     0.71165750
 H     13  12  11     1.082059319076   119.94691435   179.71758838
 H     14  13  12     1.082670637821   120.02670296   180.04053966
 H     15  14  13     1.082135730858   119.92448835   180.33277044
 H     16  15  14     1.082811179292   119.26192623   179.69127038
 H     17   8   7     1.109547245502   107.67921945   105.67917749
 H     19  18  17     1.043315235200   120.27538747   181.03534665
 H     19  18  17     1.044036948580   120.82483851     0.35792625
 H     22  21  17     1.083130527684   120.39380329     1.16606717
 H     23  22  21     1.082436649416   119.92833333   179.79059598
 H     24  23  22     1.082383342444   120.00531272   179.78710182
 H     25  24  23     1.082027818496   119.90119875   179.39350675
 H     26  25  24     1.081080838791   118.48584929   178.47804602
 H     27   2   1     1.081917177976   119.47529707     1.45466800

---------------------------
INTERNAL COORDINATES (A.U.)
---------------------------
 C      0   0   0     0.000000000000     0.00000000     0.00000000
 C      1   0   0     2.834763610939     0.00000000     0.00000000
 C      2   1   0     2.651524227022   120.07555448     0.00000000
 C      3   2   1     2.637956466956   120.21838579   178.19129100
 C      4   3   2     2.638927321264   120.16643392     0.00000000
 C      5   4   3     2.654920223113   120.37232307     0.45072955
 C      6   5   4     2.851731167710   119.81112026   179.79778927
 N      7   6   5     2.789696817218   112.14176493   222.87603370
 C      8   7   6     2.732636291934   117.35405004   246.46991174
 O      9   8   7     2.383907823423   119.50305967    46.13510471
 C      9   8   7     2.792859964892   121.64914669   225.91805525
 C     11   9   8     2.655101653981   120.62478202    42.13997720
 C     12  11   9     2.642806624745   120.26795317   179.79310300
 C     13  12  11     2.641202189339   120.11680578   359.33216153
 C     14  13  12     2.640348712049   119.96680276   359.65367272
 C     15  14  13     2.643710172549   120.08299787     0.38840329
 C      8   7   6     2.812783385349   122.64431806    73.75190104
 C     17   8   7     2.859062938873   111.17593069   221.54099191
 N     18  17   8     2.698121446053   120.22140087   213.23411816
 O     18  17   8     2.383779659631   120.27764116    35.16469494
 C     17   8   7     2.880880332631   113.67505015   347.52578267
 C     21  17   8     2.659596546183   119.28865002    90.05883727
 C     22  21  17     2.641637381725   120.58051055   181.85839444
 C     23  22  21     2.638061676283   120.14869245     0.03723579
 C     24  23  22     2.637834277002   119.98821427     0.05254715
 C     25  24  23     2.641528178023   120.14338903     0.03796803
 C      2   1   3     2.652636225943   120.34689387   177.14874423
 H      1   2   3     2.098947374466   110.34780002    38.16680324
 H      1   2   3     2.098794348580   110.91443049   157.80305654
 H      1   2   3     2.098200744503   109.41635762   278.05126336
 H      3   2   1     2.046283598337   120.41492874   358.39183112
 H      4   3   2     2.046444878430   119.91926865   179.93485466
 H      5   4   3     2.045243750302   119.10305921   179.56694637
 H      7   6   5     2.101733416277   107.84315869   100.60493504
 H      7   6   5     2.100484526188   111.14180942   345.16857753
 H     12  11   9     2.046249009239   120.53177378     0.71165750
 H     13  12  11     2.044795773712   119.94691435   179.71758838
 H     14  13  12     2.045950998720   120.02670296   180.04053966
 H     15  14  13     2.044940171053   119.92448835   180.33277044
 H     16  15  14     2.046216583610   119.26192623   179.69127038
 H     17   8   7     2.096740426645   107.67921945   105.67917749
 H     19  18  17     1.971580065875   120.27538747   181.03534665
 H     19  18  17     1.972943906511   120.82483851     0.35792625
 H     22  21  17     2.046820064611   120.39380329     1.16606717
 H     23  22  21     2.045508824716   119.92833333   179.79059598
 H     24  23  22     2.045408089137   120.00531272   179.78710182
 H     25  24  23     2.044736246242   119.90119875   179.39350675
 H     26  25  24     2.042946713944   118.48584929   178.47804602
 H     27   2   1     2.044527165960   119.47529707     1.45466800

---------------------
BASIS SET INFORMATION
---------------------
There are 4 groups of distinct atoms

 Group   1 Type C   : 10s4p1d contracted to 3s2p1d pattern {631/31/1}
 Group   2 Type N   : 10s4p1d contracted to 3s2p1d pattern {631/31/1}
 Group   3 Type O   : 10s4p1d contracted to 3s2p1d pattern {631/31/1}
 Group   4 Type H   : 4s contracted to 2s pattern {31}

Atom   0C    basis set group =>   1
Atom   1C    basis set group =>   1
Atom   2C    basis set group =>   1
Atom   3C    basis set group =>   1
Atom   4C    basis set group =>   1
Atom   5C    basis set group =>   1
Atom   6C    basis set group =>   1
Atom   7N    basis set group =>   2
Atom   8C    basis set group =>   1
Atom   9O    basis set group =>   3
Atom  10C    basis set group =>   1
Atom  11C    basis set group =>   1
Atom  12C    basis set group =>   1
Atom  13C    basis set group =>   1
Atom  14C    basis set group =>   1
Atom  15C    basis set group =>   1
Atom  16C    basis set group =>   1
Atom  17C    basis set group =>   1
Atom  18N    basis set group =>   2
Atom  19O    basis set group =>   3
Atom  20C    basis set group =>   1
Atom  21C    basis set group =>   1
Atom  22C    basis set group =>   1
Atom  23C    basis set group =>   1
Atom  24C    basis set group =>   1
Atom  25C    basis set group =>   1
Atom  26C    basis set group =>   1
Atom  27H    basis set group =>   4
Atom  28H    basis set group =>   4
Atom  29H    basis set group =>   4
Atom  30H    basis set group =>   4
Atom  31H    basis set group =>   4
Atom  32H    basis set group =>   4
Atom  33H    basis set group =>   4
Atom  34H    basis set group =>   4
Atom  35H    basis set group =>   4
Atom  36H    basis set group =>   4
Atom  37H    basis set group =>   4
Atom  38H    basis set group =>   4
Atom  39H    basis set group =>   4
Atom  40H    basis set group =>   4
Atom  41H    basis set group =>   4
Atom  42H    basis set group =>   4
Atom  43H    basis set group =>   4
Atom  44H    basis set group =>   4
Atom  45H    basis set group =>   4
Atom  46H    basis set group =>   4
Atom  47H    basis set group =>   4
Atom  48H    basis set group =>   4
---------------------------------
AUXILIARY/J BASIS SET INFORMATION
---------------------------------
There are 4 groups of distinct atoms

 Group   1 Type C   : 12s5p4d2f1g contracted to 6s4p3d1f1g pattern {711111/2111/211/2/1}
 Group   2 Type N   : 12s5p4d2f1g contracted to 6s4p3d1f1g pattern {711111/2111/211/2/1}
 Group   3 Type O   : 12s5p4d2f1g contracted to 6s4p3d1f1g pattern {711111/2111/211/2/1}
 Group   4 Type H   : 5s2p1d contracted to 3s1p1d pattern {311/2/1}

Atom   0C    basis set group =>   1
Atom   1C    basis set group =>   1
Atom   2C    basis set group =>   1
Atom   3C    basis set group =>   1
Atom   4C    basis set group =>   1
Atom   5C    basis set group =>   1
Atom   6C    basis set group =>   1
Atom   7N    basis set group =>   2
Atom   8C    basis set group =>   1
Atom   9O    basis set group =>   3
Atom  10C    basis set group =>   1
Atom  11C    basis set group =>   1
Atom  12C    basis set group =>   1
Atom  13C    basis set group =>   1
Atom  14C    basis set group =>   1
Atom  15C    basis set group =>   1
Atom  16C    basis set group =>   1
Atom  17C    basis set group =>   1
Atom  18N    basis set group =>   2
Atom  19O    basis set group =>   3
Atom  20C    basis set group =>   1
Atom  21C    basis set group =>   1
Atom  22C    basis set group =>   1
Atom  23C    basis set group =>   1
Atom  24C    basis set group =>   1
Atom  25C    basis set group =>   1
Atom  26C    basis set group =>   1
Atom  27H    basis set group =>   4
Atom  28H    basis set group =>   4
Atom  29H    basis set group =>   4
Atom  30H    basis set group =>   4
Atom  31H    basis set group =>   4
Atom  32H    basis set group =>   4
Atom  33H    basis set group =>   4
Atom  34H    basis set group =>   4
Atom  35H    basis set group =>   4
Atom  36H    basis set group =>   4
Atom  37H    basis set group =>   4
Atom  38H    basis set group =>   4
Atom  39H    basis set group =>   4
Atom  40H    basis set group =>   4
Atom  41H    basis set group =>   4
Atom  42H    basis set group =>   4
Atom  43H    basis set group =>   4
Atom  44H    basis set group =>   4
Atom  45H    basis set group =>   4
Atom  46H    basis set group =>   4
Atom  47H    basis set group =>   4
Atom  48H    basis set group =>   4
------------------------------------------------------------------------------
                             ORCA STARTUP CALCULATIONS
                           -- RI-GTO INTEGRALS CHOSEN --
------------------------------------------------------------------------------
------------------------------------------------------------------------------
                   ___                                                        
                  /   \      - P O W E R E D   B Y -                         
                 /     \                                                     
                 |  |  |   _    _      __       _____    __    __             
                 |  |  |  | |  | |    /  \     |  _  \  |  |  /  |          
                  \  \/   | |  | |   /    \    | | | |  |  | /  /          
                 / \  \   | |__| |  /  /\  \   | |_| |  |  |/  /          
                |  |  |   |  __  | /  /__\  \  |    /   |      \           
                |  |  |   | |  | | |   __   |  |    \   |  |\   \          
                \     /   | |  | | |  |  |  |  | |\  \  |  | \   \       
                 \___/    |_|  |_| |__|  |__|  |_| \__\ |__|  \__/        
                                                                              
                      - O R C A' S   B I G   F R I E N D -                    
                                      &                                       
                       - I N T E G R A L  F E E D E R -                       
                                                                              
 v1 FN, 2020, v2 2021, v3 2022-2024                                           
------------------------------------------------------------------------------


----------------------
SHARK INTEGRAL PACKAGE
----------------------

Number of atoms                             ...     49
Number of basis functions                   ...    422
Number of shells                            ...    206
Maximum angular momentum                    ...      2
Integral batch strategy                     ... SHARK/LIBINT Hybrid
RI-J (if used) integral strategy            ... SPLIT-RIJ (Revised 2003 algorithm where possible)
Printlevel                                  ...      1
Contraction scheme used                     ... SEGMENTED contraction
Prescreening option                         ... SCHWARTZ
   Thresh                                   ... 1.000e-10
   Tcut                                     ... 1.000e-11
   Tpresel                                  ... 1.000e-11 
Coulomb Range Separation                    ... NOT USED
Exchange Range Separation                   ... NOT USED
Multipole approximations                    ... NOT USED
Finite Nucleus Model                        ... NOT USED
CABS basis                                  ... NOT available
Auxiliary Coulomb fitting basis             ... AVAILABLE
   # of basis functions in Aux-J            ...   1565
   # of shells in Aux-J                     ...    515
   Maximum angular momentum in Aux-J        ...      4
Auxiliary J/K fitting basis                 ... NOT available
Auxiliary Correlation fitting basis         ... NOT available
Auxiliary 'external' fitting basis          ... NOT available

Checking pre-screening integrals            ... done (  0.0 sec) Dimension = 206
Check shell pair data                       ... done (  0.0 sec)
Shell pair information
Shell pair cut-off parameter TPreSel        ...   1.0e-11
Total number of shell pairs                 ...     21321
Shell pairs after pre-screening             ...     14962
Total number of primitive shell pairs       ...    122404
Primitive shell pairs kept                  ...     45006
          la=0 lb=0:   5135 shell pairs
          la=1 lb=0:   5185 shell pairs
          la=1 lb=1:   1285 shell pairs
          la=2 lb=0:   2039 shell pairs
          la=2 lb=1:   1104 shell pairs
          la=2 lb=2:    214 shell pairs

Calculating one electron integrals          ... done (  0.2 sec)
Calculating RI/J V-Matrix + Cholesky decomp.... done (  0.3 sec)
Calculating Nuclear repulsion               ... done (  0.0 sec) ENN=   2445.848956157551 Eh

Diagonalization of the overlap matrix:
Smallest eigenvalue                        ... 4.472e-04
Time for diagonalization                   ...    0.029 sec
Threshold for overlap eigenvalues          ... 1.000e-07
Number of eigenvalues below threshold      ... 0
Time for construction of square roots      ...    0.031 sec
Total time needed                          ...    0.072 sec

-------------------
DFT GRID GENERATION
-------------------

General Integration Accuracy     IntAcc      ... 4.388
Radial Grid Type                 RadialGrid  ... OptM3 with GC (2021)
Angular Grid (max. ang.)         AngularGrid ... 4 (Lebedev-302)
Angular grid pruning method      GridPruning ... 4 (adaptive)
Weight generation scheme         WeightScheme... mBecke (2022)
Basis function cutoff            BFCut       ... 1.0000e-10
Integration weight cutoff        WCut        ... 1.0000e-14
Partially contracted basis set               ... off
Rotationally invariant grid construction     ... off
Angular grids for H and He will be reduced by one unit

Total number of grid points                  ...   230424
Total number of batches                      ...     3624
Average number of points per batch           ...       63
Average number of grid points per atom       ...     4703

--------------------
COSX GRID GENERATION
--------------------

GRIDX 1
-------
General Integration Accuracy     IntAcc      ... 3.816
Radial Grid Type                 RadialGrid  ... OptM3 with GC (2021)
Angular Grid (max. ang.)         AngularGrid ... 1 (Lebedev-50)
Angular grid pruning method      GridPruning ... 4 (adaptive)
Weight generation scheme         WeightScheme... mBecke (2022)
Basis function cutoff            BFCut       ... 1.0000e-10
Integration weight cutoff        WCut        ... 1.0000e-14
Partially contracted basis set               ... on
Rotationally invariant grid construction     ... off
Angular grids for H and He will be reduced by one unit

Total number of grid points                  ...    29205
Total number of batches                      ...      253
Average number of points per batch           ...      115
Average number of grid points per atom       ...      596
UseSFitting                                  ... on

GRIDX 2
-------
General Integration Accuracy     IntAcc      ... 4.020
Radial Grid Type                 RadialGrid  ... OptM3 with GC (2021)
Angular Grid (max. ang.)         AngularGrid ... 2 (Lebedev-110)
Angular grid pruning method      GridPruning ... 4 (adaptive)
Weight generation scheme         WeightScheme... mBecke (2022)
Basis function cutoff            BFCut       ... 1.0000e-10
Integration weight cutoff        WCut        ... 1.0000e-14
Partially contracted basis set               ... on
Rotationally invariant grid construction     ... off
Angular grids for H and He will be reduced by one unit

Total number of grid points                  ...    62892
Total number of batches                      ...      521
Average number of points per batch           ...      120
Average number of grid points per atom       ...     1284
UseSFitting                                  ... on

GRIDX 3
-------
General Integration Accuracy     IntAcc      ... 4.338
Radial Grid Type                 RadialGrid  ... OptM3 with GC (2021)
Angular Grid (max. ang.)         AngularGrid ... 3 (Lebedev-194)
Angular grid pruning method      GridPruning ... 4 (adaptive)
Weight generation scheme         WeightScheme... mBecke (2022)
Basis function cutoff            BFCut       ... 1.0000e-10
Integration weight cutoff        WCut        ... 1.0000e-14
Partially contracted basis set               ... on
Rotationally invariant grid construction     ... off
Angular grids for H and He will be reduced by one unit

Total number of grid points                  ...   137141
Total number of batches                      ...     1092
Average number of points per batch           ...      125
Average number of grid points per atom       ...     2799
UseSFitting                                  ... on
Initializing property integral containers    ... done (  0.0 sec)

SHARK setup successfully completed in  13.0 seconds

Maximum memory used throughout the entire STARTUP-calculation: 100.5 MB
-------------------------------------------------------------------------------
                                 ORCA GUESS
                   Start orbitals & Density for SCF / CASSCF
-------------------------------------------------------------------------------

------------
SCF SETTINGS
------------
Hamiltonian:
 Density Functional     Method          .... DFT(GTOs)
 Exchange Functional    Exchange        .... B88
   X-Alpha parameter    XAlpha          ....  0.666667
   Becke's b parameter  XBeta           ....  0.004200
 Correlation Functional Correlation     .... LYP
 LDA part of GGA corr.  LDAOpt          .... VWN-5
 Gradients option       PostSCFGGA      .... off
 Hybrid DFT is turned on
   Fraction HF Exchange ScalHFX         ....  0.200000
   Scaling of DF-GGA-X  ScalDFX         ....  0.720000
   Scaling of DF-GGA-C  ScalDFC         ....  0.810000
   Scaling of DF-LDA-C  ScalLDAC        ....  1.000000
   Perturbative correction              ....  0.000000
   NL short-range parameter             ....  4.800000
 RI-approximation to the Coulomb term is turned on
   Number of AuxJ basis functions       .... 1565
   RIJ-COSX (HFX calculated with COS-X)).... on


General Settings:
 Integral files         IntName         .... /home/nmrbox/aojoawo/Documents/ERDOS/inputs/CHEMBL3959823
 Hartree-Fock type      HFTyp           .... RHF
 Total Charge           Charge          ....    0
 Multiplicity           Mult            ....    1
 Number of Electrons    NEL             ....  190
 Basis Dimension        Dim             ....  422
 Nuclear Repulsion      ENuc            ....   2445.8489561576 Eh

Convergence Acceleration:
 AO-DIIS                CNVDIIS         .... on
   Start iteration      DIISMaxIt       ....    12
   Startup error        DIISStart       ....  0.200000
   # of expansion vecs  DIISMaxEq       ....     5
   Bias factor          DIISBfac        ....   1.050
   Max. coefficient     DIISMaxC        ....  10.000
 MO-DIIS                CNVKDIIS        .... off
 Trust-Rad. Augm. Hess. CNVTRAH         .... auto
   Auto Start mean grad. ratio tolernc. ....  1.125000
   Auto Start start iteration           ....    50
   Auto Start num. interpolation iter.  ....    10
   Max. Number of Micro iterations      ....    24
   Max. Number of Macro iterations      .... Maxiter - #DIIS iter
   Number of Davidson start vectors     ....     2
   Converg. threshold    (grad. norm)   ....   5.000e-05
   Grad. Scal. Fac. for Micro threshold ....   0.100
   Minimum threshold for Micro iter.    ....   1.000e-02
   NR start threshold (gradient norm)   ....   1.000e-04
   Initial trust radius                 ....   0.400
   Minimum AH scaling param. (alpha)    ....   1.000
   Maximum AH scaling param. (alpha)    .... 1000.000
   Quad. conv. algorithm                .... NR
   White noise on init. David. guess    .... on
   Maximum white noise                  ....   0.010
   Pseudo random numbers                .... off
   Inactive MOs                         .... canonical
   Orbital update algorithm             .... Taylor
   Preconditioner                       .... Diag
   Full preconditioner red. dimension   ....   250
 SOSCF                  CNVSOSCF        .... on
   Start iteration      SOSCFMaxIt      ....   150
   Startup grad/error   SOSCFStart      ....  0.003300
   Hessian update       SOSCFHessUp     .... L-BFGS
 Level Shifting         CNVShift        .... on
   Level shift para.    LevelShift      ....    0.2500
   Turn off err/grad.   ShiftErr        ....    0.0010
 Zerner damping         CNVZerner       .... off
 Static damping         CNVDamp         .... on
   Fraction old density DampFac         ....    0.7000
   Max. Damping (<1)    DampMax         ....    0.9800
   Min. Damping (>=0)   DampMin         ....    0.0000
   Turn off err/grad.   DampErr         ....    0.1000

SCF Procedure:
 Maximum # iterations   MaxIter         ....   125
 SCF integral mode      SCFMode         .... Direct
   Integral package                     .... SHARK and LIBINT hybrid scheme
 Reset frequency        DirectResetFreq ....    20
 Integral Threshold     Thresh          ....  1.000e-10 Eh
 Primitive CutOff       TCut            ....  1.000e-11 Eh

Convergence Tolerance:
 Convergence Check Mode ConvCheckMode   .... Total+1el-Energy
 Convergence forced     ConvForced      .... 0
 Energy Change          TolE            ....  1.000e-06 Eh
 1-El. energy change                    ....  1.000e-03 Eh
 Orbital Gradient       TolG            ....  5.000e-05
 Orbital Rotation angle TolX            ....  5.000e-05
 DIIS Error             TolErr          ....  1.000e-06

------------------------------
INITIAL GUESS: MODEL POTENTIAL
------------------------------
Loading Hartree-Fock densities                     ... done
Calculating cut-offs                               ... done
Initializing the effective Hamiltonian             ... done
Setting up the integral package (SHARK)            ... done
Starting the Coulomb interaction                   ... done (   3.2 sec)
Making the grid                                    ... done (   1.7 sec)
Mapping shells                                     ... done
Starting the XC term evaluation                    ... done (   1.2 sec)
  promolecular density results
     # of electrons  =    189.984908719
     EX              =   -154.226721179
     EC              =     -6.420542286
     EX+EC           =   -160.647263465
Transforming the Hamiltonian                       ... done (   0.0 sec)
Diagonalizing the Hamiltonian                      ... done (   0.0 sec)
Back transforming the eigenvectors                 ... done (   0.0 sec)
Now organizing SCF variables                       ... done
                      ------------------
                      INITIAL GUESS DONE (   6.2 sec)
                      ------------------
             **** ENERGY FILE WAS UPDATED (/home/nmrbox/aojoawo/Documents/ERDOS/inputs/CHEMBL3959823.en.tmp) ****
Finished Guess after   6.5 sec
Maximum memory used throughout the entire GUESS-calculation: 54.7 MB

-------------------------------------------------------------------------------------------
                                      ORCA LEAN-SCF
                              memory conserving SCF solver
-------------------------------------------------------------------------------------------

----------------------------------------D-I-I-S--------------------------------------------
Iteration    Energy (Eh)           Delta-E    RMSDP     MaxDP     DIISErr   Damp  Time(sec)
-------------------------------------------------------------------------------------------
               ***  Starting incremental Fock matrix formation  ***
    1    -1148.2142760935653314     0.00e+00  2.37e-03  1.06e-01  2.75e-01  0.700  59.9
    2    -1148.5410303174808178    -3.27e-01  1.56e-03  5.78e-02  9.96e-02  0.700  27.3
                               ***Turning on AO-DIIS***
    3    -1148.6652257793421086    -1.24e-01  6.48e-04  2.05e-02  3.68e-02  0.700  26.4
    4    -1148.7429287028080580    -7.77e-02  1.04e-03  3.64e-02  1.56e-02  0.000  24.4
    5    -1148.9131299667828898    -1.70e-01  2.57e-04  9.68e-03  7.02e-03  0.000  25.4
                              *** Initializing SOSCF ***
---------------------------------------S-O-S-C-F--------------------------------------
Iteration    Energy (Eh)           Delta-E    RMSDP     MaxDP     MaxGrad    Time(sec)
--------------------------------------------------------------------------------------
    6    -1148.9145063063260750    -1.38e-03  7.89e-05  2.58e-03  2.23e-03    21.9
               *** Restarting incremental Fock matrix formation ***
    7    -1148.9146299576036654    -1.24e-04  5.82e-05  2.86e-03  3.09e-04    60.5
    8    -1148.9146095593468999     2.04e-05  3.10e-05  2.37e-03  6.71e-04    34.9
    9    -1148.9146420754336759    -3.25e-05  1.50e-05  5.62e-04  1.07e-04    29.3
   10    -1148.9146396960140919     2.38e-06  9.36e-06  3.53e-04  1.63e-04    27.0
   11    -1148.9146429334432469    -3.24e-06  3.13e-06  1.10e-04  3.10e-05    24.3
   12    -1148.9146429649276797    -3.15e-08  1.78e-06  6.98e-05  4.79e-05    19.0
                 **** Energy Check signals convergence ****

               *****************************************************
               *                     SUCCESS                       *
               *           SCF CONVERGED AFTER  12 CYCLES          *
               *****************************************************

Recomputing exchange energy using gridx3       ... done (  104.993 sec)
Old exchange energy                            :    -31.339801295 Eh
New exchange energy                            :    -31.339840896 Eh
Exchange energy change after final integration :     -0.000039601 Eh
Total energy after final integration           :  -1148.914682566 Eh
             **** ENERGY FILE WAS UPDATED (/home/nmrbox/aojoawo/Documents/ERDOS/inputs/CHEMBL3959823.en.tmp) ****

----------------
TOTAL SCF ENERGY
----------------

Total Energy       :      -1148.91468256595340 Eh          -31263.55792 eV

Components:
Nuclear Repulsion  :       2445.84895615755067 Eh           66554.93368 eV
Electronic Energy  :      -3594.76359912247835 Eh          -97818.49053 eV
One Electron Energy:      -6424.31025760359444 Eh         -174814.36950 eV
Two Electron Energy:       2829.54665848111608 Eh           76995.87897 eV

Virial components:
Potential Energy   :      -2290.36118554299173 Eh          -62323.89634 eV
Kinetic Energy     :       1141.44650297703834 Eh           31060.33842 eV
Virial Ratio       :          2.00654273290026

DFT components:
N(Alpha)           :       94.999938764048 electrons
N(Beta)            :       94.999938764048 electrons
N(Total)           :      189.999877528096 electrons
E(X)               :     -124.463745044691 Eh       
E(C)               :       -7.567998654447 Eh       
E(XC)              :     -132.031743699138 Eh       

---------------
SCF CONVERGENCE
---------------

  Last Energy change         ...    3.1484e-08  Tolerance :   1.0000e-06
  Last MAX-Density change    ...    6.9829e-05  Tolerance :   1.0000e-05
  Last RMS-Density change    ...    1.7766e-06  Tolerance :   1.0000e-06
  Last DIIS Error            ...    2.2305e-03  Tolerance :   1.0000e-06
  Last Orbital Gradient      ...    4.7929e-05  Tolerance :   5.0000e-05
  Last Orbital Rotation      ...    7.2570e-05  Tolerance :   5.0000e-05


----------------
ORBITAL ENERGIES
----------------

  NO   OCC          E(Eh)            E(eV) 
   0   2.0000     -19.110302      -520.0177 
   1   2.0000     -19.109794      -520.0039 
   2   2.0000     -14.356928      -390.6719 
   3   2.0000     -14.342312      -390.2742 
   4   2.0000     -10.292118      -280.0628 
   5   2.0000     -10.282002      -279.7875 
   6   2.0000     -10.239716      -278.6368 
   7   2.0000     -10.209371      -277.8111 
   8   2.0000     -10.200430      -277.5678 
   9   2.0000     -10.197496      -277.4880 
  10   2.0000     -10.194288      -277.4007 
  11   2.0000     -10.191804      -277.3331 
  12   2.0000     -10.190822      -277.3064 
  13   2.0000     -10.189249      -277.2636 
  14   2.0000     -10.188704      -277.2487 
  15   2.0000     -10.188208      -277.2352 
  16   2.0000     -10.185255      -277.1549 
  17   2.0000     -10.183783      -277.1148 
  18   2.0000     -10.180829      -277.0344 
  19   2.0000     -10.180392      -277.0226 
  20   2.0000     -10.168094      -276.6879 
  21   2.0000     -10.167714      -276.6776 
  22   2.0000     -10.161720      -276.5145 
  23   2.0000     -10.158500      -276.4268 
  24   2.0000     -10.158166      -276.4178 
  25   2.0000     -10.157124      -276.3894 
  26   2.0000     -10.150945      -276.2212 
  27   2.0000      -1.012438       -27.5498 
  28   2.0000      -1.002797       -27.2875 
  29   2.0000      -0.911345       -24.7990 
  30   2.0000      -0.880108       -23.9490 
  31   2.0000      -0.857772       -23.3412 
  32   2.0000      -0.851045       -23.1581 
  33   2.0000      -0.831699       -22.6317 
  34   2.0000      -0.777180       -21.1482 
  35   2.0000      -0.766462       -20.8565 
  36   2.0000      -0.751783       -20.4570 
  37   2.0000      -0.749263       -20.3885 
  38   2.0000      -0.743748       -20.2384 
  39   2.0000      -0.734095       -19.9758 
  40   2.0000      -0.703306       -19.1379 
  41   2.0000      -0.669261       -18.2115 
  42   2.0000      -0.657760       -17.8986 
  43   2.0000      -0.625226       -17.0133 
  44   2.0000      -0.609603       -16.5881 
  45   2.0000      -0.608938       -16.5700 
  46   2.0000      -0.599920       -16.3246 
  47   2.0000      -0.576503       -15.6874 
  48   2.0000      -0.573509       -15.6060 
  49   2.0000      -0.554099       -15.0778 
  50   2.0000      -0.544117       -14.8062 
  51   2.0000      -0.529808       -14.4168 
  52   2.0000      -0.517868       -14.0919 
  53   2.0000      -0.503720       -13.7069 
  54   2.0000      -0.491914       -13.3857 
  55   2.0000      -0.484687       -13.1890 
  56   2.0000      -0.481226       -13.0948 
  57   2.0000      -0.470377       -12.7996 
  58   2.0000      -0.455316       -12.3898 
  59   2.0000      -0.450820       -12.2674 
  60   2.0000      -0.442101       -12.0302 
  61   2.0000      -0.438102       -11.9214 
  62   2.0000      -0.433221       -11.7886 
  63   2.0000      -0.426764       -11.6128 
  64   2.0000      -0.425094       -11.5674 
  65   2.0000      -0.419816       -11.4238 
  66   2.0000      -0.409870       -11.1531 
  67   2.0000      -0.406441       -11.0598 
  68   2.0000      -0.402529       -10.9534 
  69   2.0000      -0.400091       -10.8870 
  70   2.0000      -0.391202       -10.6452 
  71   2.0000      -0.386851       -10.5268 
  72   2.0000      -0.381057       -10.3691 
  73   2.0000      -0.374836       -10.1998 
  74   2.0000      -0.369573       -10.0566 
  75   2.0000      -0.361290        -9.8312 
  76   2.0000      -0.360394        -9.8068 
  77   2.0000      -0.355120        -9.6633 
  78   2.0000      -0.350112        -9.5270 
  79   2.0000      -0.343935        -9.3589 
  80   2.0000      -0.343176        -9.3383 
  81   2.0000      -0.333928        -9.0866 
  82   2.0000      -0.323544        -8.8041 
  83   2.0000      -0.317272        -8.6334 
  84   2.0000      -0.313352        -8.5268 
  85   2.0000      -0.264708        -7.2031 
  86   2.0000      -0.259940        -7.0733 
  87   2.0000      -0.255793        -6.9605 
  88   2.0000      -0.252488        -6.8706 
  89   2.0000      -0.248569        -6.7639 
  90   2.0000      -0.243700        -6.6314 
  91   2.0000      -0.237552        -6.4641 
  92   2.0000      -0.227360        -6.1868 
  93   2.0000      -0.215452        -5.8627 
  94   2.0000      -0.209752        -5.7076 
  95   0.0000      -0.041662        -1.1337 
  96   0.0000      -0.016413        -0.4466 
  97   0.0000      -0.007234        -0.1969 
  98   0.0000      -0.002972        -0.0809 
  99   0.0000       0.015781         0.4294 
 100   0.0000       0.021665         0.5895 
 101   0.0000       0.023381         0.6362 
 102   0.0000       0.039798         1.0830 
 103   0.0000       0.062791         1.7086 
 104   0.0000       0.081598         2.2204 
 105   0.0000       0.099409         2.7051 
*Only the first 10 virtual orbitals were printed.

                    ********************************
                    * MULLIKEN POPULATION ANALYSIS *
                    ********************************

-----------------------
MULLIKEN ATOMIC CHARGES
-----------------------
   0 C :   -0.523750
   1 C :    0.162075
   2 C :   -0.173696
   3 C :   -0.125360
   4 C :   -0.174176
   5 C :    0.147376
   6 C :   -0.233200
   7 N :   -0.416883
   8 C :    0.451916
   9 O :   -0.455716
  10 C :    0.081441
  11 C :   -0.165443
  12 C :   -0.135822
  13 C :   -0.116954
  14 C :   -0.133947
  15 C :   -0.135288
  16 C :   -0.077416
  17 C :    0.561750
  18 N :   -0.767711
  19 O :   -0.474007
  20 C :    0.098642
  21 C :   -0.175122
  22 C :   -0.130223
  23 C :   -0.121077
  24 C :   -0.119440
  25 C :   -0.140949
  26 C :   -0.208570
  27 H :    0.143581
  28 H :    0.165967
  29 H :    0.159075
  30 H :    0.110317
  31 H :    0.114213
  32 H :    0.110864
  33 H :    0.184751
  34 H :    0.141786
  35 H :    0.136769
  36 H :    0.131259
  37 H :    0.133498
  38 H :    0.136760
  39 H :    0.162992
  40 H :    0.127902
  41 H :    0.352502
  42 H :    0.334071
  43 H :    0.122658
  44 H :    0.128617
  45 H :    0.129174
  46 H :    0.135578
  47 H :    0.169850
  48 H :    0.169367
Sum of atomic charges:   -0.0000000

--------------------------------
MULLIKEN REDUCED ORBITAL CHARGES
--------------------------------
  0 C s       :     3.311224  s :     3.311224
      pz      :     1.046290  p :     3.177678
      px      :     1.057776
      py      :     1.073613
      dz2     :     0.005619  d :     0.034848
      dxz     :     0.008593
      dyz     :     0.007204
      dx2y2   :     0.007586
      dxy     :     0.005847

  1 C s       :     3.129996  s :     3.129996
      pz      :     0.915523  p :     2.666482
      px      :     0.902753
      py      :     0.848206
      dz2     :     0.006059  d :     0.041447
      dxz     :     0.005756
      dyz     :     0.008768
      dx2y2   :     0.010578
      dxy     :     0.010286

  2 C s       :     3.196084  s :     3.196084
      pz      :     1.001994  p :     2.941680
      px      :     0.978032
      py      :     0.961655
      dz2     :     0.003911  d :     0.035932
      dxz     :     0.005538
      dyz     :     0.008209
      dx2y2   :     0.008048
      dxy     :     0.010225

  3 C s       :     3.187629  s :     3.187629
      pz      :     0.970072  p :     2.901183
      px      :     0.960731
      py      :     0.970380
      dz2     :     0.007297  d :     0.036548
      dxz     :     0.005503
      dyz     :     0.004945
      dx2y2   :     0.011969
      dxy     :     0.006835

  4 C s       :     3.191561  s :     3.191561
      pz      :     0.993297  p :     2.946639
      px      :     0.987427
      py      :     0.965915
      dz2     :     0.003677  d :     0.035976
      dxz     :     0.005625
      dyz     :     0.008339
      dx2y2   :     0.008097
      dxy     :     0.010238

  5 C s       :     3.144787  s :     3.144787
      pz      :     0.915338  p :     2.668038
      px      :     0.892578
      py      :     0.860122
      dz2     :     0.005105  d :     0.039799
      dxz     :     0.005614
      dyz     :     0.008739
      dx2y2   :     0.010192
      dxy     :     0.010150

  6 C s       :     3.238893  s :     3.238893
      pz      :     1.012690  p :     2.939662
      px      :     0.994365
      py      :     0.932607
      dz2     :     0.008289  d :     0.054645
      dxz     :     0.010003
      dyz     :     0.013506
      dx2y2   :     0.006120
      dxy     :     0.016727

  7 N s       :     3.555585  s :     3.555585
      pz      :     1.306676  p :     3.829102
      px      :     1.430596
      py      :     1.091830
      dz2     :     0.005347  d :     0.032197
      dxz     :     0.005554
      dyz     :     0.008208
      dx2y2   :     0.007519
      dxy     :     0.005568

  8 C s       :     3.055205  s :     3.055205
      pz      :     0.797621  p :     2.392931
      px      :     0.813844
      py      :     0.781466
      dz2     :     0.008197  d :     0.099948
      dxz     :     0.014265
      dyz     :     0.012107
      dx2y2   :     0.029679
      dxy     :     0.035701

  9 O s       :     3.897432  s :     3.897432
      pz      :     1.429254  p :     4.532956
      px      :     1.387049
      py      :     1.716653
      dz2     :     0.003077  d :     0.025327
      dxz     :     0.008065
      dyz     :     0.001102
      dx2y2   :     0.006389
      dxy     :     0.006694

 10 C s       :     3.150460  s :     3.150460
      pz      :     0.982313  p :     2.729032
      px      :     0.872316
      py      :     0.874403
      dz2     :     0.004535  d :     0.039067
      dxz     :     0.005216
      dyz     :     0.005507
      dx2y2   :     0.010755
      dxy     :     0.013055

 11 C s       :     3.201136  s :     3.201136
      pz      :     0.984524  p :     2.928058
      px      :     0.963871
      py      :     0.979663
      dz2     :     0.003631  d :     0.036248
      dxz     :     0.006299
      dyz     :     0.004501
      dx2y2   :     0.012706
      dxy     :     0.009111

 12 C s       :     3.190309  s :     3.190309
      pz      :     0.996152  p :     2.909561
      px      :     0.977505
      py      :     0.935904
      dz2     :     0.003024  d :     0.035952
      dxz     :     0.004924
      dyz     :     0.006008
      dx2y2   :     0.011462
      dxy     :     0.010535

 13 C s       :     3.188746  s :     3.188746
      pz      :     0.967197  p :     2.891915
      px      :     0.968642
      py      :     0.956075
      dz2     :     0.004717  d :     0.036294
      dxz     :     0.004121
      dyz     :     0.004874
      dx2y2   :     0.008967
      dxy     :     0.013615

 14 C s       :     3.193087  s :     3.193087
      pz      :     0.984626  p :     2.904944
      px      :     0.932878
      py      :     0.987440
      dz2     :     0.003553  d :     0.035916
      dxz     :     0.005804
      dyz     :     0.004250
      dx2y2   :     0.012848
      dxy     :     0.009460

 15 C s       :     3.208327  s :     3.208327
      pz      :     0.965496  p :     2.891082
      px      :     0.974029
      py      :     0.951557
      dz2     :     0.002963  d :     0.035879
      dxz     :     0.004909
      dyz     :     0.006121
      dx2y2   :     0.011648
      dxy     :     0.010237

 16 C s       :     3.189244  s :     3.189244
      pz      :     0.874810  p :     2.829935
      px      :     0.950852
      py      :     1.004273
      dz2     :     0.013739  d :     0.058236
      dxz     :     0.012088
      dyz     :     0.011903
      dx2y2   :     0.014296
      dxy     :     0.006211

 17 C s       :     3.024581  s :     3.024581
      pz      :     0.809142  p :     2.314692
      px      :     0.696327
      py      :     0.809223
      dz2     :     0.012740  d :     0.098976
      dxz     :     0.031734
      dyz     :     0.008280
      dx2y2   :     0.020786
      dxy     :     0.025436

 18 N s       :     3.613624  s :     3.613624
      pz      :     1.386940  p :     4.131785
      px      :     1.184994
      py      :     1.559851
      dz2     :     0.004213  d :     0.022302
      dxz     :     0.003692
      dyz     :     0.005225
      dx2y2   :     0.005743
      dxy     :     0.003429

 19 O s       :     3.897368  s :     3.897368
      pz      :     1.650416  p :     4.551080
      px      :     1.375088
      py      :     1.525577
      dz2     :     0.002986  d :     0.025558
      dxz     :     0.006918
      dyz     :     0.000845
      dx2y2   :     0.006961
      dxy     :     0.007849

 20 C s       :     3.137379  s :     3.137379
      pz      :     0.936110  p :     2.724564
      px      :     0.934808
      py      :     0.853646
      dz2     :     0.006898  d :     0.039416
      dxz     :     0.005715
      dyz     :     0.008671
      dx2y2   :     0.009752
      dxy     :     0.008379

 21 C s       :     3.200624  s :     3.200624
      pz      :     0.984263  p :     2.938381
      px      :     0.989599
      py      :     0.964518
      dz2     :     0.004206  d :     0.036117
      dxz     :     0.006706
      dyz     :     0.008601
      dx2y2   :     0.007904
      dxy     :     0.008701

 22 C s       :     3.187198  s :     3.187198
      pz      :     0.973870  p :     2.906958
      px      :     0.980193
      py      :     0.952895
      dz2     :     0.005542  d :     0.036067
      dxz     :     0.005398
      dyz     :     0.008594
      dx2y2   :     0.006628
      dxy     :     0.009905

 23 C s       :     3.186641  s :     3.186641
      pz      :     0.962627  p :     2.898087
      px      :     0.958059
      py      :     0.977401
      dz2     :     0.006986  d :     0.036350
      dxz     :     0.005507
      dyz     :     0.006972
      dx2y2   :     0.010702
      dxy     :     0.006182

 24 C s       :     3.189333  s :     3.189333
      pz      :     0.983539  p :     2.894033
      px      :     0.968536
      py      :     0.941959
      dz2     :     0.004278  d :     0.036073
      dxz     :     0.006649
      dyz     :     0.008434
      dx2y2   :     0.008070
      dxy     :     0.008642

 25 C s       :     3.204850  s :     3.204850
      pz      :     0.972895  p :     2.900338
      px      :     0.974019
      py      :     0.953424
      dz2     :     0.005459  d :     0.035760
      dxz     :     0.005729
      dyz     :     0.008298
      dx2y2   :     0.006539
      dxy     :     0.009736

 26 C s       :     3.221302  s :     3.221302
      pz      :     0.974788  p :     2.951815
      px      :     0.962476
      py      :     1.014552
      dz2     :     0.006424  d :     0.035453
      dxz     :     0.005434
      dyz     :     0.005178
      dx2y2   :     0.011257
      dxy     :     0.007160

 27 H s       :     0.856419  s :     0.856419

 28 H s       :     0.834033  s :     0.834033

 29 H s       :     0.840925  s :     0.840925

 30 H s       :     0.889683  s :     0.889683

 31 H s       :     0.885787  s :     0.885787

 32 H s       :     0.889136  s :     0.889136

 33 H s       :     0.815249  s :     0.815249

 34 H s       :     0.858214  s :     0.858214

 35 H s       :     0.863231  s :     0.863231

 36 H s       :     0.868741  s :     0.868741

 37 H s       :     0.866502  s :     0.866502

 38 H s       :     0.863240  s :     0.863240

 39 H s       :     0.837008  s :     0.837008

 40 H s       :     0.872098  s :     0.872098

 41 H s       :     0.647498  s :     0.647498

 42 H s       :     0.665929  s :     0.665929

 43 H s       :     0.877342  s :     0.877342

 44 H s       :     0.871383  s :     0.871383

 45 H s       :     0.870826  s :     0.870826

 46 H s       :     0.864422  s :     0.864422

 47 H s       :     0.830150  s :     0.830150

 48 H s       :     0.830633  s :     0.830633



                     *******************************
                     * LOEWDIN POPULATION ANALYSIS *
                     *******************************

----------------------
LOEWDIN ATOMIC CHARGES
----------------------
   0 C :   -0.352578
   1 C :   -0.022726
   2 C :   -0.144857
   3 C :   -0.132225
   4 C :   -0.141833
   5 C :   -0.030155
   6 C :   -0.141784
   7 N :   -0.111223
   8 C :    0.151612
   9 O :   -0.254983
  10 C :   -0.050382
  11 C :   -0.123429
  12 C :   -0.133487
  13 C :   -0.118659
  14 C :   -0.127928
  15 C :   -0.090904
  16 C :   -0.062747
  17 C :    0.138213
  18 N :   -0.396470
  19 O :   -0.285189
  20 C :   -0.025448
  21 C :   -0.135890
  22 C :   -0.133577
  23 C :   -0.123158
  24 C :   -0.120368
  25 C :   -0.105566
  26 C :   -0.126201
  27 H :    0.126773
  28 H :    0.136992
  29 H :    0.135165
  30 H :    0.123945
  31 H :    0.124872
  32 H :    0.124116
  33 H :    0.151495
  34 H :    0.120762
  35 H :    0.134422
  36 H :    0.132573
  37 H :    0.133623
  38 H :    0.135450
  39 H :    0.150911
  40 H :    0.122485
  41 H :    0.266449
  42 H :    0.251934
  43 H :    0.127542
  44 H :    0.131650
  45 H :    0.131820
  46 H :    0.135477
  47 H :    0.152142
  48 H :    0.151344

-------------------------------
LOEWDIN REDUCED ORBITAL CHARGES
-------------------------------
  0 C s       :     2.972669  s :     2.972669
      pz      :     1.100327  p :     3.312516
      px      :     1.100604
      py      :     1.111584
      dz2     :     0.010811  d :     0.067394
      dxz     :     0.016624
      dyz     :     0.013852
      dx2y2   :     0.014628
      dxy     :     0.011479

  1 C s       :     2.876213  s :     2.876213
      pz      :     0.981588  p :     3.043956
      px      :     1.005418
      py      :     1.056950
      dz2     :     0.013146  d :     0.102557
      dxz     :     0.013344
      dyz     :     0.021688
      dx2y2   :     0.027197
      dxy     :     0.027181

  2 C s       :     2.916917  s :     2.916917
      pz      :     1.035144  p :     3.143590
      px      :     1.045025
      py      :     1.063421
      dz2     :     0.008716  d :     0.084351
      dxz     :     0.010905
      dyz     :     0.019408
      dx2y2   :     0.021003
      dxy     :     0.024319

  3 C s       :     2.916580  s :     2.916580
      pz      :     1.020640  p :     3.129271
      px      :     1.040634
      py      :     1.067997
      dz2     :     0.015327  d :     0.086374
      dxz     :     0.014893
      dyz     :     0.012166
      dx2y2   :     0.026304
      dxy     :     0.017684

  4 C s       :     2.915747  s :     2.915747
      pz      :     1.033058  p :     3.141712
      px      :     1.047245
      py      :     1.061409
      dz2     :     0.008224  d :     0.084374
      dxz     :     0.011227
      dyz     :     0.019135
      dx2y2   :     0.020948
      dxy     :     0.024840

  5 C s       :     2.883969  s :     2.883969
      pz      :     0.985156  p :     3.045981
      px      :     1.004046
      py      :     1.056779
      dz2     :     0.011753  d :     0.100205
      dxz     :     0.013151
      dyz     :     0.021574
      dx2y2   :     0.027182
      dxy     :     0.026546

  6 C s       :     2.922167  s :     2.922167
      pz      :     1.056131  p :     3.105138
      px      :     1.054211
      py      :     0.994796
      dz2     :     0.016370  d :     0.114479
      dxz     :     0.020654
      dyz     :     0.029367
      dx2y2   :     0.011924
      dxy     :     0.036164

  7 N s       :     3.120105  s :     3.120105
      pz      :     1.318641  p :     3.910419
      px      :     1.445506
      py      :     1.146272
      dz2     :     0.013128  d :     0.080699
      dxz     :     0.012320
      dyz     :     0.021423
      dx2y2   :     0.019435
      dxy     :     0.014393

  8 C s       :     2.866588  s :     2.866588
      pz      :     0.813253  p :     2.750572
      px      :     1.002904
      py      :     0.934416
      dz2     :     0.017673  d :     0.231227
      dxz     :     0.029658
      dyz     :     0.026829
      dx2y2   :     0.072481
      dxy     :     0.084587

  9 O s       :     3.591808  s :     3.591808
      pz      :     1.425195  p :     4.613136
      px      :     1.474505
      py      :     1.713436
      dz2     :     0.006348  d :     0.050039
      dxz     :     0.012914
      dyz     :     0.002148
      dx2y2   :     0.015326
      dxy     :     0.013303

 10 C s       :     2.879563  s :     2.879563
      pz      :     0.995286  p :     3.070748
      px      :     1.028639
      py      :     1.046823
      dz2     :     0.009874  d :     0.100071
      dxz     :     0.012119
      dyz     :     0.012950
      dx2y2   :     0.029422
      dxy     :     0.035706

 11 C s       :     2.918924  s :     2.918924
      pz      :     0.998550  p :     3.119884
      px      :     1.051135
      py      :     1.070198
      dz2     :     0.007219  d :     0.084621
      dxz     :     0.014230
      dyz     :     0.008459
      dx2y2   :     0.030565
      dxy     :     0.024149

 12 C s       :     2.917978  s :     2.917978
      pz      :     0.999960  p :     3.130715
      px      :     1.063909
      py      :     1.066846
      dz2     :     0.006170  d :     0.084794
      dxz     :     0.009093
      dyz     :     0.013680
      dx2y2   :     0.028681
      dxy     :     0.027169

 13 C s       :     2.919895  s :     2.919895
      pz      :     0.980608  p :     3.113591
      px      :     1.066187
      py      :     1.066795
      dz2     :     0.008870  d :     0.085173
      dxz     :     0.009397
      dyz     :     0.011518
      dx2y2   :     0.023727
      dxy     :     0.031660

 14 C s       :     2.918579  s :     2.918579
      pz      :     0.992708  p :     3.124851
      px      :     1.062484
      py      :     1.069659
      dz2     :     0.006928  d :     0.084498
      dxz     :     0.013780
      dyz     :     0.007853
      dx2y2   :     0.031040
      dxy     :     0.024896

 15 C s       :     2.920532  s :     2.920532
      pz      :     0.968782  p :     3.086840
      px      :     1.071535
      py      :     1.046523
      dz2     :     0.006006  d :     0.083532
      dxz     :     0.008776
      dyz     :     0.013315
      dx2y2   :     0.028733
      dxy     :     0.026703

 16 C s       :     2.888739  s :     2.888739
      pz      :     0.976577  p :     3.045971
      px      :     1.023190
      py      :     1.046204
      dz2     :     0.029071  d :     0.128037
      dxz     :     0.026943
      dyz     :     0.028128
      dx2y2   :     0.031746
      dxy     :     0.012149

 17 C s       :     2.878777  s :     2.878777
      pz      :     0.927165  p :     2.754091
      px      :     0.960635
      py      :     0.866291
      dz2     :     0.029507  d :     0.228919
      dxz     :     0.074046
      dyz     :     0.018159
      dx2y2   :     0.051241
      dxy     :     0.055967

 18 N s       :     3.215203  s :     3.215203
      pz      :     1.388991  p :     4.132469
      px      :     1.201325
      py      :     1.542153
      dz2     :     0.008962  d :     0.048798
      dxz     :     0.011015
      dyz     :     0.008566
      dx2y2   :     0.012227
      dxy     :     0.008029

 19 O s       :     3.590460  s :     3.590460
      pz      :     1.651969  p :     4.644395
      px      :     1.467385
      py      :     1.525041
      dz2     :     0.006392  d :     0.050335
      dxz     :     0.012780
      dyz     :     0.001612
      dx2y2   :     0.015708
      dxy     :     0.013843

 20 C s       :     2.877956  s :     2.877956
      pz      :     1.025538  p :     3.049122
      px      :     1.033378
      py      :     0.990207
      dz2     :     0.016021  d :     0.098370
      dxz     :     0.014991
      dyz     :     0.022038
      dx2y2   :     0.024242
      dxy     :     0.021079

 21 C s       :     2.919903  s :     2.919903
      pz      :     1.031281  p :     3.131488
      px      :     1.034151
      py      :     1.066056
      dz2     :     0.009817  d :     0.084500
      dxz     :     0.012074
      dyz     :     0.020366
      dx2y2   :     0.020569
      dxy     :     0.021675

 22 C s       :     2.917033  s :     2.917033
      pz      :     1.031484  p :     3.131469
      px      :     1.033618
      py      :     1.066367
      dz2     :     0.012525  d :     0.085076
      dxz     :     0.011687
      dyz     :     0.021355
      dx2y2   :     0.017283
      dxy     :     0.022225

 23 C s       :     2.918193  s :     2.918193
      pz      :     1.023431  p :     3.119543
      px      :     1.026295
      py      :     1.069817
      dz2     :     0.015340  d :     0.085422
      dxz     :     0.015149
      dyz     :     0.016246
      dx2y2   :     0.022979
      dxy     :     0.015708

 24 C s       :     2.917483  s :     2.917483
      pz      :     1.025410  p :     3.117869
      px      :     1.025096
      py      :     1.067362
      dz2     :     0.009799  d :     0.085017
      dxz     :     0.012233
      dyz     :     0.020150
      dx2y2   :     0.020976
      dxy     :     0.021859

 25 C s       :     2.922200  s :     2.922200
      pz      :     1.012438  p :     3.100365
      px      :     1.016495
      py      :     1.071432
      dz2     :     0.012075  d :     0.083001
      dxz     :     0.011795
      dyz     :     0.020400
      dx2y2   :     0.017135
      dxy     :     0.021597

 26 C s       :     2.920317  s :     2.920317
      pz      :     1.010438  p :     3.123722
      px      :     1.021629
      py      :     1.091656
      dz2     :     0.012904  d :     0.082162
      dxz     :     0.014578
      dyz     :     0.012309
      dx2y2   :     0.024465
      dxy     :     0.017905

 27 H s       :     0.873227  s :     0.873227

 28 H s       :     0.863008  s :     0.863008

 29 H s       :     0.864835  s :     0.864835

 30 H s       :     0.876055  s :     0.876055

 31 H s       :     0.875128  s :     0.875128

 32 H s       :     0.875884  s :     0.875884

 33 H s       :     0.848505  s :     0.848505

 34 H s       :     0.879238  s :     0.879238

 35 H s       :     0.865578  s :     0.865578

 36 H s       :     0.867427  s :     0.867427

 37 H s       :     0.866377  s :     0.866377

 38 H s       :     0.864550  s :     0.864550

 39 H s       :     0.849089  s :     0.849089

 40 H s       :     0.877515  s :     0.877515

 41 H s       :     0.733551  s :     0.733551

 42 H s       :     0.748066  s :     0.748066

 43 H s       :     0.872458  s :     0.872458

 44 H s       :     0.868350  s :     0.868350

 45 H s       :     0.868180  s :     0.868180

 46 H s       :     0.864523  s :     0.864523

 47 H s       :     0.847858  s :     0.847858

 48 H s       :     0.848656  s :     0.848656



                      *****************************
                      * MAYER POPULATION ANALYSIS *
                      *****************************

  NA   - Mulliken gross atomic population
  ZA   - Total nuclear charge
  QA   - Mulliken gross atomic charge
  VA   - Mayer's total valence
  BVA  - Mayer's bonded valence
  FA   - Mayer's free valence

  ATOM       NA         ZA         QA         VA         BVA        FA
  0 C      6.5238     6.0000    -0.5238     3.8406     3.8406    -0.0000
  1 C      5.8379     6.0000     0.1621     3.9376     3.9376    -0.0000
  2 C      6.1737     6.0000    -0.1737     3.9331     3.9331    -0.0000
  3 C      6.1254     6.0000    -0.1254     3.9486     3.9486    -0.0000
  4 C      6.1742     6.0000    -0.1742     3.9327     3.9327     0.0000
  5 C      5.8526     6.0000     0.1474     3.9241     3.9241    -0.0000
  6 C      6.2332     6.0000    -0.2332     3.8429     3.8429    -0.0000
  7 N      7.4169     7.0000    -0.4169     2.9957     2.9957     0.0000
  8 C      5.5481     6.0000     0.4519     3.9343     3.9343    -0.0000
  9 O      8.4557     8.0000    -0.4557     2.0396     2.0396    -0.0000
 10 C      5.9186     6.0000     0.0814     3.8961     3.8961    -0.0000
 11 C      6.1654     6.0000    -0.1654     3.9183     3.9183    -0.0000
 12 C      6.1358     6.0000    -0.1358     3.9432     3.9432    -0.0000
 13 C      6.1170     6.0000    -0.1170     3.9430     3.9430    -0.0000
 14 C      6.1339     6.0000    -0.1339     3.9264     3.9264    -0.0000
 15 C      6.1353     6.0000    -0.1353     3.9288     3.9288    -0.0000
 16 C      6.0774     6.0000    -0.0774     3.8113     3.8113    -0.0000
 17 C      5.4382     6.0000     0.5618     3.8441     3.8441    -0.0000
 18 N      7.7677     7.0000    -0.7677     2.8524     2.8524     0.0000
 19 O      8.4740     8.0000    -0.4740     2.0368     2.0368     0.0000
 20 C      5.9014     6.0000     0.0986     3.9887     3.9887    -0.0000
 21 C      6.1751     6.0000    -0.1751     3.9354     3.9354     0.0000
 22 C      6.1302     6.0000    -0.1302     3.9464     3.9464    -0.0000
 23 C      6.1211     6.0000    -0.1211     3.9482     3.9482     0.0000
 24 C      6.1194     6.0000    -0.1194     3.9393     3.9393    -0.0000
 25 C      6.1409     6.0000    -0.1409     3.9074     3.9074    -0.0000
 26 C      6.2086     6.0000    -0.2086     3.9017     3.9017    -0.0000
 27 H      0.8564     1.0000     0.1436     0.9367     0.9367     0.0000
 28 H      0.8340     1.0000     0.1660     0.9345     0.9345     0.0000
 29 H      0.8409     1.0000     0.1591     0.9287     0.9287     0.0000
 30 H      0.8897     1.0000     0.1103     0.9409     0.9409    -0.0000
 31 H      0.8858     1.0000     0.1142     0.9389     0.9389    -0.0000
 32 H      0.8891     1.0000     0.1109     0.9436     0.9436    -0.0000
 33 H      0.8152     1.0000     0.1848     0.9320     0.9320    -0.0000
 34 H      0.8582     1.0000     0.1418     0.9360     0.9360    -0.0000
 35 H      0.8632     1.0000     0.1368     0.9392     0.9392    -0.0000
 36 H      0.8687     1.0000     0.1313     0.9366     0.9366    -0.0000
 37 H      0.8665     1.0000     0.1335     0.9355     0.9355    -0.0000
 38 H      0.8632     1.0000     0.1368     0.9358     0.9358    -0.0000
 39 H      0.8370     1.0000     0.1630     0.9378     0.9378    -0.0000
 40 H      0.8721     1.0000     0.1279     0.9337     0.9337    -0.0000
 41 H      0.6475     1.0000     0.3525     0.8570     0.8570     0.0000
 42 H      0.6659     1.0000     0.3341     0.8601     0.8601    -0.0000
 43 H      0.8773     1.0000     0.1227     0.9395     0.9395     0.0000
 44 H      0.8714     1.0000     0.1286     0.9367     0.9367    -0.0000
 45 H      0.8708     1.0000     0.1292     0.9362     0.9362    -0.0000
 46 H      0.8644     1.0000     0.1356     0.9375     0.9375     0.0000
 47 H      0.8302     1.0000     0.1698     0.9485     0.9485    -0.0000
 48 H      0.8306     1.0000     0.1694     0.9528     0.9528    -0.0000

  Mayer bond orders larger than 0.100000
B(  0-C ,  1-C ) :   0.9876 B(  0-C , 27-H ) :   0.9466 B(  0-C , 28-H ) :   0.9443 
B(  0-C , 29-H ) :   0.9357 B(  1-C ,  2-C ) :   1.4257 B(  1-C , 26-C ) :   1.4198 
B(  2-C ,  3-C ) :   1.4468 B(  2-C , 30-H ) :   0.9287 B(  3-C ,  4-C ) :   1.4365 
B(  3-C , 31-H ) :   0.9308 B(  4-C ,  5-C ) :   1.4279 B(  4-C , 32-H ) :   0.9243 
B(  5-C ,  6-C ) :   0.9566 B(  5-C , 26-C ) :   1.4242 B(  6-C ,  7-N ) :   0.9521 
B(  6-C , 33-H ) :   0.9120 B(  6-C , 34-H ) :   0.9218 B(  7-N ,  8-C ) :   1.0280 
B(  7-N , 16-C ) :   0.9404 B(  8-C ,  9-O ) :   1.8039 B(  8-C , 10-C ) :   0.9666 
B( 10-C , 11-C ) :   1.3948 B( 10-C , 15-C ) :   1.4102 B( 11-C , 12-C ) :   1.4356 
B( 11-C , 35-H ) :   0.9211 B( 12-C , 13-C ) :   1.4518 B( 12-C , 36-H ) :   0.9296 
B( 13-C , 14-C ) :   1.4430 B( 13-C , 37-H ) :   0.9300 B( 14-C , 15-C ) :   1.4337 
B( 14-C , 38-H ) :   0.9293 B( 15-C , 39-H ) :   0.9163 B( 16-C , 17-C ) :   0.9055 
B( 16-C , 20-C ) :   0.9796 B( 16-C , 40-H ) :   0.8905 B( 17-C , 18-N ) :   1.0775 
B( 17-C , 19-O ) :   1.8118 B( 18-N , 41-H ) :   0.8231 B( 18-N , 42-H ) :   0.8296 
B( 20-C , 21-C ) :   1.4200 B( 20-C , 25-C ) :   1.4317 B( 21-C , 22-C ) :   1.4370 
B( 21-C , 43-H ) :   0.9253 B( 22-C , 23-C ) :   1.4542 B( 22-C , 44-H ) :   0.9293 
B( 23-C , 24-C ) :   1.4467 B( 23-C , 45-H ) :   0.9303 B( 24-C , 25-C ) :   1.4333 
B( 24-C , 46-H ) :   0.9286 B( 25-C , 47-H ) :   0.9010 B( 26-C , 48-H ) :   0.8956 


-------
TIMINGS
-------

Total SCF time: 0 days 0 hours 8 min 5 sec 

Total time                  ....     485.888 sec
Sum of individual times     ....     485.395 sec  ( 99.9%)

SCF preparation             ....       0.302 sec  (  0.1%)
Fock matrix formation       ....     483.142 sec  ( 99.4%)
  Startup                   ....       0.077 sec  (  0.0% of F)
  Split-RI-J                ....      58.352 sec  ( 12.1% of F)
  Chain of spheres X        ....     378.835 sec  ( 78.4% of F)
  XC integration            ....      45.177 sec  (  9.4% of F)
    XC Preparation          ....       0.000 sec  (  0.0% of XC)
    Basis function eval.    ....      17.745 sec  ( 39.3% of XC)
    Density eval.           ....      11.853 sec  ( 26.2% of XC)
    XC-Functional eval.     ....       2.118 sec  (  4.7% of XC)
    XC-Potential eval.      ....      11.792 sec  ( 26.1% of XC)
Diagonalization             ....       0.000 sec  (  0.0%)
Density matrix formation    ....       0.346 sec  (  0.1%)
Total Energy calculation    ....       0.081 sec  (  0.0%)
Population analysis         ....       0.069 sec  (  0.0%)
Orbital Transformation      ....       0.169 sec  (  0.0%)
Orbital Orthonormalization  ....       0.000 sec  (  0.0%)
DIIS solution               ....       0.676 sec  (  0.1%)
SOSCF solution              ....       0.609 sec  (  0.1%)
Finished LeanSCF after 486.0 sec

Maximum memory used throughout the entire LEANSCF-calculation: 76.4 MB

-------------------------   --------------------
FINAL SINGLE POINT ENERGY     -1148.914682565953
-------------------------   --------------------


------------------------------------------------------------------------------
                              ORCA PROPERTY CALCULATIONS
------------------------------------------------------------------------------

GBWName                                 ... /home/nmrbox/aojoawo/Documents/ERDOS/inputs/CHEMBL3959823.gbw
Number of atoms                         ...     49
Number of basis functions               ...    422
Max core memory                         ...   1024 MB

Electric properties:
Dipole moment                           ... YES
Quadrupole moment                       ...  NO
Static polarizability (Dipole/Dipole)   ...  NO
Static polarizability (Dipole/Quad.)    ...  NO
Static polarizability (Quad./Quad.)     ...  NO
Static polarizability (Velocity)        ...  NO

Atomic electric properties:
Dipole moment                           ...  NO
Quadrupole moment                       ...  NO
Static polarizability                   ...  NO

Choice of electric origin               ... Center of mass
Position of electric origin             ...    -0.041410     0.301243     0.041497

General magnetic properties:
Magnetizability                         ...  NO

EPR properties:
g-Tensor (aka g-matrix)                 ...  NO
Zero-Field splitting spin-orbit         ...  NO
Zero-field splitting spin-spin          ...  NO
Hyperfine couplings                     ...  NO (   0 nuclei)
Quadrupole couplings                    ...  NO (   0 nuclei)
Contact density                         ...  NO (   0 nuclei)

NMR properties:
Chemical shifts                         ...  NO (   0 nuclei)
Spin-rotation constants                 ...  NO (   0 nuclei)
Spin-spin couplings                     ...  NO (   0 nuclei,    0 pairs)

Choice of magnetic origin               ... GIAO
Position of magnetic origin             ...     0.000000     0.000000     0.000000

Properties with geometric perturbations:
SCF Hessian                             ...  NO
IR spectrum                             ...  NO
VCD spectrum                            ...  NO
X-ray spectroscopy properties:
SCF XES/XAS/RIXS spectra                ...  NO


-------------
DIPOLE MOMENT
-------------

Method             : SCF
Type of density    : Electron Density
Multiplicity       :   1
Irrep              :   0
Energy             : -1148.9146825659533988 Eh
Relativity type    : 
Basis              : AO
                                X                 Y                 Z
Electronic contribution:     -3.692729021       6.044484721       3.164935836
Nuclear contribution   :      1.329273902      -6.461608221      -3.673557078
                        -----------------------------------------
Total Dipole Moment    :     -2.363455119      -0.417123500      -0.508621242
                        -----------------------------------------
Magnitude (a.u.)       :      2.453285080
Magnitude (Debye)      :      6.235755109



--------------------
Rotational spectrum 
--------------------
 
Rotational constants in cm-1:             0.010764             0.004764             0.004064 
Rotational constants in MHz :           322.708825           142.820331           121.840157 

Dipole components along the rotational axes: 
x,y,z [a.u.] :     0.687658    -2.342978    -0.237044 
x,y,z [Debye]:     1.747887    -5.955376    -0.602519 

 

Dipole moment calculation done in   0.0 sec 

Maximum memory used throughout the entire PROP-calculation: 36.5 MB

--------------------------------
SUGGESTED CITATIONS FOR THIS RUN
--------------------------------

Below you find a list of papers that are relevant to this ORCA run
We neither can nor want to force you to cite these papers, but we appreciate if you do
You receive ORCA, which is the product of decades of hard work by many enthusiastic individuals, for free
The only thing we kindly ask in return is that you cite our papers,
We deeply appreciate it, if you show your appreciation for ORCA by not just citing the generic ORCA reference.

Please note that relegating all ORCA citations to the supporting information does *not* help us.
SI sections are not indexed - citations you put there will not count into any citation statistics
But we need these citations in order to attract the funding resources that allow us to do what we are doing

Therefore, if you are a happy ORCA user, please consider citing a few of the papers listed below in the main body of your paper

In addition to the list printed below, the program has created the file /home/nmrbox/aojoawo/Documents/ERDOS/inputs/CHEMBL3959823.bibtex that contains the list in bibtex format
You can import this file easily into all common literature databanks and citation aid programs


List of essential papers. We consider these as the minimum necessary citations

  1. Neese,F.
     Software update: the ORCA program system, version 5.0
     WIRES Comput. Molec. Sci., 2022 12(1)e1606
     doi.org/10.1002/wcms.1606

List of papers to cite with high priority. The work reported in these papers was absolutely
necessary for this run to complete.
Our perspective: the developers of density functionals and basis sets usually get cited in chemistry papers
Good! But without the algorithms to do something with them, the functionals or basis sets would not do anything.
Hence, in our opinion, the algorithm design and method developments papers are equally worthy of getting cited

  1. Neese,F.
     An improvement of the resolution of the identity approximation for the formation of the Coulomb matrix
     J. Comp. Chem., 2003 24(14)1740-1747
     doi.org/10.1002/jcc.10318
  2. Neese,F.; Wennmohs,F.; Hansen,A.; Becker,U.
     Efficient, approximate and parallel Hartree-Fock and hybrid DFT calculations. A 'chain-of-spheres' algorithm for the Hartree-Fock exchange
     Chem. Phys., 2009 356(1-3)98-109
     doi.org/10.1016/j.chemphys.2008.10.036
  3. Helmich-Paris,B.; de Souza,B.; Neese,F.; Izsák,R.
     An improved chain of spheres for exchange algorithm
     J. Chem. Phys., 2021 155 104109
     doi.org/doi: 10.1063/5.0058766.
  4. Neese,F.
     The SHARK Integral Generation and Digestion System
     J. Comp. Chem., 2022  1-16
     doi.org/10.1002/jcc.26942

List of suggested additional citations. These are papers that are important in the 'surrounding' of 
of this run, or papers that preceded the highly important papers. If you like your results we are grateful for a citation.

  1. Izsak,R.; Neese,F.
     An overlap fitted chain of spheres exchange method
     J. Chem. Phys., 2011 135 144105
     doi.org/10.1063/1.3646921
  2. Izsak,R.; Hansen,A.; Neese,F.
     The resolution of identity and chain of spheres approximations for the LPNO-CCSD singles Fock term
     Molec. Phys., 2012 110 2413-2417
     doi.org/10.1080/00268976.2012.687466
  3. Neese,F.
     The ORCA program system
     WIRES Comput. Molec. Sci., 2012 2(1)73-78
     doi.org/10.1002/wcms.81
  4. Izsak,R.; Neese,F.; Klopper,W.
     Robust fitting techniques in the chain of spheres approximation to the Fock exchange: The role of the complementary space
     J. Chem. Phys., 2013 139 
     doi.org/10.1063/1.4819264
  5. Neese,F.
     Software update: the ORCA program system, version 4.0
     WIRES Comput. Molec. Sci., 2018 8(1)1-6
     doi.org/10.1002/wcms.1327
  6. Neese,F.; Wennmohs,F.; Becker,U.; Riplinger,C.
     The ORCA quantum chemistry program package
     J. Chem. Phys., 2020 152 Art. No. L224108
     doi.org/10.1063/5.0004608

List of optional additional citations

  1. Neese,F.
     Approximate second-order SCF convergence for spin unrestricted wavefunctions
     Chem. Phys. Lett., 2000 325(1-3)93-98
     doi.org/10.1016/s0009-2614(00)00662-x

Timings for individual modules:

Sum of individual times          ...      505.995 sec (=   8.433 min)
Startup calculation              ...       13.136 sec (=   0.219 min)   2.6 %
SCF iterations                   ...      492.601 sec (=   8.210 min)  97.4 %
Property calculations            ...        0.258 sec (=   0.004 min)   0.1 %
                             ****ORCA TERMINATED NORMALLY****
TOTAL RUN TIME: 0 days 0 hours 8 minutes 26 seconds 964 msec
