
                                 *****************
                                 * O   R   C   A *
                                 *****************

                                            #,                                       
                                            ###                                      
                                            ####                                     
                                            #####                                    
                                            ######                                   
                                           ########,                                 
                                     ,,################,,,,,                         
                               ,,#################################,,                 
                          ,,##########################################,,             
                       ,#########################################, ''#####,          
                    ,#############################################,,   '####,        
                  ,##################################################,,,,####,       
                ,###########''''           ''''###############################       
              ,#####''   ,,,,##########,,,,          '''####'''          '####       
            ,##' ,,,,###########################,,,                        '##       
           ' ,,###''''                  '''############,,,                           
         ,,##''                                '''############,,,,        ,,,,,,###''
      ,#''                                            '''#######################'''  
     '                                                          ''''####''''         
             ,#######,   #######,   ,#######,      ##                                
            ,#'     '#,  ##    ##  ,#'     '#,    #''#        ,####,   ,####,        
            ##       ##  ##   ,#'  ##            #'  '#       #'       #'  '#        
            ##       ##  #######   ##           ,######,      #####,   #    #        
            '#,     ,#'  ##    ##  '#,     ,#' ,#      #,     #,   #   #,  ,#        
             '#######'   ##     ##  '#######'  #'      '#     '####' # '####'        



                #########################################################
                #                        -***-                          #
                #          Department of theory and spectroscopy        #
                #                                                       #
                #                      Frank Neese                      #
                #                                                       #
                #     Directorship, Architecture, Infrastructure        #
                #                    SHARK, DRIVERS                     #
                #        Core code/Algorithms in most modules           #
                #                                                       #
                #        Max Planck Institute fuer Kohlenforschung      #
                #                Kaiser Wilhelm Platz 1                 #
                #                 D-45470 Muelheim/Ruhr                 #
                #                      Germany                          #
                #                                                       #
                #                  All rights reserved                  #
                #                        -***-                          #
                #########################################################


                         Program Version 6.0.0  -   RELEASE  -


 With contributions from (in alphabetic order):
   Daniel Aravena         : Magnetic Suceptibility
   Michael Atanasov       : Ab Initio Ligand Field Theory (pilot matlab implementation)
   Alexander A. Auer      : GIAO ZORA, VPT2 properties, NMR spectrum
   Ute Becker             : All parallelization in ORCA, NUMFREQ, NUMCALC
   Giovanni Bistoni       : ED, misc. LED, open-shell LED, HFLD
   Martin Brehm           : Molecular dynamics
   Dmytro Bykov           : pre 5.0 version of the SCF Hessian
   Marcos Casanova-Páez   : Triplet and SCS-CIS(D). UHF-(DLPNO)-IP/EA/STEOM-CCSD. UHF-CVS-IP/STEOM-CCSD
   Vijay G. Chilkuri      : MRCI spin determinant printing, contributions to CSF-ICE
   Pauline Colinet        : FMM embedding
   Dipayan Datta          : RHF DLPNO-CCSD density
   Achintya Kumar Dutta   : EOM-CC, STEOM-CC
   Nicolas Foglia         : Exact transition moments, OPA infrastructure, MCD improvements
   Dmitry Ganyushin       : Spin-Orbit,Spin-Spin,Magnetic field MRCI
   Miquel Garcia          : C-PCM and meta-GGA Hessian, CCSD/C-PCM, Gaussian charge scheme
   Tiago L. C. Gouveia    : GS-ROHF, GS-ROCIS
   Yang Guo               : DLPNO-NEVPT2, F12-NEVPT2, CIM, IAO-localization
   Andreas Hansen         : Spin unrestricted coupled pair/coupled cluster methods
   Ingolf Harden          : AUTO-CI MPn and infrastructure 
   Benjamin Helmich-Paris : MC-RPA, TRAH-(SCF,CASSCF), AVAS, COSX integrals, SCF dyn. polar.
   Lee Huntington         : MR-EOM, pCC
   Robert Izsak           : Overlap fitted RIJCOSX, COSX-SCS-MP3, EOM
   Riya Kayal             : Wick's Theorem for AUTO-CI, AUTO-CI UHF-CCSDT
   Emily Kempfer          : AUTO-CI, RHF CISDT and CCSDT
   Christian Kollmar      : KDIIS, OOCD, Brueckner-CCSD(T), CCSD density, CASPT2, CASPT2-K, improved NEVPT2
   Axel Koslowski         : Symmetry handling
   Simone Kossmann        : Meta GGA functionals, TD-DFT gradient, OOMP2, (MP2 Hessian; deprecated post 5.0)
   Lucas Lang             : DCDCAS
   Marvin Lechner         : AUTO-CI (C++ implementation), FIC-MRCC
   Spencer Leger          : CASSCF response
   Dagmar Lenk            : GEPOL surface, SMD, ORCA-2-JSON
   Dimitrios Liakos       : Extrapolation schemes; Compound Job, initial MDCI parallelization
   Dimitrios Manganas     : Further ROCIS development; embedding schemes. LFT, Crystal Embedding
   Dimitrios Pantazis     : SARC Basis sets
   Anastasios Papadopoulos: AUTO-CI, single reference methods and gradients
   Taras Petrenko         : pre 6.0 DFT Hessian and TD-DFT gradient, (ASA, deprecated), ECA, 1-Electron XAS/XES, NRVS
   Peter Pinski           : DLPNO-MP2, DLPNO-MP2 Gradient
   Christoph Reimann      : Effective Core Potentials
   Marius Retegan         : Local ZFS, SOC
   Christoph Riplinger    : Optimizer, TS searches, QM/MM, DLPNO-CCSD(T), (RO)-DLPNO pert. Triples
   Michael Roemelt        : Original ROCIS implementation
   Masaaki Saitow         : Open-shell DLPNO-CCSD energy and density
   Barbara Sandhoefer     : DKH picture change effects
   Kantharuban Sivalingam : CASSCF convergence/infrastructure, NEVPT2 and variants, FIC-MRCI
   Bernardo de Souza      : ESD, SOC TD-DFT
   Georgi Stoychev        : AutoAux, RI-MP2 NMR, DLPNO-MP2 response, X2C
   Van Anh Tran           : RI-MP2 g-tensors
   Willem Van den Heuvel  : Paramagnetic NMR
   Zikuan Wang            : NOTCH, Electric field optimization 
   Frank Wennmohs         : Technical directorship and infrastructure
   Hang Xu                : AUTO-CI-Response properties 


 We gratefully acknowledge several colleagues who have allowed us to
 interface, adapt or use parts of their codes:
   Stefan Grimme, W. Hujo, H. Kruse, P. Pracht,  : VdW corrections, initial TS optimization,
                  C. Bannwarth, S. Ehlert,         DFT functionals, gCP, sTDA/sTD-DF
                  L. Wittmann, M. Mueller
   Ed Valeev, F. Pavosevic, A. Kumar             : LibInt (2-el integral package), F12 methods
   Garnet Chan, S. Sharma, J. Yang, R. Olivares  : DMRG
   Ulf Ekstrom                                   : XCFun DFT Library
   Mihaly Kallay                                 : mrcc  (arbitrary order and MRCC methods)
   Frank Weinhold                                : gennbo (NPA and NBO analysis)
   Simon Mueller                                 : openCOSMO-RS
   Christopher J. Cramer and Donald G. Truhlar   : smd solvation model
   Lars Goerigk                                  : TD-DFT with DH, B97 family of functionals
   V. Asgeirsson, H. Jonsson                     : NEB implementation
   FAccTs GmbH                                   : IRC, NEB, NEB-TS, DLPNO-Multilevel, CI-OPT
                                                   MM, QMMM, 2- and 3-layer-ONIOM, Crystal-QMMM,
                                                   LR-CPCM, SF, NACMEs, symmetry and pop. for TD-DFT,
                                                   nearIR, NL-DFT gradient (VV10), updates on ESD,
                                                   ML-optimized integration grids, MBIS, APM,
                                                   GOAT, DOCKER, SOLVATOR, interface openCOSMO-RS
   S Lehtola, MJT Oliveira, MAL Marques          : LibXC Library
   Liviu Ungur et al                             : ANISO software


 Your calculation uses the libint2 library for the computation of 2-el integrals
 For citations please refer to: http://libint.valeyev.net

 Your ORCA version has been built with support for libXC version: 6.2.2
 For citations please refer to: https://libxc.gitlab.io

 This ORCA versions uses:
   CBLAS   interface :  Fast vector & matrix operations
   LAPACKE interface :  Fast linear algebra routines
   SCALAPACK package :  Parallel linear algebra routines
   Shared memory     :  Shared parallel matrices
   BLAS/LAPACK       :  OpenBLAS 0.3.27  USE64BITINT DYNAMIC_ARCH NO_AFFINITY SkylakeX SINGLE_THREADED
        Core in use  :  SkylakeX
   Copyright (c) 2011-2014, The OpenBLAS Project


Warning: RI is on but no J-basis has been assigned. Assigning Def2/J (nothing to worry about!)
================================================================================

----- Orbital basis set information -----
Your calculation utilizes the basis: 6-31G*
   H-He, Li-Ne : W. J. Hehre, R. Ditchfield and J.A. Pople, J. Chem. Phys. 56, 2257 (1972).
                 Note: He and Ne are unpublished basis sets taken from the Gaussian program.
                 Note: Li and B from J. D. Dill and J. A. Pople, J. Chem. Phys. 62, 2921 (1975).
   Na - Ar     : M. M. Francl, W. J. Pietro, W. J. Hehre, J. S. Binkley, M. S. Gordon, 
                 D. J. DeFrees and J. A. Pople, J. Chem. Phys. 77, 3654 (1982).
   K - Zn      : V. A. Rassolov, J. A. Pople, M. A. Ratner, and T. L. Windus, J. Chem. Phys. 109, 1223 (1998).

----- AuxJ basis set information -----
Your calculation utilizes the auxiliary basis: def2/J
   F. Weigend, Phys. Chem. Chem. Phys. 8, 1057 (2006).

================================================================================
                                        WARNINGS
                       Please study these warnings very carefully!
================================================================================


================================================================================
                                       INPUT FILE
================================================================================
NAME = /home/nmrbox/aojoawo/Documents/ERDOS/inputs/CHEMBL3897802.inp
|  1> ! B3LYP 6-31G* SP
|  2> 
|  3> * xyz 0 1
|  4> C -4.8374 2.8785 -0.9472
|  5> N -4.5493 1.4924 -0.5281
|  6> C -3.7187 0.7185 -1.2905
|  7> O -3.2178 1.2131 -2.3363
|  8> C -3.4171 -0.6111 -0.9085
|  9> C -2.5911 -1.4940 -1.6869
| 10> C -1.9438 -1.1270 -3.0114
| 11> C -0.7234 -0.2779 -2.8017
| 12> O -0.6230 0.8194 -3.4125
| 13> N 0.3435 -0.7458 -1.9622
| 14> C 1.3570 0.0988 -1.4016
| 15> N 2.4177 -0.3920 -0.7286
| 16> C 3.2204 0.5929 -0.2348
| 17> C 4.4463 0.2724 0.5423
| 18> C 4.6466 -1.0357 1.0164
| 19> C 5.7935 -1.3606 1.7406
| 20> C 6.7591 -0.3888 2.0056
| 21> F 7.8687 -0.7347 2.7066
| 22> C 6.5849 0.9280 1.5466
| 23> C 7.6494 1.9630 1.8261
| 24> F 7.8862 2.0302 3.1863
| 25> F 7.2730 3.2201 1.3878
| 26> F 8.8183 1.6039 1.1825
| 27> C 5.4295 1.2476 0.8062
| 28> C 2.7743 1.8910 -0.5085
| 29> S 1.3479 1.7813 -1.3912
| 30> C -2.3240 -2.7848 -1.2045
| 31> C -2.8540 -3.2256 -0.0052
| 32> C -3.6673 -2.3928 0.7472
| 33> C -3.9714 -1.0783 0.3186
| 34> N -4.7805 -0.2562 1.0747
| 35> C -5.3590 -0.7374 2.3491
| 36> C -5.0517 1.0215 0.6534
| 37> O -5.7718 1.7799 1.3647
| 38> H -4.0345 3.5527 -0.5792
| 39> H -5.8171 3.2315 -0.5582
| 40> H -4.9032 2.9584 -2.0534
| 41> H -1.6275 -2.0388 -3.5626
| 42> H -2.6741 -0.6386 -3.6880
| 43> H 0.3723 -1.7614 -1.7164
| 44> H 3.9138 -1.8114 0.8326
| 45> H 5.9338 -2.3727 2.0982
| 46> H 5.3090 2.2501 0.4220
| 47> H 3.2310 2.8184 -0.1939
| 48> H -1.6923 -3.4633 -1.7621
| 49> H -2.6327 -4.2252 0.3466
| 50> H -4.0466 -2.7994 1.6728
| 51> H -6.0224 0.0031 2.8410
| 52> H -5.9789 -1.6407 2.1672
| 53> H -4.5455 -0.9725 3.0682
| 54> *
| 55> 
| 56>                          ****END OF INPUT****
================================================================================

                       ****************************
                       * Single Point Calculation *
                       ****************************

---------------------------------
CARTESIAN COORDINATES (ANGSTROEM)
---------------------------------
  C     -4.837400    2.878500   -0.947200
  N     -4.549300    1.492400   -0.528100
  C     -3.718700    0.718500   -1.290500
  O     -3.217800    1.213100   -2.336300
  C     -3.417100   -0.611100   -0.908500
  C     -2.591100   -1.494000   -1.686900
  C     -1.943800   -1.127000   -3.011400
  C     -0.723400   -0.277900   -2.801700
  O     -0.623000    0.819400   -3.412500
  N      0.343500   -0.745800   -1.962200
  C      1.357000    0.098800   -1.401600
  N      2.417700   -0.392000   -0.728600
  C      3.220400    0.592900   -0.234800
  C      4.446300    0.272400    0.542300
  C      4.646600   -1.035700    1.016400
  C      5.793500   -1.360600    1.740600
  C      6.759100   -0.388800    2.005600
  F      7.868700   -0.734700    2.706600
  C      6.584900    0.928000    1.546600
  C      7.649400    1.963000    1.826100
  F      7.886200    2.030200    3.186300
  F      7.273000    3.220100    1.387800
  F      8.818300    1.603900    1.182500
  C      5.429500    1.247600    0.806200
  C      2.774300    1.891000   -0.508500
  S      1.347900    1.781300   -1.391200
  C     -2.324000   -2.784800   -1.204500
  C     -2.854000   -3.225600   -0.005200
  C     -3.667300   -2.392800    0.747200
  C     -3.971400   -1.078300    0.318600
  N     -4.780500   -0.256200    1.074700
  C     -5.359000   -0.737400    2.349100
  C     -5.051700    1.021500    0.653400
  O     -5.771800    1.779900    1.364700
  H     -4.034500    3.552700   -0.579200
  H     -5.817100    3.231500   -0.558200
  H     -4.903200    2.958400   -2.053400
  H     -1.627500   -2.038800   -3.562600
  H     -2.674100   -0.638600   -3.688000
  H      0.372300   -1.761400   -1.716400
  H      3.913800   -1.811400    0.832600
  H      5.933800   -2.372700    2.098200
  H      5.309000    2.250100    0.422000
  H      3.231000    2.818400   -0.193900
  H     -1.692300   -3.463300   -1.762100
  H     -2.632700   -4.225200    0.346600
  H     -4.046600   -2.799400    1.672800
  H     -6.022400    0.003100    2.841000
  H     -5.978900   -1.640700    2.167200
  H     -4.545500   -0.972500    3.068200

----------------------------
CARTESIAN COORDINATES (A.U.)
----------------------------
  NO LB      ZA    FRAG     MASS         X           Y           Z
   0 C     6.0000    0    12.011   -9.141361    5.439577   -1.789949
   1 N     7.0000    0    14.007   -8.596931    2.820227   -0.997964
   2 C     6.0000    0    12.011   -7.027325    1.357768   -2.438692
   3 O     8.0000    0    15.999   -6.080761    2.292427   -4.414967
   4 C     6.0000    0    12.011   -6.457383   -1.154812   -1.716816
   5 C     6.0000    0    12.011   -4.896469   -2.823251   -3.187779
   6 C     6.0000    0    12.011   -3.673250   -2.129721   -5.690721
   7 C     6.0000    0    12.011   -1.367028   -0.525155   -5.294446
   8 O     8.0000    0    15.999   -1.177299    1.548442   -6.448690
   9 N     7.0000    0    14.007    0.649121   -1.409358   -3.708021
  10 C     6.0000    0    12.011    2.564358    0.186705   -2.648640
  11 N     7.0000    0    14.007    4.568791   -0.740773   -1.376854
  12 C     6.0000    0    12.011    6.085674    1.120419   -0.443708
  13 C     6.0000    0    12.011    8.402289    0.514761    1.024798
  14 C     6.0000    0    12.011    8.780801   -1.957189    1.920718
  15 C     6.0000    0    12.011   10.948128   -2.571161    3.289257
  16 C     6.0000    0    12.011   12.772848   -0.734726    3.790035
  17 F     9.0000    0    18.998   14.869688   -1.388382    5.114733
  18 C     6.0000    0    12.011   12.443658    1.753666    2.922650
  19 C     6.0000    0    12.011   14.455271    3.709532    3.450829
  20 F     9.0000    0    18.998   14.902758    3.836522    6.021234
  21 F     9.0000    0    18.998   13.743978    6.085107    2.622562
  22 F     9.0000    0    18.998   16.664172    3.030932    2.234601
  23 C     6.0000    0    12.011   10.260268    2.357622    1.523497
  24 C     6.0000    0    12.011    5.242667    3.573472   -0.960926
  25 S    16.0000    0    32.060    2.547162    3.366169   -2.628987
  26 C     6.0000    0    12.011   -4.391724   -5.262509   -2.276175
  27 C     6.0000    0    12.011   -5.393278   -6.095501   -0.009827
  28 C     6.0000    0    12.011   -6.930193   -4.521737    1.412003
  29 C     6.0000    0    12.011   -7.504858   -2.037692    0.602067
  30 N     7.0000    0    14.007   -9.033836   -0.484148    2.030889
  31 C     6.0000    0    12.011  -10.127042   -1.393484    4.439156
  32 C     6.0000    0    12.011   -9.546330    1.930355    1.234747
  33 O     8.0000    0    15.999  -10.907121    3.363524    2.578909
  34 H     1.0000    0     1.008   -7.624100    6.713630   -1.094529
  35 H     1.0000    0     1.008  -10.992726    6.106650   -1.054845
  36 H     1.0000    0     1.008   -9.265705    5.590566   -3.880364
  37 H     1.0000    0     1.008   -3.075529   -3.852774   -6.732338
  38 H     1.0000    0     1.008   -5.053317   -1.206779   -6.969310
  39 H     1.0000    0     1.008    0.703545   -3.328564   -3.243526
  40 H     1.0000    0     1.008    7.396010   -3.423050    1.573386
  41 H     1.0000    0     1.008   11.213257   -4.483753    3.965023
  42 H     1.0000    0     1.008   10.032556    4.252073    0.797464
  43 H     1.0000    0     1.008    6.105705    5.326004   -0.366418
  44 H     1.0000    0     1.008   -3.197984   -6.544689   -3.329886
  45 H     1.0000    0     1.008   -4.975082   -7.984471    0.654979
  46 H     1.0000    0     1.008   -7.646966   -5.290099    3.161134
  47 H     1.0000    0     1.008  -11.380687    0.005858    5.368712
  48 H     1.0000    0     1.008  -11.298484   -3.100474    4.095414
  49 H     1.0000    0     1.008   -8.589750   -1.837759    5.798058

--------------------------------
INTERNAL COORDINATES (ANGSTROEM)
--------------------------------
 C      0   0   0     0.000000000000     0.00000000     0.00000000
 N      1   0   0     1.476455089056     0.00000000     0.00000000
 C      2   1   0     1.367505513700   119.44275833     0.00000000
 O      3   2   1     1.260645711530   118.80303834     0.05172142
 C      3   2   1     1.415882311493   120.69045680   179.56424621
 C      5   3   2     1.437948180568   123.56590213   177.71312343
 C      6   5   3     1.519205891247   124.63694723   359.68285092
 C      7   6   5     1.501439662457   111.17232711    77.87059946
 O      8   7   6     1.259850820534   119.31562705   232.92213133
 N      8   7   6     1.435954828677   120.08578217    55.85382614
 C     10   8   7     1.433458673977   124.19179721   197.97001811
 N     11  10   8     1.348665314302   122.46612709   186.78104440
 C     12  11  10     1.363155801807   112.39281972   182.70500633
 C     13  12  11     1.486416990619   121.28155249   179.91972183
 C     14  13  12     1.405708543760   119.63598001   346.74035876
 C     15  14  13     1.394777853280   120.60055494   179.60567897
 C     16  15  14     1.395350708603   120.35825631     0.04981576
 F     17  16  15     1.357298776983   119.09912628   180.34453224
 C     17  16  15     1.405342975931   120.31597894     0.07380183
 C     19  17  16     1.510796313207   119.61336679   180.84117774
 F     20  19  17     1.382293065887   109.63660515   304.44466419
 F     20  19  17     1.383504340434   111.84976394   184.28158330
 F     20  19  17     1.381846945215   109.37934617    63.94715651
 C     19  17  16     1.409001589779   119.06543481   359.41427912
 C     13  12  11     1.399635849069   114.30408497     0.82961929
 S     25  13  12     1.681014675724   108.21656682   359.82073807
 C      6   5   3     1.403644118001   119.20298134   178.41373514
 C     27   6   5     1.383302255474   121.20446854     0.81558118
 C     28  27   6     1.386044187607   120.26415471     0.08861460
 C     29  28  27     1.415657098312   121.30615695   359.69825833
 N     30  29  28     1.379194848453   120.89866500   180.07201140
 C     31  30  29     1.479969949019   120.50238304   359.47665278
 C      2   1   3     1.367514102304   119.79061236   176.27402228
 O     33   2   1     1.264777553564   119.24729573     0.81507223
 H      1   2   3     1.111133677826   109.54969806   275.26832387
 H      1   2   3     1.111639370479   111.76219233   154.14878700
 H      1   2   3     1.111031993239   111.20411658    36.07489976
 H      7   6   5     1.111416380120   110.82131743   197.45235202
 H      7   6   5     1.108900450897   110.96184151   312.77457007
 H     10   8   7     1.045318343855   118.32837684    16.01639659
 H     15  14  13     1.082815205841   120.86057082   359.30343616
 H     16  15  14     1.082547116758   119.72691036   180.05740959
 H     24  19  17     1.080340751800   119.26321177   182.14255392
 H     25  13  12     1.080564116561   127.18214759   178.09997865
 H     27   6   5     1.081815557292   120.71304950   181.02493329
 H     28  27   6     1.082560432493   119.84523865   180.06788205
 H     29  28  27     1.079781186167   116.43581265   180.04608765
 H     32  31  30     1.109236413034   113.48951962   182.28397503
 H     32  31  30     1.110546941826   109.97516937   301.28906420
 H     32  31  30     1.110927121822   109.87443702    62.55798318

---------------------------
INTERNAL COORDINATES (A.U.)
---------------------------
 C      0   0   0     0.000000000000     0.00000000     0.00000000
 N      1   0   0     2.790095767351     0.00000000     0.00000000
 C      2   1   0     2.584210907520   119.44275833     0.00000000
 O      3   2   1     2.382275146695   118.80303834     0.05172142
 C      3   2   1     2.675629806586   120.69045680   179.56424621
 C      5   3   2     2.717328256045   123.56590213   177.71312343
 C      6   5   3     2.870883075497   124.63694723   359.68285092
 C      7   6   5     2.837309768652   111.17232711    77.87059946
 O      8   7   6     2.380773020405   119.31562705   232.92213133
 N      8   7   6     2.713561366881   120.08578217    55.85382614
 C     10   8   7     2.708844318111   124.19179721   197.97001811
 N     11  10   8     2.548608090349   122.46612709   186.78104440
 C     12  11  10     2.575991143281   112.39281972   182.70500633
 C     13  12  11     2.808921033077   121.28155249   179.91972183
 C     14  13  12     2.656404171820   119.63598001   346.74035876
 C     15  14  13     2.635748160358   120.60055494   179.60567897
 C     16  15  14     2.636830700033   120.35825631     0.04981576
 F     17  16  15     2.564922970404   119.09912628   180.34453224
 C     17  16  15     2.655713348740   120.31597894     0.07380183
 C     19  17  16     2.854991276099   119.61336679   180.84117774
 F     20  19  17     2.612155331345   109.63660515   304.44466419
 F     20  19  17     2.614444308512   111.84976394   184.28158330
 F     20  19  17     2.611312285452   109.37934617    63.94715651
 C     19  17  16     2.662627126942   119.06543481   359.41427912
 C     13  12  11     2.644928441959   114.30408497     0.82961929
 S     25  13  12     3.176657364221   108.21656682   359.82073807
 C      6   5   3     2.652502972512   119.20298134   178.41373514
 C     27   6   5     2.614062423282   121.20446854     0.81558118
 C     28  27   6     2.619243924091   120.26415471     0.08861460
 C     29  28  27     2.675204215351   121.30615695   359.69825833
 N     30  29  28     2.606300548892   120.89866500   180.07201140
 C     31  30  29     2.796737890080   120.50238304   359.47665278
 C      2   1   3     2.584227137630   119.79061236   176.27402228
 O     33   2   1     2.390083196567   119.24729573     0.81507223
 H      1   2   3     2.099738349269   109.54969806   275.26832387
 H      1   2   3     2.100693969891   111.76219233   154.14878700
 H      1   2   3     2.099546193246   111.20411658    36.07489976
 H      7   6   5     2.100272579182   110.82131743   197.45235202
 H      7   6   5     2.095518161977   110.96184151   312.77457007
 H     10   8   7     1.975365392650   118.32837684    16.01639659
 H     15  14  13     2.046224192685   120.86057082   359.30343616
 H     16  15  14     2.045717577738   119.72691036   180.05740959
 H     24  19  17     2.041548152217   119.26321177   182.14255392
 H     25  13  12     2.041970250444   127.18214759   178.09997865
 H     27   6   5     2.044335130698   120.71304950   181.02493329
 H     28  27   6     2.045742740832   119.84523865   180.06788205
 H     29  28  27     2.040490726416   116.43581265   180.04608765
 H     32  31  30     2.096153038407   113.48951962   182.28397503
 H     32  31  30     2.098629578916   109.97516937   301.28906420
 H     32  31  30     2.099348014989   109.87443702    62.55798318

---------------------
BASIS SET INFORMATION
---------------------
There are 6 groups of distinct atoms

 Group   1 Type C   : 10s4p1d contracted to 3s2p1d pattern {631/31/1}
 Group   2 Type N   : 10s4p1d contracted to 3s2p1d pattern {631/31/1}
 Group   3 Type O   : 10s4p1d contracted to 3s2p1d pattern {631/31/1}
 Group   4 Type F   : 10s4p1d contracted to 3s2p1d pattern {631/31/1}
 Group   5 Type S   : 16s10p1d contracted to 4s3p1d pattern {6631/631/1}
 Group   6 Type H   : 4s contracted to 2s pattern {31}

Atom   0C    basis set group =>   1
Atom   1N    basis set group =>   2
Atom   2C    basis set group =>   1
Atom   3O    basis set group =>   3
Atom   4C    basis set group =>   1
Atom   5C    basis set group =>   1
Atom   6C    basis set group =>   1
Atom   7C    basis set group =>   1
Atom   8O    basis set group =>   3
Atom   9N    basis set group =>   2
Atom  10C    basis set group =>   1
Atom  11N    basis set group =>   2
Atom  12C    basis set group =>   1
Atom  13C    basis set group =>   1
Atom  14C    basis set group =>   1
Atom  15C    basis set group =>   1
Atom  16C    basis set group =>   1
Atom  17F    basis set group =>   4
Atom  18C    basis set group =>   1
Atom  19C    basis set group =>   1
Atom  20F    basis set group =>   4
Atom  21F    basis set group =>   4
Atom  22F    basis set group =>   4
Atom  23C    basis set group =>   1
Atom  24C    basis set group =>   1
Atom  25S    basis set group =>   5
Atom  26C    basis set group =>   1
Atom  27C    basis set group =>   1
Atom  28C    basis set group =>   1
Atom  29C    basis set group =>   1
Atom  30N    basis set group =>   2
Atom  31C    basis set group =>   1
Atom  32C    basis set group =>   1
Atom  33O    basis set group =>   3
Atom  34H    basis set group =>   6
Atom  35H    basis set group =>   6
Atom  36H    basis set group =>   6
Atom  37H    basis set group =>   6
Atom  38H    basis set group =>   6
Atom  39H    basis set group =>   6
Atom  40H    basis set group =>   6
Atom  41H    basis set group =>   6
Atom  42H    basis set group =>   6
Atom  43H    basis set group =>   6
Atom  44H    basis set group =>   6
Atom  45H    basis set group =>   6
Atom  46H    basis set group =>   6
Atom  47H    basis set group =>   6
Atom  48H    basis set group =>   6
Atom  49H    basis set group =>   6
---------------------------------
AUXILIARY/J BASIS SET INFORMATION
---------------------------------
There are 6 groups of distinct atoms

 Group   1 Type C   : 12s5p4d2f1g contracted to 6s4p3d1f1g pattern {711111/2111/211/2/1}
 Group   2 Type N   : 12s5p4d2f1g contracted to 6s4p3d1f1g pattern {711111/2111/211/2/1}
 Group   3 Type O   : 12s5p4d2f1g contracted to 6s4p3d1f1g pattern {711111/2111/211/2/1}
 Group   4 Type F   : 12s5p4d2f1g contracted to 6s4p3d1f1g pattern {711111/2111/211/2/1}
 Group   5 Type S   : 14s5p5d2f1g contracted to 8s4p3d1f1g pattern {71111111/2111/311/2/1}
 Group   6 Type H   : 5s2p1d contracted to 3s1p1d pattern {311/2/1}

Atom   0C    basis set group =>   1
Atom   1N    basis set group =>   2
Atom   2C    basis set group =>   1
Atom   3O    basis set group =>   3
Atom   4C    basis set group =>   1
Atom   5C    basis set group =>   1
Atom   6C    basis set group =>   1
Atom   7C    basis set group =>   1
Atom   8O    basis set group =>   3
Atom   9N    basis set group =>   2
Atom  10C    basis set group =>   1
Atom  11N    basis set group =>   2
Atom  12C    basis set group =>   1
Atom  13C    basis set group =>   1
Atom  14C    basis set group =>   1
Atom  15C    basis set group =>   1
Atom  16C    basis set group =>   1
Atom  17F    basis set group =>   4
Atom  18C    basis set group =>   1
Atom  19C    basis set group =>   1
Atom  20F    basis set group =>   4
Atom  21F    basis set group =>   4
Atom  22F    basis set group =>   4
Atom  23C    basis set group =>   1
Atom  24C    basis set group =>   1
Atom  25S    basis set group =>   5
Atom  26C    basis set group =>   1
Atom  27C    basis set group =>   1
Atom  28C    basis set group =>   1
Atom  29C    basis set group =>   1
Atom  30N    basis set group =>   2
Atom  31C    basis set group =>   1
Atom  32C    basis set group =>   1
Atom  33O    basis set group =>   3
Atom  34H    basis set group =>   6
Atom  35H    basis set group =>   6
Atom  36H    basis set group =>   6
Atom  37H    basis set group =>   6
Atom  38H    basis set group =>   6
Atom  39H    basis set group =>   6
Atom  40H    basis set group =>   6
Atom  41H    basis set group =>   6
Atom  42H    basis set group =>   6
Atom  43H    basis set group =>   6
Atom  44H    basis set group =>   6
Atom  45H    basis set group =>   6
Atom  46H    basis set group =>   6
Atom  47H    basis set group =>   6
Atom  48H    basis set group =>   6
Atom  49H    basis set group =>   6
------------------------------------------------------------------------------
                             ORCA STARTUP CALCULATIONS
                           -- RI-GTO INTEGRALS CHOSEN --
------------------------------------------------------------------------------
------------------------------------------------------------------------------
                   ___                                                        
                  /   \      - P O W E R E D   B Y -                         
                 /     \                                                     
                 |  |  |   _    _      __       _____    __    __             
                 |  |  |  | |  | |    /  \     |  _  \  |  |  /  |          
                  \  \/   | |  | |   /    \    | | | |  |  | /  /          
                 / \  \   | |__| |  /  /\  \   | |_| |  |  |/  /          
                |  |  |   |  __  | /  /__\  \  |    /   |      \           
                |  |  |   | |  | | |   __   |  |    \   |  |\   \          
                \     /   | |  | | |  |  |  |  | |\  \  |  | \   \       
                 \___/    |_|  |_| |__|  |__|  |_| \__\ |__|  \__/        
                                                                              
                      - O R C A' S   B I G   F R I E N D -                    
                                      &                                       
                       - I N T E G R A L  F E E D E R -                       
                                                                              
 v1 FN, 2020, v2 2021, v3 2022-2024                                           
------------------------------------------------------------------------------


----------------------
SHARK INTEGRAL PACKAGE
----------------------

Number of atoms                             ...     50
Number of basis functions                   ...    512
Number of shells                            ...    238
Maximum angular momentum                    ...      2
Integral batch strategy                     ... SHARK/LIBINT Hybrid
RI-J (if used) integral strategy            ... SPLIT-RIJ (Revised 2003 algorithm where possible)
Printlevel                                  ...      1
Contraction scheme used                     ... SEGMENTED contraction
Prescreening option                         ... SCHWARTZ
   Thresh                                   ... 1.000e-10
   Tcut                                     ... 1.000e-11
   Tpresel                                  ... 1.000e-11 
Coulomb Range Separation                    ... NOT USED
Exchange Range Separation                   ... NOT USED
Multipole approximations                    ... NOT USED
Finite Nucleus Model                        ... NOT USED
CABS basis                                  ... NOT available
Auxiliary Coulomb fitting basis             ... AVAILABLE
   # of basis functions in Aux-J            ...   1844
   # of shells in Aux-J                     ...    592
   Maximum angular momentum in Aux-J        ...      4
Auxiliary J/K fitting basis                 ... NOT available
Auxiliary Correlation fitting basis         ... NOT available
Auxiliary 'external' fitting basis          ... NOT available

Checking pre-screening integrals            ... done (  0.0 sec) Dimension = 238
Check shell pair data                       ... done (  0.0 sec)
Shell pair information
Shell pair cut-off parameter TPreSel        ...   1.0e-11
Total number of shell pairs                 ...     28441
Shell pairs after pre-screening             ...     14045
Total number of primitive shell pairs       ...    172783
Primitive shell pairs kept                  ...     44772
          la=0 lb=0:   4247 shell pairs
          la=1 lb=0:   4972 shell pairs
          la=1 lb=1:   1469 shell pairs
          la=2 lb=0:   1927 shell pairs
          la=2 lb=1:   1193 shell pairs
          la=2 lb=2:    237 shell pairs

Calculating one electron integrals          ... done (  0.2 sec)
Calculating RI/J V-Matrix + Cholesky decomp.... done (  0.4 sec)
Calculating Nuclear repulsion               ... done (  0.0 sec) ENN=   3527.453431750931 Eh

Diagonalization of the overlap matrix:
Smallest eigenvalue                        ... 3.363e-04
Time for diagonalization                   ...    0.039 sec
Threshold for overlap eigenvalues          ... 1.000e-07
Number of eigenvalues below threshold      ... 0
Time for construction of square roots      ...    0.030 sec
Total time needed                          ...    0.078 sec

-------------------
DFT GRID GENERATION
-------------------

General Integration Accuracy     IntAcc      ... 4.388
Radial Grid Type                 RadialGrid  ... OptM3 with GC (2021)
Angular Grid (max. ang.)         AngularGrid ... 4 (Lebedev-302)
Angular grid pruning method      GridPruning ... 4 (adaptive)
Weight generation scheme         WeightScheme... mBecke (2022)
Basis function cutoff            BFCut       ... 1.0000e-10
Integration weight cutoff        WCut        ... 1.0000e-14
Partially contracted basis set               ... off
Rotationally invariant grid construction     ... off
Angular grids for H and He will be reduced by one unit

Total number of grid points                  ...   256179
Total number of batches                      ...     4029
Average number of points per batch           ...       63
Average number of grid points per atom       ...     5124

--------------------
COSX GRID GENERATION
--------------------

GRIDX 1
-------
General Integration Accuracy     IntAcc      ... 3.816
Radial Grid Type                 RadialGrid  ... OptM3 with GC (2021)
Angular Grid (max. ang.)         AngularGrid ... 1 (Lebedev-50)
Angular grid pruning method      GridPruning ... 4 (adaptive)
Weight generation scheme         WeightScheme... mBecke (2022)
Basis function cutoff            BFCut       ... 1.0000e-10
Integration weight cutoff        WCut        ... 1.0000e-14
Partially contracted basis set               ... on
Rotationally invariant grid construction     ... off
Angular grids for H and He will be reduced by one unit

Total number of grid points                  ...    33363
Total number of batches                      ...      289
Average number of points per batch           ...      115
Average number of grid points per atom       ...      667
UseSFitting                                  ... on

GRIDX 2
-------
General Integration Accuracy     IntAcc      ... 4.020
Radial Grid Type                 RadialGrid  ... OptM3 with GC (2021)
Angular Grid (max. ang.)         AngularGrid ... 2 (Lebedev-110)
Angular grid pruning method      GridPruning ... 4 (adaptive)
Weight generation scheme         WeightScheme... mBecke (2022)
Basis function cutoff            BFCut       ... 1.0000e-10
Integration weight cutoff        WCut        ... 1.0000e-14
Partially contracted basis set               ... on
Rotationally invariant grid construction     ... off
Angular grids for H and He will be reduced by one unit

Total number of grid points                  ...    71860
Total number of batches                      ...      587
Average number of points per batch           ...      122
Average number of grid points per atom       ...     1437
UseSFitting                                  ... on

GRIDX 3
-------
General Integration Accuracy     IntAcc      ... 4.338
Radial Grid Type                 RadialGrid  ... OptM3 with GC (2021)
Angular Grid (max. ang.)         AngularGrid ... 3 (Lebedev-194)
Angular grid pruning method      GridPruning ... 4 (adaptive)
Weight generation scheme         WeightScheme... mBecke (2022)
Basis function cutoff            BFCut       ... 1.0000e-10
Integration weight cutoff        WCut        ... 1.0000e-14
Partially contracted basis set               ... on
Rotationally invariant grid construction     ... off
Angular grids for H and He will be reduced by one unit

Total number of grid points                  ...   158313
Total number of batches                      ...     1263
Average number of points per batch           ...      125
Average number of grid points per atom       ...     3166
UseSFitting                                  ... on
Initializing property integral containers    ... done (  0.0 sec)

SHARK setup successfully completed in   9.5 seconds

Maximum memory used throughout the entire STARTUP-calculation: 108.2 MB
-------------------------------------------------------------------------------
                                 ORCA GUESS
                   Start orbitals & Density for SCF / CASSCF
-------------------------------------------------------------------------------

------------
SCF SETTINGS
------------
Hamiltonian:
 Density Functional     Method          .... DFT(GTOs)
 Exchange Functional    Exchange        .... B88
   X-Alpha parameter    XAlpha          ....  0.666667
   Becke's b parameter  XBeta           ....  0.004200
 Correlation Functional Correlation     .... LYP
 LDA part of GGA corr.  LDAOpt          .... VWN-5
 Gradients option       PostSCFGGA      .... off
 Hybrid DFT is turned on
   Fraction HF Exchange ScalHFX         ....  0.200000
   Scaling of DF-GGA-X  ScalDFX         ....  0.720000
   Scaling of DF-GGA-C  ScalDFC         ....  0.810000
   Scaling of DF-LDA-C  ScalLDAC        ....  1.000000
   Perturbative correction              ....  0.000000
   NL short-range parameter             ....  4.800000
 RI-approximation to the Coulomb term is turned on
   Number of AuxJ basis functions       .... 1844
   RIJ-COSX (HFX calculated with COS-X)).... on


General Settings:
 Integral files         IntName         .... /home/nmrbox/aojoawo/Documents/ERDOS/inputs/CHEMBL3897802
 Hartree-Fock type      HFTyp           .... RHF
 Total Charge           Charge          ....    0
 Multiplicity           Mult            ....    1
 Number of Electrons    NEL             ....  252
 Basis Dimension        Dim             ....  512
 Nuclear Repulsion      ENuc            ....   3527.4534317509 Eh

Convergence Acceleration:
 AO-DIIS                CNVDIIS         .... on
   Start iteration      DIISMaxIt       ....    12
   Startup error        DIISStart       ....  0.200000
   # of expansion vecs  DIISMaxEq       ....     5
   Bias factor          DIISBfac        ....   1.050
   Max. coefficient     DIISMaxC        ....  10.000
 MO-DIIS                CNVKDIIS        .... off
 Trust-Rad. Augm. Hess. CNVTRAH         .... auto
   Auto Start mean grad. ratio tolernc. ....  1.125000
   Auto Start start iteration           ....    50
   Auto Start num. interpolation iter.  ....    10
   Max. Number of Micro iterations      ....    24
   Max. Number of Macro iterations      .... Maxiter - #DIIS iter
   Number of Davidson start vectors     ....     2
   Converg. threshold    (grad. norm)   ....   5.000e-05
   Grad. Scal. Fac. for Micro threshold ....   0.100
   Minimum threshold for Micro iter.    ....   1.000e-02
   NR start threshold (gradient norm)   ....   1.000e-04
   Initial trust radius                 ....   0.400
   Minimum AH scaling param. (alpha)    ....   1.000
   Maximum AH scaling param. (alpha)    .... 1000.000
   Quad. conv. algorithm                .... NR
   White noise on init. David. guess    .... on
   Maximum white noise                  ....   0.010
   Pseudo random numbers                .... off
   Inactive MOs                         .... canonical
   Orbital update algorithm             .... Taylor
   Preconditioner                       .... Diag
   Full preconditioner red. dimension   ....   250
 SOSCF                  CNVSOSCF        .... on
   Start iteration      SOSCFMaxIt      ....   150
   Startup grad/error   SOSCFStart      ....  0.003300
   Hessian update       SOSCFHessUp     .... L-BFGS
 Level Shifting         CNVShift        .... on
   Level shift para.    LevelShift      ....    0.2500
   Turn off err/grad.   ShiftErr        ....    0.0010
 Zerner damping         CNVZerner       .... off
 Static damping         CNVDamp         .... on
   Fraction old density DampFac         ....    0.7000
   Max. Damping (<1)    DampMax         ....    0.9800
   Min. Damping (>=0)   DampMin         ....    0.0000
   Turn off err/grad.   DampErr         ....    0.1000

SCF Procedure:
 Maximum # iterations   MaxIter         ....   125
 SCF integral mode      SCFMode         .... Direct
   Integral package                     .... SHARK and LIBINT hybrid scheme
 Reset frequency        DirectResetFreq ....    20
 Integral Threshold     Thresh          ....  1.000e-10 Eh
 Primitive CutOff       TCut            ....  1.000e-11 Eh

Convergence Tolerance:
 Convergence Check Mode ConvCheckMode   .... Total+1el-Energy
 Convergence forced     ConvForced      .... 0
 Energy Change          TolE            ....  1.000e-06 Eh
 1-El. energy change                    ....  1.000e-03 Eh
 Orbital Gradient       TolG            ....  5.000e-05
 Orbital Rotation angle TolX            ....  5.000e-05
 DIIS Error             TolErr          ....  1.000e-06

------------------------------
INITIAL GUESS: MODEL POTENTIAL
------------------------------
Loading Hartree-Fock densities                     ... done
Calculating cut-offs                               ... done
Initializing the effective Hamiltonian             ... done
Setting up the integral package (SHARK)            ... done
Starting the Coulomb interaction                   ... done (   2.1 sec)
Making the grid                                    ... done (   1.1 sec)
Mapping shells                                     ... done
Starting the XC term evaluation                    ... done (   0.9 sec)
  promolecular density results
     # of electrons  =    251.998801121
     EX              =   -234.014950671
     EC              =     -8.958395039
     EX+EC           =   -242.973345710
Transforming the Hamiltonian                       ... done (   0.0 sec)
Diagonalizing the Hamiltonian                      ... done (   0.0 sec)
Back transforming the eigenvectors                 ... done (   0.0 sec)
Now organizing SCF variables                       ... done
                      ------------------
                      INITIAL GUESS DONE (   4.3 sec)
                      ------------------
             **** ENERGY FILE WAS UPDATED (/home/nmrbox/aojoawo/Documents/ERDOS/inputs/CHEMBL3897802.en.tmp) ****
Finished Guess after   4.5 sec
Maximum memory used throughout the entire GUESS-calculation: 58.9 MB

-------------------------------------------------------------------------------------------
                                      ORCA LEAN-SCF
                              memory conserving SCF solver
-------------------------------------------------------------------------------------------

----------------------------------------D-I-I-S--------------------------------------------
Iteration    Energy (Eh)           Delta-E    RMSDP     MaxDP     DIISErr   Damp  Time(sec)
-------------------------------------------------------------------------------------------
               ***  Starting incremental Fock matrix formation  ***
    1    -2088.4038504988543536     0.00e+00  2.41e-03  1.28e-01  2.86e-01  0.700  41.7
    2    -2088.8235253638526956    -4.20e-01  1.43e-03  6.09e-02  9.76e-02  0.700  19.0
                               ***Turning on AO-DIIS***
    3    -2088.9600402492510511    -1.37e-01  5.55e-04  1.82e-02  4.09e-02  0.700  18.0
    4    -2089.0523878377421170    -9.23e-02  9.92e-04  5.09e-02  1.75e-02  0.000  16.6
    5    -2089.2627831093118402    -2.10e-01  2.36e-04  1.03e-02  9.57e-03  0.000  17.7
                              *** Initializing SOSCF ***
---------------------------------------S-O-S-C-F--------------------------------------
Iteration    Energy (Eh)           Delta-E    RMSDP     MaxDP     MaxGrad    Time(sec)
--------------------------------------------------------------------------------------
    6    -2089.2645147037496827    -1.73e-03  8.27e-05  3.67e-03  3.23e-03    15.4
               *** Restarting incremental Fock matrix formation ***
    7    -2089.2646223927326901    -1.08e-04  6.88e-05  3.59e-03  5.29e-04    42.1
    8    -2089.2645590509969225     6.33e-05  4.39e-05  2.43e-03  1.34e-03    27.4
    9    -2089.2646528539848987    -9.38e-05  9.66e-06  5.96e-04  6.90e-05    22.2
   10    -2089.2646513732929634     1.48e-06  6.23e-06  3.69e-04  1.39e-04    17.8
   11    -2089.2646534003174565    -2.03e-06  2.67e-06  1.58e-04  2.73e-05    16.0
   12    -2089.2646533530182751     4.73e-08  1.59e-06  1.04e-04  3.99e-05    15.6
                 **** Energy Check signals convergence ****

               *****************************************************
               *                     SUCCESS                       *
               *           SCF CONVERGED AFTER  12 CYCLES          *
               *****************************************************

Recomputing exchange energy using gridx3       ... done (   72.708 sec)
Old exchange energy                            :    -47.230849601 Eh
New exchange energy                            :    -47.230824417 Eh
Exchange energy change after final integration :      0.000025184 Eh
Total energy after final integration           :  -2089.264628169 Eh
             **** ENERGY FILE WAS UPDATED (/home/nmrbox/aojoawo/Documents/ERDOS/inputs/CHEMBL3897802.en.tmp) ****

----------------
TOTAL SCF ENERGY
----------------

Total Energy       :      -2089.26462816911362 Eh          -56851.78082 eV

Components:
Nuclear Repulsion  :       3527.45343175093103 Eh           95986.88776 eV
Electronic Energy  :      -5616.71808510394931 Eh         -152838.66926 eV
One Electron Energy:      -9884.91898129016954 Eh         -268982.32028 eV
Two Electron Energy:       4268.20089618622023 Eh          116143.65101 eV

Virial components:
Potential Energy   :      -4167.42838283675519 Eh         -113401.49152 eV
Kinetic Energy     :       2078.16375466764202 Eh           56549.71070 eV
Virial Ratio       :          2.00534167409885

DFT components:
N(Alpha)           :      126.000027485435 electrons
N(Beta)            :      126.000027485435 electrons
N(Total)           :      252.000054970871 electrons
E(X)               :     -187.804750669188 Eh       
E(C)               :      -10.511731146370 Eh       
E(XC)              :     -198.316481815558 Eh       

---------------
SCF CONVERGENCE
---------------

  Last Energy change         ...   -4.7299e-08  Tolerance :   1.0000e-06
  Last MAX-Density change    ...    1.0420e-04  Tolerance :   1.0000e-05
  Last RMS-Density change    ...    1.5868e-06  Tolerance :   1.0000e-06
  Last DIIS Error            ...    3.2270e-03  Tolerance :   1.0000e-06
  Last Orbital Gradient      ...    3.9867e-05  Tolerance :   5.0000e-05
  Last Orbital Rotation      ...    5.6695e-05  Tolerance :   5.0000e-05


----------------
ORBITAL ENERGIES
----------------

  NO   OCC          E(Eh)            E(eV) 
   0   2.0000     -88.902239     -2419.1529 
   1   2.0000     -24.720394      -672.6761 
   2   2.0000     -24.711646      -672.4381 
   3   2.0000     -24.711515      -672.4345 
   4   2.0000     -24.708199      -672.3443 
   5   2.0000     -19.126329      -520.4539 
   6   2.0000     -19.114771      -520.1394 
   7   2.0000     -19.113992      -520.1182 
   8   2.0000     -14.409372      -392.0989 
   9   2.0000     -14.400040      -391.8450 
  10   2.0000     -14.392530      -391.6407 
  11   2.0000     -14.331429      -389.9780 
  12   2.0000     -10.434476      -283.9365 
  13   2.0000     -10.330528      -281.1080 
  14   2.0000     -10.307799      -280.4895 
  15   2.0000     -10.297356      -280.2053 
  16   2.0000     -10.290210      -280.0109 
  17   2.0000     -10.284158      -279.8462 
  18   2.0000     -10.268030      -279.4073 
  19   2.0000     -10.239331      -278.6264 
  20   2.0000     -10.234761      -278.5020 
  21   2.0000     -10.227376      -278.3011 
  22   2.0000     -10.222202      -278.1603 
  23   2.0000     -10.220140      -278.1041 
  24   2.0000     -10.218267      -278.0532 
  25   2.0000     -10.215195      -277.9696 
  26   2.0000     -10.210233      -277.8346 
  27   2.0000     -10.209324      -277.8098 
  28   2.0000     -10.209307      -277.8094 
  29   2.0000     -10.208610      -277.7904 
  30   2.0000     -10.206477      -277.7324 
  31   2.0000     -10.205305      -277.7005 
  32   2.0000     -10.199454      -277.5413 
  33   2.0000     -10.199008      -277.5291 
  34   2.0000      -7.978524      -217.1067 
  35   2.0000      -5.941678      -161.6813 
  36   2.0000      -5.937399      -161.5649 
  37   2.0000      -5.935461      -161.5121 
  38   2.0000      -1.276571       -34.7373 
  39   2.0000      -1.221080       -33.2273 
  40   2.0000      -1.202541       -32.7228 
  41   2.0000      -1.198219       -32.6052 
  42   2.0000      -1.073147       -29.2018 
  43   2.0000      -1.028892       -27.9976 
  44   2.0000      -1.024542       -27.8792 
  45   2.0000      -0.977012       -26.5858 
  46   2.0000      -0.976791       -26.5798 
  47   2.0000      -0.943308       -25.6687 
  48   2.0000      -0.915749       -24.9188 
  49   2.0000      -0.880139       -23.9498 
  50   2.0000      -0.874895       -23.8071 
  51   2.0000      -0.811119       -22.0717 
  52   2.0000      -0.807553       -21.9746 
  53   2.0000      -0.796883       -21.6843 
  54   2.0000      -0.790564       -21.5123 
  55   2.0000      -0.776847       -21.1391 
  56   2.0000      -0.752633       -20.4802 
  57   2.0000      -0.737397       -20.0656 
  58   2.0000      -0.721614       -19.6361 
  59   2.0000      -0.711027       -19.3480 
  60   2.0000      -0.694950       -18.9106 
  61   2.0000      -0.662614       -18.0306 
  62   2.0000      -0.660677       -17.9779 
  63   2.0000      -0.639027       -17.3888 
  64   2.0000      -0.632564       -17.2129 
  65   2.0000      -0.621705       -16.9175 
  66   2.0000      -0.614564       -16.7231 
  67   2.0000      -0.589100       -16.0302 
  68   2.0000      -0.581485       -15.8230 
  69   2.0000      -0.570233       -15.5168 
  70   2.0000      -0.565694       -15.3933 
  71   2.0000      -0.563183       -15.3250 
  72   2.0000      -0.556516       -15.1436 
  73   2.0000      -0.551940       -15.0190 
  74   2.0000      -0.527785       -14.3618 
  75   2.0000      -0.523209       -14.2372 
  76   2.0000      -0.518219       -14.1015 
  77   2.0000      -0.508291       -13.8313 
  78   2.0000      -0.497310       -13.5325 
  79   2.0000      -0.492516       -13.4020 
  80   2.0000      -0.488684       -13.2978 
  81   2.0000      -0.478748       -13.0274 
  82   2.0000      -0.467419       -12.7191 
  83   2.0000      -0.466589       -12.6965 
  84   2.0000      -0.466082       -12.6827 
  85   2.0000      -0.463101       -12.6016 
  86   2.0000      -0.459574       -12.5056 
  87   2.0000      -0.456987       -12.4353 
  88   2.0000      -0.443582       -12.0705 
  89   2.0000      -0.443184       -12.0596 
  90   2.0000      -0.438609       -11.9352 
  91   2.0000      -0.438389       -11.9292 
  92   2.0000      -0.432172       -11.7600 
  93   2.0000      -0.426314       -11.6006 
  94   2.0000      -0.421269       -11.4633 
  95   2.0000      -0.413779       -11.2595 
  96   2.0000      -0.412482       -11.2242 
  97   2.0000      -0.410622       -11.1736 
  98   2.0000      -0.406257       -11.0548 
  99   2.0000      -0.405441       -11.0326 
 100   2.0000      -0.403696       -10.9851 
 101   2.0000      -0.399289       -10.8652 
 102   2.0000      -0.393190       -10.6992 
 103   2.0000      -0.392213       -10.6726 
 104   2.0000      -0.390982       -10.6392 
 105   2.0000      -0.386597       -10.5198 
 106   2.0000      -0.381700       -10.3866 
 107   2.0000      -0.377840       -10.2816 
 108   2.0000      -0.374275       -10.1845 
 109   2.0000      -0.370871       -10.0919 
 110   2.0000      -0.361641        -9.8408 
 111   2.0000      -0.352185        -9.5834 
 112   2.0000      -0.350180        -9.5289 
 113   2.0000      -0.324581        -8.8323 
 114   2.0000      -0.310499        -8.4491 
 115   2.0000      -0.292474        -7.9586 
 116   2.0000      -0.279601        -7.6083 
 117   2.0000      -0.277222        -7.5436 
 118   2.0000      -0.275301        -7.4913 
 119   2.0000      -0.269842        -7.3428 
 120   2.0000      -0.268851        -7.3158 
 121   2.0000      -0.257454        -7.0057 
 122   2.0000      -0.252466        -6.8699 
 123   2.0000      -0.247234        -6.7276 
 124   2.0000      -0.238673        -6.4946 
 125   2.0000      -0.210732        -5.7343 
 126   0.0000      -0.066446        -1.8081 
 127   0.0000      -0.040634        -1.1057 
 128   0.0000      -0.033130        -0.9015 
 129   0.0000      -0.029077        -0.7912 
 130   0.0000      -0.018222        -0.4958 
 131   0.0000       0.015335         0.4173 
 132   0.0000       0.022423         0.6102 
 133   0.0000       0.044988         1.2242 
 134   0.0000       0.053046         1.4434 
 135   0.0000       0.064678         1.7600 
 136   0.0000       0.066564         1.8113 
*Only the first 10 virtual orbitals were printed.

                    ********************************
                    * MULLIKEN POPULATION ANALYSIS *
                    ********************************

-----------------------
MULLIKEN ATOMIC CHARGES
-----------------------
   0 C :   -0.314476
   1 N :   -0.463215
   2 C :    0.496278
   3 O :   -0.475283
   4 C :    0.009565
   5 C :    0.103550
   6 C :   -0.428952
   7 C :    0.584425
   8 O :   -0.429643
   9 N :   -0.647334
  10 C :    0.263054
  11 N :   -0.441673
  12 C :    0.212697
  13 C :    0.116919
  14 C :   -0.148447
  15 C :   -0.207239
  16 C :    0.385377
  17 F :   -0.302233
  18 C :   -0.120235
  19 C :    0.919062
  20 F :   -0.299110
  21 F :   -0.306025
  22 F :   -0.297074
  23 C :   -0.206999
  24 C :   -0.405359
  25 S :    0.322171
  26 C :   -0.208379
  27 C :   -0.103335
  28 C :   -0.197466
  29 C :    0.321615
  30 N :   -0.511402
  31 C :   -0.337077
  32 C :    0.671843
  33 O :   -0.507904
  34 H :    0.181242
  35 H :    0.196439
  36 H :    0.195639
  37 H :    0.164129
  38 H :    0.220704
  39 H :    0.349202
  40 H :    0.160802
  41 H :    0.152020
  42 H :    0.155260
  43 H :    0.183411
  44 H :    0.130700
  45 H :    0.146415
  46 H :    0.144689
  47 H :    0.226147
  48 H :    0.171908
  49 H :    0.173598
Sum of atomic charges:    0.0000000

--------------------------------
MULLIKEN REDUCED ORBITAL CHARGES
--------------------------------
  0 C s       :     3.269681  s :     3.269681
      pz      :     1.097671  p :     2.999794
      px      :     1.109189
      py      :     0.792934
      dz2     :     0.011751  d :     0.045001
      dxz     :     0.004233
      dyz     :     0.006463
      dx2y2   :     0.011188
      dxy     :     0.011366

  1 N s       :     3.601237  s :     3.601237
      pz      :     1.213404  p :     3.823965
      px      :     1.411038
      py      :     1.199522
      dz2     :     0.008392  d :     0.038014
      dxz     :     0.005824
      dyz     :     0.009663
      dx2y2   :     0.006186
      dxy     :     0.007948

  2 C s       :     2.962835  s :     2.962835
      pz      :     0.760509  p :     2.433719
      px      :     0.792303
      py      :     0.880906
      dz2     :     0.023650  d :     0.107168
      dxz     :     0.020624
      dyz     :     0.029505
      dx2y2   :     0.018725
      dxy     :     0.014664

  3 O s       :     3.897396  s :     3.897396
      pz      :     1.368983  p :     4.551797
      px      :     1.490104
      py      :     1.692710
      dz2     :     0.008664  d :     0.026091
      dxz     :     0.006456
      dyz     :     0.005784
      dx2y2   :     0.002229
      dxy     :     0.002958

  4 C s       :     3.150700  s :     3.150700
      pz      :     0.898790  p :     2.802692
      px      :     1.029805
      py      :     0.874098
      dz2     :     0.008991  d :     0.037042
      dxz     :     0.006132
      dyz     :     0.008296
      dx2y2   :     0.007270
      dxy     :     0.006353

  5 C s       :     3.170519  s :     3.170519
      pz      :     0.861150  p :     2.685334
      px      :     0.914451
      py      :     0.909733
      dz2     :     0.008098  d :     0.040597
      dxz     :     0.006644
      dyz     :     0.010932
      dx2y2   :     0.007325
      dxy     :     0.007598

  6 C s       :     3.297016  s :     3.297016
      pz      :     1.015493  p :     3.092970
      px      :     1.018576
      py      :     1.058901
      dz2     :     0.006738  d :     0.038966
      dxz     :     0.009399
      dyz     :     0.008363
      dx2y2   :     0.005544
      dxy     :     0.008921

  7 C s       :     3.008385  s :     3.008385
      pz      :     0.765789  p :     2.308156
      px      :     0.779393
      py      :     0.762975
      dz2     :     0.017773  d :     0.099034
      dxz     :     0.015091
      dyz     :     0.018336
      dx2y2   :     0.018539
      dxy     :     0.029296

  8 O s       :     3.903686  s :     3.903686
      pz      :     1.418533  p :     4.499766
      px      :     1.734553
      py      :     1.346681
      dz2     :     0.005195  d :     0.026191
      dxz     :     0.001812
      dyz     :     0.007945
      dx2y2   :     0.006147
      dxy     :     0.005091

  9 N s       :     3.622814  s :     3.622814
      pz      :     1.492575  p :     3.996344
      px      :     1.301308
      py      :     1.202461
      dz2     :     0.004848  d :     0.028176
      dxz     :     0.005144
      dyz     :     0.004340
      dx2y2   :     0.008882
      dxy     :     0.004962

 10 C s       :     3.044244  s :     3.044244
      pz      :     0.967042  p :     2.619520
      px      :     0.847001
      py      :     0.805476
      dz2     :     0.010678  d :     0.073182
      dxz     :     0.011495
      dyz     :     0.012917
      dx2y2   :     0.019530
      dxy     :     0.018562

 11 N s       :     3.696756  s :     3.696756
      pz      :     1.162009  p :     3.706786
      px      :     1.056934
      py      :     1.487842
      dz2     :     0.006296  d :     0.038132
      dxz     :     0.005016
      dyz     :     0.008187
      dx2y2   :     0.007545
      dxy     :     0.011088

 12 C s       :     3.061478  s :     3.061478
      pz      :     0.958028  p :     2.666577
      px      :     0.902696
      py      :     0.805853
      dz2     :     0.007123  d :     0.059247
      dxz     :     0.008237
      dyz     :     0.011943
      dx2y2   :     0.015998
      dxy     :     0.015945

 13 C s       :     3.140590  s :     3.140590
      pz      :     0.964210  p :     2.702836
      px      :     0.911060
      py      :     0.827566
      dz2     :     0.005424  d :     0.039655
      dxz     :     0.006276
      dyz     :     0.006955
      dx2y2   :     0.010821
      dxy     :     0.010179

 14 C s       :     3.207835  s :     3.207835
      pz      :     0.950739  p :     2.904421
      px      :     0.954081
      py      :     0.999602
      dz2     :     0.005661  d :     0.036191
      dxz     :     0.004607
      dyz     :     0.005681
      dx2y2   :     0.008186
      dxy     :     0.012056

 15 C s       :     3.209605  s :     3.209605
      pz      :     1.019365  p :     2.962976
      px      :     0.974768
      py      :     0.968844
      dz2     :     0.004464  d :     0.034658
      dxz     :     0.005237
      dyz     :     0.006009
      dx2y2   :     0.009794
      dxy     :     0.009154

 16 C s       :     3.102706  s :     3.102706
      pz      :     0.866960  p :     2.439247
      px      :     0.686984
      py      :     0.885303
      dz2     :     0.009967  d :     0.072670
      dxz     :     0.014072
      dyz     :     0.010989
      dx2y2   :     0.019135
      dxy     :     0.018508

 17 F s       :     3.974667  s :     3.974667
      pz      :     1.788127  p :     5.310110
      px      :     1.631253
      py      :     1.890730
      dz2     :     0.002910  d :     0.017456
      dxz     :     0.005448
      dyz     :     0.001614
      dx2y2   :     0.003949
      dxy     :     0.003535

 18 C s       :     3.177300  s :     3.177300
      pz      :     1.033837  p :     2.906150
      px      :     0.970203
      py      :     0.902110
      dz2     :     0.005877  d :     0.036785
      dxz     :     0.004723
      dyz     :     0.006500
      dx2y2   :     0.008478
      dxy     :     0.011207

 19 C s       :     2.796075  s :     2.796075
      pz      :     0.634506  p :     2.145763
      px      :     0.766280
      py      :     0.744977
      dz2     :     0.034667  d :     0.139100
      dxz     :     0.027032
      dyz     :     0.024313
      dx2y2   :     0.025756
      dxy     :     0.027333

 20 F s       :     3.978980  s :     3.978980
      pz      :     1.495384  p :     5.303610
      px      :     1.896928
      py      :     1.911298
      dz2     :     0.008196  d :     0.016520
      dxz     :     0.003961
      dyz     :     0.003583
      dx2y2   :     0.000372
      dxy     :     0.000408

 21 F s       :     3.981315  s :     3.981315
      pz      :     1.865625  p :     5.308442
      px      :     1.877511
      py      :     1.565305
      dz2     :     0.002177  d :     0.016268
      dxz     :     0.000810
      dyz     :     0.004213
      dx2y2   :     0.004880
      dxy     :     0.004188

 22 F s       :     3.978115  s :     3.978115
      pz      :     1.810436  p :     5.302487
      px      :     1.607354
      py      :     1.884697
      dz2     :     0.002276  d :     0.016472
      dxz     :     0.005137
      dyz     :     0.001273
      dx2y2   :     0.004035
      dxy     :     0.003751

 23 C s       :     3.213819  s :     3.213819
      pz      :     0.982163  p :     2.957638
      px      :     0.982136
      py      :     0.993339
      dz2     :     0.004856  d :     0.035542
      dxz     :     0.006018
      dyz     :     0.005601
      dx2y2   :     0.011321
      dxy     :     0.007746

 24 C s       :     3.272209  s :     3.272209
      pz      :     1.084218  p :     3.099243
      px      :     0.958365
      py      :     1.056661
      dz2     :     0.005276  d :     0.033907
      dxz     :     0.005315
      dyz     :     0.005372
      dx2y2   :     0.010642
      dxy     :     0.007301

 25 S s       :     5.812389  s :     5.812389
      pz      :     3.447936  p :     9.756107
      px      :     3.232334
      py      :     3.075837
      dz2     :     0.017868  d :     0.109333
      dxz     :     0.021866
      dyz     :     0.014013
      dx2y2   :     0.042540
      dxy     :     0.013046

 26 C s       :     3.201640  s :     3.201640
      pz      :     0.986324  p :     2.970679
      px      :     1.014125
      py      :     0.970230
      dz2     :     0.007218  d :     0.036061
      dxz     :     0.006290
      dyz     :     0.010256
      dx2y2   :     0.004806
      dxy     :     0.007491

 27 C s       :     3.187976  s :     3.187976
      pz      :     0.947928  p :     2.877325
      px      :     0.947834
      py      :     0.981564
      dz2     :     0.009103  d :     0.038034
      dxz     :     0.006343
      dyz     :     0.009533
      dx2y2   :     0.007981
      dxy     :     0.005074

 28 C s       :     3.181059  s :     3.181059
      pz      :     0.992868  p :     2.982117
      px      :     1.026757
      py      :     0.962492
      dz2     :     0.007388  d :     0.034289
      dxz     :     0.005267
      dyz     :     0.008701
      dx2y2   :     0.006737
      dxy     :     0.006197

 29 C s       :     3.061858  s :     3.061858
      pz      :     0.875424  p :     2.558643
      px      :     0.867463
      py      :     0.815757
      dz2     :     0.011388  d :     0.057884
      dxz     :     0.008623
      dyz     :     0.015173
      dx2y2   :     0.011411
      dxy     :     0.011289

 30 N s       :     3.623787  s :     3.623787
      pz      :     1.249872  p :     3.848414
      px      :     1.437148
      py      :     1.161394
      dz2     :     0.007997  d :     0.039201
      dxz     :     0.006734
      dyz     :     0.009665
      dx2y2   :     0.007717
      dxy     :     0.007089

 31 C s       :     3.276179  s :     3.276179
      pz      :     0.860926  p :     3.015572
      px      :     1.062998
      py      :     1.091647
      dz2     :     0.010788  d :     0.045326
      dxz     :     0.013629
      dyz     :     0.007151
      dx2y2   :     0.002992
      dxy     :     0.010766

 32 C s       :     2.843547  s :     2.843547
      pz      :     0.779352  p :     2.360882
      px      :     0.817485
      py      :     0.764045
      dz2     :     0.032129  d :     0.123728
      dxz     :     0.019766
      dyz     :     0.024230
      dx2y2   :     0.026088
      dxy     :     0.021514

 33 O s       :     3.886013  s :     3.886013
      pz      :     1.572150  p :     4.596504
      px      :     1.439786
      py      :     1.584568
      dz2     :     0.004307  d :     0.025388
      dxz     :     0.004527
      dyz     :     0.005948
      dx2y2   :     0.005342
      dxy     :     0.005264

 34 H s       :     0.818758  s :     0.818758

 35 H s       :     0.803561  s :     0.803561

 36 H s       :     0.804361  s :     0.804361

 37 H s       :     0.835871  s :     0.835871

 38 H s       :     0.779296  s :     0.779296

 39 H s       :     0.650798  s :     0.650798

 40 H s       :     0.839198  s :     0.839198

 41 H s       :     0.847980  s :     0.847980

 42 H s       :     0.844740  s :     0.844740

 43 H s       :     0.816589  s :     0.816589

 44 H s       :     0.869300  s :     0.869300

 45 H s       :     0.853585  s :     0.853585

 46 H s       :     0.855311  s :     0.855311

 47 H s       :     0.773853  s :     0.773853

 48 H s       :     0.828092  s :     0.828092

 49 H s       :     0.826402  s :     0.826402



                     *******************************
                     * LOEWDIN POPULATION ANALYSIS *
                     *******************************

----------------------
LOEWDIN ATOMIC CHARGES
----------------------
   0 C :   -0.258186
   1 N :   -0.020332
   2 C :    0.110129
   3 O :   -0.270366
   4 C :   -0.072148
   5 C :    0.030215
   6 C :   -0.238386
   7 C :    0.155377
   8 O :   -0.233547
   9 N :   -0.205842
  10 C :   -0.075630
  11 N :   -0.192175
  12 C :   -0.010130
  13 C :   -0.021336
  14 C :   -0.097687
  15 C :   -0.152184
  16 C :    0.130504
  17 F :   -0.094685
  18 C :   -0.097225
  19 C :    0.313325
  20 F :   -0.110930
  21 F :   -0.111458
  22 F :   -0.110927
  23 C :   -0.105725
  24 C :   -0.350474
  25 S :    0.432170
  26 C :   -0.159058
  27 C :   -0.099545
  28 C :   -0.163290
  29 C :    0.055673
  30 N :   -0.026953
  31 C :   -0.265408
  32 C :    0.137417
  33 O :   -0.317209
  34 H :    0.142788
  35 H :    0.153300
  36 H :    0.152623
  37 H :    0.140882
  38 H :    0.174710
  39 H :    0.271176
  40 H :    0.150293
  41 H :    0.147943
  42 H :    0.145653
  43 H :    0.161329
  44 H :    0.131613
  45 H :    0.141325
  46 H :    0.142030
  47 H :    0.169118
  48 H :    0.135281
  49 H :    0.135961

-------------------------------
LOEWDIN REDUCED ORBITAL CHARGES
-------------------------------
  0 C s       :     2.972260  s :     2.972260
      pz      :     1.142266  p :     3.197170
      px      :     1.150451
      py      :     0.904453
      dz2     :     0.022253  d :     0.088756
      dxz     :     0.007182
      dyz     :     0.013446
      dx2y2   :     0.022742
      dxy     :     0.023134

  1 N s       :     3.078058  s :     3.078058
      pz      :     1.241819  p :     3.842158
      px      :     1.386589
      py      :     1.213750
      dz2     :     0.022859  d :     0.100117
      dxz     :     0.017014
      dyz     :     0.026062
      dx2y2   :     0.015485
      dxy     :     0.018697

  2 C s       :     2.824823  s :     2.824823
      pz      :     0.936537  p :     2.809787
      px      :     0.882932
      py      :     0.990318
      dz2     :     0.053898  d :     0.255261
      dxz     :     0.051221
      dyz     :     0.072546
      dx2y2   :     0.042946
      dxy     :     0.034649

  3 O s       :     3.584283  s :     3.584283
      pz      :     1.430204  p :     4.634459
      px      :     1.501622
      py      :     1.702633
      dz2     :     0.015755  d :     0.051623
      dxz     :     0.013640
      dyz     :     0.013224
      dx2y2   :     0.003851
      dxy     :     0.005153

  4 C s       :     2.863365  s :     2.863365
      pz      :     1.029744  p :     3.110880
      px      :     1.049163
      py      :     1.031973
      dz2     :     0.023169  d :     0.097903
      dxz     :     0.015547
      dyz     :     0.024286
      dx2y2   :     0.018558
      dxy     :     0.016343

  5 C s       :     2.882207  s :     2.882207
      pz      :     1.000894  p :     2.990212
      px      :     0.953150
      py      :     1.036167
      dz2     :     0.019751  d :     0.097366
      dxz     :     0.015173
      dyz     :     0.026560
      dx2y2   :     0.017986
      dxy     :     0.017896

  6 C s       :     2.935279  s :     2.935279
      pz      :     1.061783  p :     3.220521
      px      :     1.064925
      py      :     1.093813
      dz2     :     0.014970  d :     0.082586
      dxz     :     0.019594
      dyz     :     0.016966
      dx2y2   :     0.010997
      dxy     :     0.020057

  7 C s       :     2.868591  s :     2.868591
      pz      :     0.856757  p :     2.747725
      px      :     0.931303
      py      :     0.959664
      dz2     :     0.038219  d :     0.228308
      dxz     :     0.034679
      dyz     :     0.043982
      dx2y2   :     0.042250
      dxy     :     0.069178

  8 O s       :     3.591726  s :     3.591726
      pz      :     1.435230  p :     4.590669
      px      :     1.724738
      py      :     1.430701
      dz2     :     0.007749  d :     0.051152
      dxz     :     0.002944
      dyz     :     0.017712
      dx2y2   :     0.013904
      dxy     :     0.008842

  9 N s       :     3.150988  s :     3.150988
      pz      :     1.476312  p :     3.986109
      px      :     1.304543
      py      :     1.205254
      dz2     :     0.009768  d :     0.068745
      dxz     :     0.012915
      dyz     :     0.010754
      dx2y2   :     0.020659
      dxy     :     0.014649

 10 C s       :     2.895561  s :     2.895561
      pz      :     1.010875  p :     3.011160
      px      :     0.982092
      py      :     1.018193
      dz2     :     0.021645  d :     0.168909
      dxz     :     0.025436
      dyz     :     0.028407
      dx2y2   :     0.048254
      dxy     :     0.045167

 11 N s       :     3.244862  s :     3.244862
      pz      :     1.193270  p :     3.863868
      px      :     1.139244
      py      :     1.531353
      dz2     :     0.012994  d :     0.083445
      dxz     :     0.014017
      dyz     :     0.014531
      dx2y2   :     0.016602
      dxy     :     0.025302

 12 C s       :     2.860062  s :     2.860062
      pz      :     0.992504  p :     3.007102
      px      :     0.997712
      py      :     1.016886
      dz2     :     0.014879  d :     0.142967
      dxz     :     0.018078
      dyz     :     0.028069
      dx2y2   :     0.040795
      dxy     :     0.041145

 13 C s       :     2.868944  s :     2.868944
      pz      :     0.988043  p :     3.052042
      px      :     1.011420
      py      :     1.052578
      dz2     :     0.011552  d :     0.100350
      dxz     :     0.014182
      dyz     :     0.016968
      dx2y2   :     0.029630
      dxy     :     0.028018

 14 C s       :     2.917379  s :     2.917379
      pz      :     0.981937  p :     3.095941
      px      :     1.047044
      py      :     1.066961
      dz2     :     0.011181  d :     0.084367
      dxz     :     0.011201
      dyz     :     0.013516
      dx2y2   :     0.020982
      dxy     :     0.027486

 15 C s       :     2.919628  s :     2.919628
      pz      :     1.031456  p :     3.150168
      px      :     1.051123
      py      :     1.067589
      dz2     :     0.009311  d :     0.082389
      dxz     :     0.013390
      dyz     :     0.012111
      dx2y2   :     0.023414
      dxy     :     0.024162

 16 C s       :     2.864039  s :     2.864039
      pz      :     0.920612  p :     2.827048
      px      :     0.855532
      py      :     1.050904
      dz2     :     0.021527  d :     0.178409
      dxz     :     0.034409
      dyz     :     0.026826
      dx2y2   :     0.048574
      dxy     :     0.047072

 17 F s       :     3.736235  s :     3.736235
      pz      :     1.789057  p :     5.323536
      px      :     1.643487
      py      :     1.890993
      dz2     :     0.005746  d :     0.034914
      dxz     :     0.011127
      dyz     :     0.003132
      dx2y2   :     0.007919
      dxy     :     0.006989

 18 C s       :     2.889841  s :     2.889841
      pz      :     1.047570  p :     3.113860
      px      :     1.037485
      py      :     1.028805
      dz2     :     0.012502  d :     0.093524
      dxz     :     0.011527
      dyz     :     0.015917
      dx2y2   :     0.023545
      dxy     :     0.030034

 19 C s       :     2.848650  s :     2.848650
      pz      :     0.779619  p :     2.507211
      px      :     0.872203
      py      :     0.855389
      dz2     :     0.087493  d :     0.330814
      dxz     :     0.062880
      dyz     :     0.053474
      dx2y2   :     0.058120
      dxy     :     0.068847

 20 F s       :     3.760430  s :     3.760430
      pz      :     1.520788  p :     5.319158
      px      :     1.894373
      py      :     1.903998
      dz2     :     0.017029  d :     0.031342
      dxz     :     0.007219
      dyz     :     0.005903
      dx2y2   :     0.000505
      dxy     :     0.000686

 21 F s       :     3.757322  s :     3.757322
      pz      :     1.864141  p :     5.323147
      px      :     1.876587
      py      :     1.582419
      dz2     :     0.004057  d :     0.030989
      dxz     :     0.001499
      dyz     :     0.007650
      dx2y2   :     0.010247
      dxy     :     0.007536

 22 F s       :     3.760743  s :     3.760743
      pz      :     1.813906  p :     5.318826
      px      :     1.626485
      py      :     1.878435
      dz2     :     0.003976  d :     0.031358
      dxz     :     0.010042
      dyz     :     0.002290
      dx2y2   :     0.008543
      dxy     :     0.006507

 23 C s       :     2.915618  s :     2.915618
      pz      :     1.001477  p :     3.107606
      px      :     1.028792
      py      :     1.077336
      dz2     :     0.009768  d :     0.082501
      dxz     :     0.014731
      dyz     :     0.011456
      dx2y2   :     0.026391
      dxy     :     0.020155

 24 C s       :     2.982297  s :     2.982297
      pz      :     1.117435  p :     3.288942
      px      :     1.068365
      py      :     1.103142
      dz2     :     0.010609  d :     0.079235
      dxz     :     0.013390
      dyz     :     0.011095
      dx2y2   :     0.027020
      dxy     :     0.017120

 25 S s       :     5.530079  s :     5.530079
      pz      :     3.456497  p :     9.907733
      px      :     3.296653
      py      :     3.154582
      dz2     :     0.020921  d :     0.130019
      dxz     :     0.026130
      dyz     :     0.015473
      dx2y2   :     0.052681
      dxy     :     0.014814

 26 C s       :     2.912918  s :     2.912918
      pz      :     1.060612  p :     3.160225
      px      :     1.044490
      py      :     1.055122
      dz2     :     0.017976  d :     0.085915
      dxz     :     0.013703
      dyz     :     0.026683
      dx2y2   :     0.011956
      dxy     :     0.015596

 27 C s       :     2.913104  s :     2.913104
      pz      :     1.046986  p :     3.096437
      px      :     0.987669
      py      :     1.061782
      dz2     :     0.022407  d :     0.090004
      dxz     :     0.016807
      dyz     :     0.022989
      dx2y2   :     0.016278
      dxy     :     0.011523

 28 C s       :     2.911138  s :     2.911138
      pz      :     1.071359  p :     3.170622
      px      :     1.055905
      py      :     1.043358
      dz2     :     0.016550  d :     0.081530
      dxz     :     0.010922
      dyz     :     0.021286
      dx2y2   :     0.016554
      dxy     :     0.016219

 29 C s       :     2.846083  s :     2.846083
      pz      :     1.000974  p :     2.957441
      px      :     0.945306
      py      :     1.011160
      dz2     :     0.027694  d :     0.140803
      dxz     :     0.021042
      dyz     :     0.038129
      dx2y2   :     0.027138
      dxy     :     0.026801

 30 N s       :     3.067718  s :     3.067718
      pz      :     1.255634  p :     3.859210
      px      :     1.406581
      py      :     1.196995
      dz2     :     0.020581  d :     0.100025
      dxz     :     0.014951
      dyz     :     0.026185
      dx2y2   :     0.020232
      dxy     :     0.018077

 31 C s       :     2.973586  s :     2.973586
      pz      :     0.956186  p :     3.202800
      px      :     1.115626
      py      :     1.130988
      dz2     :     0.022698  d :     0.089021
      dxz     :     0.027220
      dyz     :     0.014073
      dx2y2   :     0.004876
      dxy     :     0.020154

 32 C s       :     2.801721  s :     2.801721
      pz      :     0.933979  p :     2.772854
      px      :     0.898977
      py      :     0.939897
      dz2     :     0.073833  d :     0.288008
      dxz     :     0.046831
      dyz     :     0.058526
      dx2y2   :     0.058522
      dxy     :     0.050296

 33 O s       :     3.586300  s :     3.586300
      pz      :     1.597938  p :     4.680742
      px      :     1.466764
      py      :     1.616040
      dz2     :     0.007031  d :     0.050167
      dxz     :     0.010425
      dyz     :     0.012716
      dx2y2   :     0.008168
      dxy     :     0.011827

 34 H s       :     0.857212  s :     0.857212

 35 H s       :     0.846700  s :     0.846700

 36 H s       :     0.847377  s :     0.847377

 37 H s       :     0.859118  s :     0.859118

 38 H s       :     0.825290  s :     0.825290

 39 H s       :     0.728824  s :     0.728824

 40 H s       :     0.849707  s :     0.849707

 41 H s       :     0.852057  s :     0.852057

 42 H s       :     0.854347  s :     0.854347

 43 H s       :     0.838671  s :     0.838671

 44 H s       :     0.868387  s :     0.868387

 45 H s       :     0.858675  s :     0.858675

 46 H s       :     0.857970  s :     0.857970

 47 H s       :     0.830882  s :     0.830882

 48 H s       :     0.864719  s :     0.864719

 49 H s       :     0.864039  s :     0.864039



                      *****************************
                      * MAYER POPULATION ANALYSIS *
                      *****************************

  NA   - Mulliken gross atomic population
  ZA   - Total nuclear charge
  QA   - Mulliken gross atomic charge
  VA   - Mayer's total valence
  BVA  - Mayer's bonded valence
  FA   - Mayer's free valence

  ATOM       NA         ZA         QA         VA         BVA        FA
  0 C      6.3145     6.0000    -0.3145     3.7669     3.7669    -0.0000
  1 N      7.4632     7.0000    -0.4632     3.0663     3.0663     0.0000
  2 C      5.5037     6.0000     0.4963     3.8878     3.8878     0.0000
  3 O      8.4753     8.0000    -0.4753     2.0479     2.0479     0.0000
  4 C      5.9904     6.0000     0.0096     3.8860     3.8860     0.0000
  5 C      5.8965     6.0000     0.1035     3.9387     3.9387     0.0000
  6 C      6.4290     6.0000    -0.4290     3.7979     3.7979     0.0000
  7 C      5.4156     6.0000     0.5844     3.8653     3.8653     0.0000
  8 O      8.4296     8.0000    -0.4296     2.0814     2.0814     0.0000
  9 N      7.6473     7.0000    -0.6473     2.9087     2.9087     0.0000
 10 C      5.7369     6.0000     0.2631     3.8283     3.8283    -0.0000
 11 N      7.4417     7.0000    -0.4417     2.9686     2.9686     0.0000
 12 C      5.7873     6.0000     0.2127     4.0107     4.0107     0.0000
 13 C      5.8831     6.0000     0.1169     3.9830     3.9830     0.0000
 14 C      6.1484     6.0000    -0.1484     3.8778     3.8778     0.0000
 15 C      6.2072     6.0000    -0.2072     3.8568     3.8568    -0.0000
 16 C      5.6146     6.0000     0.3854     3.8328     3.8328     0.0000
 17 F      9.3022     9.0000    -0.3022     1.0706     1.0706     0.0000
 18 C      6.1202     6.0000    -0.1202     3.8612     3.8612     0.0000
 19 C      5.0809     6.0000     0.9191     3.9141     3.9141     0.0000
 20 F      9.2991     9.0000    -0.2991     1.0558     1.0558    -0.0000
 21 F      9.3060     9.0000    -0.3060     1.0615     1.0615     0.0000
 22 F      9.2971     9.0000    -0.2971     1.0569     1.0569    -0.0000
 23 C      6.2070     6.0000    -0.2070     3.8932     3.8932    -0.0000
 24 C      6.4054     6.0000    -0.4054     3.7640     3.7640    -0.0000
 25 S     15.6778    16.0000     0.3222     2.5615     2.5615     0.0000
 26 C      6.2084     6.0000    -0.2084     3.9246     3.9246    -0.0000
 27 C      6.1033     6.0000    -0.1033     3.9499     3.9499     0.0000
 28 C      6.1975     6.0000    -0.1975     3.8931     3.8931     0.0000
 29 C      5.6784     6.0000     0.3216     3.7690     3.7690     0.0000
 30 N      7.5114     7.0000    -0.5114     3.0865     3.0865     0.0000
 31 C      6.3371     6.0000    -0.3371     3.7638     3.7638     0.0000
 32 C      5.3282     6.0000     0.6718     3.9458     3.9458     0.0000
 33 O      8.5079     8.0000    -0.5079     2.0314     2.0314     0.0000
 34 H      0.8188     1.0000     0.1812     0.9277     0.9277    -0.0000
 35 H      0.8036     1.0000     0.1964     0.9348     0.9348    -0.0000
 36 H      0.8044     1.0000     0.1956     0.9333     0.9333    -0.0000
 37 H      0.8359     1.0000     0.1641     0.9235     0.9235    -0.0000
 38 H      0.7793     1.0000     0.2207     0.9336     0.9336     0.0000
 39 H      0.6508     1.0000     0.3492     0.8624     0.8624     0.0000
 40 H      0.8392     1.0000     0.1608     0.9451     0.9451     0.0000
 41 H      0.8480     1.0000     0.1520     0.9367     0.9367     0.0000
 42 H      0.8447     1.0000     0.1553     0.9482     0.9482    -0.0000
 43 H      0.8166     1.0000     0.1834     0.9364     0.9364     0.0000
 44 H      0.8693     1.0000     0.1307     0.9406     0.9406    -0.0000
 45 H      0.8536     1.0000     0.1464     0.9342     0.9342     0.0000
 46 H      0.8553     1.0000     0.1447     0.9406     0.9406     0.0000
 47 H      0.7739     1.0000     0.2261     0.9349     0.9349     0.0000
 48 H      0.8281     1.0000     0.1719     0.9268     0.9268     0.0000
 49 H      0.8264     1.0000     0.1736     0.9264     0.9264     0.0000

  Mayer bond orders larger than 0.100000
B(  0-C ,  1-N ) :   0.9153 B(  0-C , 34-H ) :   0.9398 B(  0-C , 35-H ) :   0.9243 
B(  0-C , 36-H ) :   0.9249 B(  1-N ,  2-C ) :   0.9948 B(  1-N , 32-C ) :   1.0429 
B(  2-C ,  3-O ) :   1.7658 B(  2-C ,  4-C ) :   1.0535 B(  4-C ,  5-C ) :   1.3695 
B(  4-C , 29-C ) :   1.2872 B(  5-C ,  6-C ) :   0.9751 B(  5-C , 26-C ) :   1.4213 
B(  6-C ,  7-C ) :   0.9567 B(  6-C , 37-H ) :   0.9128 B(  6-C , 38-H ) :   0.8957 
B(  7-C ,  8-O ) :   1.8389 B(  7-C ,  9-N ) :   1.0005 B(  9-N , 10-C ) :   0.9549 
B(  9-N , 39-H ) :   0.8057 B( 10-C , 11-N ) :   1.4802 B( 10-C , 24-C ) :   0.1058 
B( 10-C , 25-S ) :   1.1851 B( 11-N , 12-C ) :   1.2876 B( 12-C , 13-C ) :   1.0539 
B( 12-C , 24-C ) :   1.5181 B( 13-C , 14-C ) :   1.3992 B( 13-C , 23-C ) :   1.3854 
B( 14-C , 15-C ) :   1.4035 B( 14-C , 40-H ) :   0.9111 B( 15-C , 16-C ) :   1.3840 
B( 15-C , 41-H ) :   0.9194 B( 16-C , 17-F ) :   0.9530 B( 16-C , 18-C ) :   1.3222 
B( 18-C , 19-C ) :   0.9650 B( 18-C , 23-C ) :   1.4003 B( 19-C , 20-F ) :   0.9675 
B( 19-C , 21-F ) :   0.9437 B( 19-C , 22-F ) :   0.9781 B( 23-C , 42-H ) :   0.9069 
B( 24-C , 25-S ) :   1.1111 B( 24-C , 43-H ) :   0.9011 B( 26-C , 27-C ) :   1.4063 
B( 26-C , 44-H ) :   0.9242 B( 27-C , 28-C ) :   1.4734 B( 27-C , 45-H ) :   0.9252 
B( 28-C , 29-C ) :   1.3409 B( 28-C , 46-H ) :   0.9137 B( 29-C , 30-N ) :   0.9756 
B( 30-N , 31-C ) :   0.9335 B( 30-N , 32-C ) :   1.0395 B( 31-C , 47-H ) :   0.9133 
B( 31-C , 48-H ) :   0.9315 B( 31-C , 49-H ) :   0.9321 B( 32-C , 33-O ) :   1.7873 


-------
TIMINGS
-------

Total SCF time: 0 days 0 hours 5 min 43 sec 

Total time                  ....     343.166 sec
Sum of individual times     ....     342.460 sec  ( 99.8%)

SCF preparation             ....       0.345 sec  (  0.1%)
Fock matrix formation       ....     339.421 sec  ( 98.9%)
  Startup                   ....       0.241 sec  (  0.1% of F)
  Split-RI-J                ....      48.364 sec  ( 14.2% of F)
  Chain of spheres X        ....     257.816 sec  ( 76.0% of F)
  XC integration            ....      32.026 sec  (  9.4% of F)
    XC Preparation          ....       0.000 sec  (  0.0% of XC)
    Basis function eval.    ....      12.389 sec  ( 38.7% of XC)
    Density eval.           ....       7.404 sec  ( 23.1% of XC)
    XC-Functional eval.     ....       1.510 sec  (  4.7% of XC)
    XC-Potential eval.      ....       8.823 sec  ( 27.5% of XC)
Diagonalization             ....       0.000 sec  (  0.0%)
Density matrix formation    ....       0.569 sec  (  0.2%)
Total Energy calculation    ....       0.094 sec  (  0.0%)
Population analysis         ....       0.074 sec  (  0.0%)
Orbital Transformation      ....       0.170 sec  (  0.0%)
Orbital Orthonormalization  ....       0.000 sec  (  0.0%)
DIIS solution               ....       0.909 sec  (  0.3%)
SOSCF solution              ....       0.878 sec  (  0.3%)
Finished LeanSCF after 343.3 sec

Maximum memory used throughout the entire LEANSCF-calculation: 81.3 MB

-------------------------   --------------------
FINAL SINGLE POINT ENERGY     -2089.264628169114
-------------------------   --------------------


------------------------------------------------------------------------------
                              ORCA PROPERTY CALCULATIONS
------------------------------------------------------------------------------

GBWName                                 ... /home/nmrbox/aojoawo/Documents/ERDOS/inputs/CHEMBL3897802.gbw
Number of atoms                         ...     50
Number of basis functions               ...    512
Max core memory                         ...   1024 MB

Electric properties:
Dipole moment                           ... YES
Quadrupole moment                       ...  NO
Static polarizability (Dipole/Dipole)   ...  NO
Static polarizability (Dipole/Quad.)    ...  NO
Static polarizability (Quad./Quad.)     ...  NO
Static polarizability (Velocity)        ...  NO

Atomic electric properties:
Dipole moment                           ...  NO
Quadrupole moment                       ...  NO
Static polarizability                   ...  NO

Choice of electric origin               ... Center of mass
Position of electric origin             ...     1.824802     0.651974     0.038171

General magnetic properties:
Magnetizability                         ...  NO

EPR properties:
g-Tensor (aka g-matrix)                 ...  NO
Zero-Field splitting spin-orbit         ...  NO
Zero-field splitting spin-spin          ...  NO
Hyperfine couplings                     ...  NO (   0 nuclei)
Quadrupole couplings                    ...  NO (   0 nuclei)
Contact density                         ...  NO (   0 nuclei)

NMR properties:
Chemical shifts                         ...  NO (   0 nuclei)
Spin-rotation constants                 ...  NO (   0 nuclei)
Spin-spin couplings                     ...  NO (   0 nuclei,    0 pairs)

Choice of magnetic origin               ... GIAO
Position of magnetic origin             ...     0.000000     0.000000     0.000000

Properties with geometric perturbations:
SCF Hessian                             ...  NO
IR spectrum                             ...  NO
VCD spectrum                            ...  NO
X-ray spectroscopy properties:
SCF XES/XAS/RIXS spectra                ...  NO


-------------
DIPOLE MOMENT
-------------

Method             : SCF
Type of density    : Electron Density
Multiplicity       :   1
Irrep              :   0
Energy             : -2089.2646281691136210 Eh
Relativity type    : 
Basis              : AO
                                X                 Y                 Z
Electronic contribution:     62.302793223      13.670015645       9.311511131
Nuclear contribution   :    -64.332416023     -16.060324023      -8.730990463
                        -----------------------------------------
Total Dipole Moment    :     -2.029622799      -2.390308378       0.580520668
                        -----------------------------------------
Magnitude (a.u.)       :      3.189035449
Magnitude (Debye)      :      8.105883926



--------------------
Rotational spectrum 
--------------------
 
Rotational constants in cm-1:             0.007397             0.001315             0.001304 
Rotational constants in MHz :           221.745800            39.433013            39.080813 

Dipole components along the rotational axes: 
x,y,z [a.u.] :    -2.101947    -2.297819    -0.686870 
x,y,z [Debye]:    -5.342726    -5.840593    -1.745884 

 

Dipole moment calculation done in   0.1 sec 

Maximum memory used throughout the entire PROP-calculation: 40.0 MB

--------------------------------
SUGGESTED CITATIONS FOR THIS RUN
--------------------------------

Below you find a list of papers that are relevant to this ORCA run
We neither can nor want to force you to cite these papers, but we appreciate if you do
You receive ORCA, which is the product of decades of hard work by many enthusiastic individuals, for free
The only thing we kindly ask in return is that you cite our papers,
We deeply appreciate it, if you show your appreciation for ORCA by not just citing the generic ORCA reference.

Please note that relegating all ORCA citations to the supporting information does *not* help us.
SI sections are not indexed - citations you put there will not count into any citation statistics
But we need these citations in order to attract the funding resources that allow us to do what we are doing

Therefore, if you are a happy ORCA user, please consider citing a few of the papers listed below in the main body of your paper

In addition to the list printed below, the program has created the file /home/nmrbox/aojoawo/Documents/ERDOS/inputs/CHEMBL3897802.bibtex that contains the list in bibtex format
You can import this file easily into all common literature databanks and citation aid programs


List of essential papers. We consider these as the minimum necessary citations

  1. Neese,F.
     Software update: the ORCA program system, version 5.0
     WIRES Comput. Molec. Sci., 2022 12(1)e1606
     doi.org/10.1002/wcms.1606

List of papers to cite with high priority. The work reported in these papers was absolutely
necessary for this run to complete.
Our perspective: the developers of density functionals and basis sets usually get cited in chemistry papers
Good! But without the algorithms to do something with them, the functionals or basis sets would not do anything.
Hence, in our opinion, the algorithm design and method developments papers are equally worthy of getting cited

  1. Neese,F.
     An improvement of the resolution of the identity approximation for the formation of the Coulomb matrix
     J. Comp. Chem., 2003 24(14)1740-1747
     doi.org/10.1002/jcc.10318
  2. Neese,F.; Wennmohs,F.; Hansen,A.; Becker,U.
     Efficient, approximate and parallel Hartree-Fock and hybrid DFT calculations. A 'chain-of-spheres' algorithm for the Hartree-Fock exchange
     Chem. Phys., 2009 356(1-3)98-109
     doi.org/10.1016/j.chemphys.2008.10.036
  3. Helmich-Paris,B.; de Souza,B.; Neese,F.; Izsák,R.
     An improved chain of spheres for exchange algorithm
     J. Chem. Phys., 2021 155 104109
     doi.org/doi: 10.1063/5.0058766.
  4. Neese,F.
     The SHARK Integral Generation and Digestion System
     J. Comp. Chem., 2022  1-16
     doi.org/10.1002/jcc.26942

List of suggested additional citations. These are papers that are important in the 'surrounding' of 
of this run, or papers that preceded the highly important papers. If you like your results we are grateful for a citation.

  1. Izsak,R.; Neese,F.
     An overlap fitted chain of spheres exchange method
     J. Chem. Phys., 2011 135 144105
     doi.org/10.1063/1.3646921
  2. Izsak,R.; Hansen,A.; Neese,F.
     The resolution of identity and chain of spheres approximations for the LPNO-CCSD singles Fock term
     Molec. Phys., 2012 110 2413-2417
     doi.org/10.1080/00268976.2012.687466
  3. Neese,F.
     The ORCA program system
     WIRES Comput. Molec. Sci., 2012 2(1)73-78
     doi.org/10.1002/wcms.81
  4. Izsak,R.; Neese,F.; Klopper,W.
     Robust fitting techniques in the chain of spheres approximation to the Fock exchange: The role of the complementary space
     J. Chem. Phys., 2013 139 
     doi.org/10.1063/1.4819264
  5. Neese,F.
     Software update: the ORCA program system, version 4.0
     WIRES Comput. Molec. Sci., 2018 8(1)1-6
     doi.org/10.1002/wcms.1327
  6. Neese,F.; Wennmohs,F.; Becker,U.; Riplinger,C.
     The ORCA quantum chemistry program package
     J. Chem. Phys., 2020 152 Art. No. L224108
     doi.org/10.1063/5.0004608

List of optional additional citations

  1. Neese,F.
     Approximate second-order SCF convergence for spin unrestricted wavefunctions
     Chem. Phys. Lett., 2000 325(1-3)93-98
     doi.org/10.1016/s0009-2614(00)00662-x

Timings for individual modules:

Sum of individual times          ...      357.786 sec (=   5.963 min)
Startup calculation              ...        9.601 sec (=   0.160 min)   2.7 %
SCF iterations                   ...      347.897 sec (=   5.798 min)  97.2 %
Property calculations            ...        0.287 sec (=   0.005 min)   0.1 %
                             ****ORCA TERMINATED NORMALLY****
TOTAL RUN TIME: 0 days 0 hours 5 minutes 58 seconds 680 msec
