
                                 *****************
                                 * O   R   C   A *
                                 *****************

                                            #,                                       
                                            ###                                      
                                            ####                                     
                                            #####                                    
                                            ######                                   
                                           ########,                                 
                                     ,,################,,,,,                         
                               ,,#################################,,                 
                          ,,##########################################,,             
                       ,#########################################, ''#####,          
                    ,#############################################,,   '####,        
                  ,##################################################,,,,####,       
                ,###########''''           ''''###############################       
              ,#####''   ,,,,##########,,,,          '''####'''          '####       
            ,##' ,,,,###########################,,,                        '##       
           ' ,,###''''                  '''############,,,                           
         ,,##''                                '''############,,,,        ,,,,,,###''
      ,#''                                            '''#######################'''  
     '                                                          ''''####''''         
             ,#######,   #######,   ,#######,      ##                                
            ,#'     '#,  ##    ##  ,#'     '#,    #''#        ,####,   ,####,        
            ##       ##  ##   ,#'  ##            #'  '#       #'       #'  '#        
            ##       ##  #######   ##           ,######,      #####,   #    #        
            '#,     ,#'  ##    ##  '#,     ,#' ,#      #,     #,   #   #,  ,#        
             '#######'   ##     ##  '#######'  #'      '#     '####' # '####'        



                #########################################################
                #                        -***-                          #
                #          Department of theory and spectroscopy        #
                #                                                       #
                #                      Frank Neese                      #
                #                                                       #
                #     Directorship, Architecture, Infrastructure        #
                #                    SHARK, DRIVERS                     #
                #        Core code/Algorithms in most modules           #
                #                                                       #
                #        Max Planck Institute fuer Kohlenforschung      #
                #                Kaiser Wilhelm Platz 1                 #
                #                 D-45470 Muelheim/Ruhr                 #
                #                      Germany                          #
                #                                                       #
                #                  All rights reserved                  #
                #                        -***-                          #
                #########################################################


                         Program Version 6.0.0  -   RELEASE  -


 With contributions from (in alphabetic order):
   Daniel Aravena         : Magnetic Suceptibility
   Michael Atanasov       : Ab Initio Ligand Field Theory (pilot matlab implementation)
   Alexander A. Auer      : GIAO ZORA, VPT2 properties, NMR spectrum
   Ute Becker             : All parallelization in ORCA, NUMFREQ, NUMCALC
   Giovanni Bistoni       : ED, misc. LED, open-shell LED, HFLD
   Martin Brehm           : Molecular dynamics
   Dmytro Bykov           : pre 5.0 version of the SCF Hessian
   Marcos Casanova-Páez   : Triplet and SCS-CIS(D). UHF-(DLPNO)-IP/EA/STEOM-CCSD. UHF-CVS-IP/STEOM-CCSD
   Vijay G. Chilkuri      : MRCI spin determinant printing, contributions to CSF-ICE
   Pauline Colinet        : FMM embedding
   Dipayan Datta          : RHF DLPNO-CCSD density
   Achintya Kumar Dutta   : EOM-CC, STEOM-CC
   Nicolas Foglia         : Exact transition moments, OPA infrastructure, MCD improvements
   Dmitry Ganyushin       : Spin-Orbit,Spin-Spin,Magnetic field MRCI
   Miquel Garcia          : C-PCM and meta-GGA Hessian, CCSD/C-PCM, Gaussian charge scheme
   Tiago L. C. Gouveia    : GS-ROHF, GS-ROCIS
   Yang Guo               : DLPNO-NEVPT2, F12-NEVPT2, CIM, IAO-localization
   Andreas Hansen         : Spin unrestricted coupled pair/coupled cluster methods
   Ingolf Harden          : AUTO-CI MPn and infrastructure 
   Benjamin Helmich-Paris : MC-RPA, TRAH-(SCF,CASSCF), AVAS, COSX integrals, SCF dyn. polar.
   Lee Huntington         : MR-EOM, pCC
   Robert Izsak           : Overlap fitted RIJCOSX, COSX-SCS-MP3, EOM
   Riya Kayal             : Wick's Theorem for AUTO-CI, AUTO-CI UHF-CCSDT
   Emily Kempfer          : AUTO-CI, RHF CISDT and CCSDT
   Christian Kollmar      : KDIIS, OOCD, Brueckner-CCSD(T), CCSD density, CASPT2, CASPT2-K, improved NEVPT2
   Axel Koslowski         : Symmetry handling
   Simone Kossmann        : Meta GGA functionals, TD-DFT gradient, OOMP2, (MP2 Hessian; deprecated post 5.0)
   Lucas Lang             : DCDCAS
   Marvin Lechner         : AUTO-CI (C++ implementation), FIC-MRCC
   Spencer Leger          : CASSCF response
   Dagmar Lenk            : GEPOL surface, SMD, ORCA-2-JSON
   Dimitrios Liakos       : Extrapolation schemes; Compound Job, initial MDCI parallelization
   Dimitrios Manganas     : Further ROCIS development; embedding schemes. LFT, Crystal Embedding
   Dimitrios Pantazis     : SARC Basis sets
   Anastasios Papadopoulos: AUTO-CI, single reference methods and gradients
   Taras Petrenko         : pre 6.0 DFT Hessian and TD-DFT gradient, (ASA, deprecated), ECA, 1-Electron XAS/XES, NRVS
   Peter Pinski           : DLPNO-MP2, DLPNO-MP2 Gradient
   Christoph Reimann      : Effective Core Potentials
   Marius Retegan         : Local ZFS, SOC
   Christoph Riplinger    : Optimizer, TS searches, QM/MM, DLPNO-CCSD(T), (RO)-DLPNO pert. Triples
   Michael Roemelt        : Original ROCIS implementation
   Masaaki Saitow         : Open-shell DLPNO-CCSD energy and density
   Barbara Sandhoefer     : DKH picture change effects
   Kantharuban Sivalingam : CASSCF convergence/infrastructure, NEVPT2 and variants, FIC-MRCI
   Bernardo de Souza      : ESD, SOC TD-DFT
   Georgi Stoychev        : AutoAux, RI-MP2 NMR, DLPNO-MP2 response, X2C
   Van Anh Tran           : RI-MP2 g-tensors
   Willem Van den Heuvel  : Paramagnetic NMR
   Zikuan Wang            : NOTCH, Electric field optimization 
   Frank Wennmohs         : Technical directorship and infrastructure
   Hang Xu                : AUTO-CI-Response properties 


 We gratefully acknowledge several colleagues who have allowed us to
 interface, adapt or use parts of their codes:
   Stefan Grimme, W. Hujo, H. Kruse, P. Pracht,  : VdW corrections, initial TS optimization,
                  C. Bannwarth, S. Ehlert,         DFT functionals, gCP, sTDA/sTD-DF
                  L. Wittmann, M. Mueller
   Ed Valeev, F. Pavosevic, A. Kumar             : LibInt (2-el integral package), F12 methods
   Garnet Chan, S. Sharma, J. Yang, R. Olivares  : DMRG
   Ulf Ekstrom                                   : XCFun DFT Library
   Mihaly Kallay                                 : mrcc  (arbitrary order and MRCC methods)
   Frank Weinhold                                : gennbo (NPA and NBO analysis)
   Simon Mueller                                 : openCOSMO-RS
   Christopher J. Cramer and Donald G. Truhlar   : smd solvation model
   Lars Goerigk                                  : TD-DFT with DH, B97 family of functionals
   V. Asgeirsson, H. Jonsson                     : NEB implementation
   FAccTs GmbH                                   : IRC, NEB, NEB-TS, DLPNO-Multilevel, CI-OPT
                                                   MM, QMMM, 2- and 3-layer-ONIOM, Crystal-QMMM,
                                                   LR-CPCM, SF, NACMEs, symmetry and pop. for TD-DFT,
                                                   nearIR, NL-DFT gradient (VV10), updates on ESD,
                                                   ML-optimized integration grids, MBIS, APM,
                                                   GOAT, DOCKER, SOLVATOR, interface openCOSMO-RS
   S Lehtola, MJT Oliveira, MAL Marques          : LibXC Library
   Liviu Ungur et al                             : ANISO software


 Your calculation uses the libint2 library for the computation of 2-el integrals
 For citations please refer to: http://libint.valeyev.net

 Your ORCA version has been built with support for libXC version: 6.2.2
 For citations please refer to: https://libxc.gitlab.io

 This ORCA versions uses:
   CBLAS   interface :  Fast vector & matrix operations
   LAPACKE interface :  Fast linear algebra routines
   SCALAPACK package :  Parallel linear algebra routines
   Shared memory     :  Shared parallel matrices
   BLAS/LAPACK       :  OpenBLAS 0.3.27  USE64BITINT DYNAMIC_ARCH NO_AFFINITY SkylakeX SINGLE_THREADED
        Core in use  :  SkylakeX
   Copyright (c) 2011-2014, The OpenBLAS Project


Warning: RI is on but no J-basis has been assigned. Assigning Def2/J (nothing to worry about!)
================================================================================

----- Orbital basis set information -----
Your calculation utilizes the basis: 6-31G*
   H-He, Li-Ne : W. J. Hehre, R. Ditchfield and J.A. Pople, J. Chem. Phys. 56, 2257 (1972).
                 Note: He and Ne are unpublished basis sets taken from the Gaussian program.
                 Note: Li and B from J. D. Dill and J. A. Pople, J. Chem. Phys. 62, 2921 (1975).
   Na - Ar     : M. M. Francl, W. J. Pietro, W. J. Hehre, J. S. Binkley, M. S. Gordon, 
                 D. J. DeFrees and J. A. Pople, J. Chem. Phys. 77, 3654 (1982).
   K - Zn      : V. A. Rassolov, J. A. Pople, M. A. Ratner, and T. L. Windus, J. Chem. Phys. 109, 1223 (1998).

----- AuxJ basis set information -----
Your calculation utilizes the auxiliary basis: def2/J
   F. Weigend, Phys. Chem. Chem. Phys. 8, 1057 (2006).

================================================================================
                                        WARNINGS
                       Please study these warnings very carefully!
================================================================================


================================================================================
                                       INPUT FILE
================================================================================
NAME = /home/nmrbox/aojoawo/Documents/ERDOS/inputs/CHEMBL3927494.inp
|  1> ! B3LYP 6-31G* SP
|  2> 
|  3> * xyz 0 1
|  4> C -2.0017 1.1885 -3.4018
|  5> C -2.7960 0.7305 -2.2226
|  6> O -3.6315 -0.2896 -2.2614
|  7> C -4.1363 -0.4312 -1.0584
|  8> C -3.6368 0.5026 -0.2026
|  9> C -2.7601 1.2825 -0.9409
| 10> C -1.8806 2.4071 -0.4704
| 11> C -0.4914 1.9069 -0.2133
| 12> O 0.4315 2.2118 -1.0163
| 13> N -0.2263 1.0723 0.9249
| 14> C 1.0535 0.4939 1.2092
| 15> N 2.1510 0.6641 0.4418
| 16> C 3.2330 -0.0002 0.9369
| 17> C 4.5525 0.0562 0.2540
| 18> C 4.7862 1.0347 -0.7257
| 19> C 6.0152 1.1054 -1.3799
| 20> C 7.0352 0.2007 -1.0753
| 21> Cl 8.5611 0.3529 -1.9432
| 22> C 6.8260 -0.7986 -0.0995
| 23> C 7.9208 -1.7907 0.2336
| 24> F 7.5280 -2.6846 1.2153
| 25> F 9.0384 -1.1139 0.6876
| 26> F 8.2542 -2.5109 -0.8992
| 27> C 5.5784 -0.8611 0.5547
| 28> C 2.9837 -0.7036 2.1212
| 29> S 1.3685 -0.4813 2.5371
| 30> C -4.0550 0.5214 1.1237
| 31> O -3.6186 1.3970 1.9197
| 32> N -4.9626 -0.4261 1.5401
| 33> C -5.4520 -0.4107 2.9291
| 34> C -5.4758 -1.3438 0.6400
| 35> O -6.3583 -2.1667 1.0160
| 36> N -5.0402 -1.3676 -0.6658
| 37> C -5.5887 -2.3261 -1.6333
| 38> H -2.1750 2.2706 -3.5767
| 39> H -0.9222 1.0108 -3.2170
| 40> H -2.3095 0.6252 -4.3074
| 41> H -1.8587 3.2032 -1.2453
| 42> H -2.2850 2.8712 0.4509
| 43> H -1.0095 0.8618 1.5822
| 44> H 4.0199 1.7554 -0.9829
| 45> H 6.1750 1.8711 -2.1287
| 46> H 5.4021 -1.6363 1.2852
| 47> H 3.6935 -1.2770 2.7001
| 48> H -4.6822 -0.0155 3.6258
| 49> H -6.3623 0.2215 2.9956
| 50> H -5.6931 -1.4368 3.2802
| 51> H -4.9137 -2.4509 -2.5070
| 52> H -5.7071 -3.3269 -1.1656
| 53> H -6.5776 -1.9692 -1.9904
| 54> *
| 55> 
| 56>                          ****END OF INPUT****
================================================================================

                       ****************************
                       * Single Point Calculation *
                       ****************************

---------------------------------
CARTESIAN COORDINATES (ANGSTROEM)
---------------------------------
  C     -2.001700    1.188500   -3.401800
  C     -2.796000    0.730500   -2.222600
  O     -3.631500   -0.289600   -2.261400
  C     -4.136300   -0.431200   -1.058400
  C     -3.636800    0.502600   -0.202600
  C     -2.760100    1.282500   -0.940900
  C     -1.880600    2.407100   -0.470400
  C     -0.491400    1.906900   -0.213300
  O      0.431500    2.211800   -1.016300
  N     -0.226300    1.072300    0.924900
  C      1.053500    0.493900    1.209200
  N      2.151000    0.664100    0.441800
  C      3.233000   -0.000200    0.936900
  C      4.552500    0.056200    0.254000
  C      4.786200    1.034700   -0.725700
  C      6.015200    1.105400   -1.379900
  C      7.035200    0.200700   -1.075300
  Cl     8.561100    0.352900   -1.943200
  C      6.826000   -0.798600   -0.099500
  C      7.920800   -1.790700    0.233600
  F      7.528000   -2.684600    1.215300
  F      9.038400   -1.113900    0.687600
  F      8.254200   -2.510900   -0.899200
  C      5.578400   -0.861100    0.554700
  C      2.983700   -0.703600    2.121200
  S      1.368500   -0.481300    2.537100
  C     -4.055000    0.521400    1.123700
  O     -3.618600    1.397000    1.919700
  N     -4.962600   -0.426100    1.540100
  C     -5.452000   -0.410700    2.929100
  C     -5.475800   -1.343800    0.640000
  O     -6.358300   -2.166700    1.016000
  N     -5.040200   -1.367600   -0.665800
  C     -5.588700   -2.326100   -1.633300
  H     -2.175000    2.270600   -3.576700
  H     -0.922200    1.010800   -3.217000
  H     -2.309500    0.625200   -4.307400
  H     -1.858700    3.203200   -1.245300
  H     -2.285000    2.871200    0.450900
  H     -1.009500    0.861800    1.582200
  H      4.019900    1.755400   -0.982900
  H      6.175000    1.871100   -2.128700
  H      5.402100   -1.636300    1.285200
  H      3.693500   -1.277000    2.700100
  H     -4.682200   -0.015500    3.625800
  H     -6.362300    0.221500    2.995600
  H     -5.693100   -1.436800    3.280200
  H     -4.913700   -2.450900   -2.507000
  H     -5.707100   -3.326900   -1.165600
  H     -6.577600   -1.969200   -1.990400

----------------------------
CARTESIAN COORDINATES (A.U.)
----------------------------
  NO LB      ZA    FRAG     MASS         X           Y           Z
   0 C     6.0000    0    12.011   -3.782665    2.245940   -6.428470
   1 C     6.0000    0    12.011   -5.283674    1.380445   -4.200105
   2 O     8.0000    0    15.999   -6.862540   -0.547265   -4.273427
   3 C     6.0000    0    12.011   -7.816474   -0.814850   -2.000086
   4 C     6.0000    0    12.011   -6.872556    0.949776   -0.382859
   5 C     6.0000    0    12.011   -5.215833    2.423574   -1.778043
   6 C     6.0000    0    12.011   -3.553819    4.548760   -0.888927
   7 C     6.0000    0    12.011   -0.928611    3.603519   -0.403079
   8 O     8.0000    0    15.999    0.815417    4.179696   -1.920529
   9 N     7.0000    0    14.007   -0.427645    2.026353    1.747808
  10 C     6.0000    0    12.011    1.990826    0.933336    2.285057
  11 N     7.0000    0    14.007    4.064801    1.254967    0.834881
  12 C     6.0000    0    12.011    6.109485   -0.000378    1.770484
  13 C     6.0000    0    12.011    8.602978    0.106203    0.479990
  14 C     6.0000    0    12.011    9.044607    1.955300   -1.371374
  15 C     6.0000    0    12.011   11.367081    2.088903   -2.607633
  16 C     6.0000    0    12.011   13.294601    0.379268   -2.032023
  17 Cl   17.0000    0    35.453   16.178134    0.666884   -3.672116
  18 C     6.0000    0    12.011   12.899271   -1.509135   -0.188028
  19 C     6.0000    0    12.011   14.968143   -3.383933    0.441440
  20 F     9.0000    0    18.998   14.225858   -5.073159    2.296584
  21 F     9.0000    0    18.998   17.080101   -2.104966    1.299376
  22 F     9.0000    0    18.998   15.598177   -4.744913   -1.699242
  23 C     6.0000    0    12.011   10.541648   -1.627243    1.048231
  24 C     6.0000    0    12.011    5.638376   -1.329611    4.008487
  25 S    16.0000    0    32.060    2.586090   -0.909525    4.794424
  26 C     6.0000    0    12.011   -7.662839    0.985303    2.123485
  27 O     8.0000    0    15.999   -6.838163    2.639947    3.627707
  28 N     7.0000    0    14.007   -9.377955   -0.805212    2.910367
  29 C     6.0000    0    12.011  -10.302787   -0.776111    5.535197
  30 C     6.0000    0    12.011  -10.347762   -2.539414    1.209425
  31 O     8.0000    0    15.999  -12.015446   -4.094470    1.919962
  32 N     7.0000    0    14.007   -9.524598   -2.584389   -1.258180
  33 C     6.0000    0    12.011  -10.561112   -4.395692   -3.086490
  34 H     1.0000    0     1.008   -4.110154    4.290812   -6.758983
  35 H     1.0000    0     1.008   -1.742705    1.910135   -6.079249
  36 H     1.0000    0     1.008   -4.364323    1.181457   -8.139806
  37 H     1.0000    0     1.008   -3.512434    6.053171   -2.353276
  38 H     1.0000    0     1.008   -4.318024    5.425782    0.852078
  39 H     1.0000    0     1.008   -1.907679    1.628566    2.989925
  40 H     1.0000    0     1.008    7.596510    3.317225   -1.857412
  41 H     1.0000    0     1.008   11.669059    3.535867   -4.022660
  42 H     1.0000    0     1.008   10.208490   -3.092159    2.428676
  43 H     1.0000    0     1.008    6.979703   -2.413180    5.102450
  44 H     1.0000    0     1.008   -8.848076   -0.029291    6.851769
  45 H     1.0000    0     1.008  -12.023005    0.418574    5.660864
  46 H     1.0000    0     1.008  -10.758400   -2.715159    6.198680
  47 H     1.0000    0     1.008   -9.285547   -4.631530   -4.737543
  48 H     1.0000    0     1.008  -10.784856   -6.286930   -2.202665
  49 H     1.0000    0     1.008  -12.429863   -3.721249   -3.761311

--------------------------------
INTERNAL COORDINATES (ANGSTROEM)
--------------------------------
 C      0   0   0     0.000000000000     0.00000000     0.00000000
 C      1   0   0     1.493716549416     0.00000000     0.00000000
 O      2   1   0     1.319154918878   123.41390780     0.00000000
 C      3   2   1     1.312281448471   107.46452169   178.82871540
 C      4   3   2     1.361571272464   111.16614926     0.04626402
 C      5   4   3     1.386338266802   106.44423492     0.26573628
 C      6   5   4     1.503201802820   128.62222089   183.68791214
 C      7   6   5     1.498725154923   110.26300232    97.12323490
 O      8   7   6     1.260760651353   119.24527692   107.09883497
 N      8   7   6     1.436083009439   120.06851626   288.10037614
 C     10   8   7     1.432920475812   123.82871299   176.65937647
 N     11  10   8     1.349954462195   124.22448573   359.85588934
 C     12  11  10     1.362770156703   112.17935273   180.27422746
 C     13  12  11     1.486813243148   121.28302437   180.40512967
 C     14  13  12     1.404240018658   119.64163133    14.89404309
 C     15  14  13     1.394064966205   120.62777104   180.06823310
 C     16  15  14     1.397019416472   120.56486983     0.21007454
 Cl    17  16  15     1.762040311684   117.96591990   180.02640190
 C     17  16  15     1.412285654533   120.04749852     0.13642789
 C     19  17  16     1.514531300436   120.55637217   179.61799130
 F     20  19  17     1.384588003704   111.94856597   179.73364635
 F     20  19  17     1.383186176912   109.61719496    59.65423583
 F     20  19  17     1.383141149702   109.58471652   299.82957406
 C     14  13  12     1.408662695609   121.57256186   195.58581112
 C     13  12  11     1.399817323796   114.26230908   359.75775761
 S     11  10   8     1.677366522260   124.01944411   179.99192127
 C      5   4   3     1.390797026888   119.89096643   179.75758911
 O     27   5   4     1.261243957369   120.47737587   181.33774297
 N     27   5   4     1.376547481927   118.51692891     0.68885050
 C     29  27   5     1.472776466406   119.81397275   181.61589681
 C     29  27   5     1.384098096235   120.27334741   357.83159820
 O     31  29  27     1.263861804154   119.81041228   183.54022315
 N      4   3   2     1.359417128772   126.50215195   180.03266202
 C     33   4   3     1.468206644175   120.51631195   357.83303246
 H      1   2   3     1.109758221416   109.89840790   126.15504307
 H      1   2   3     1.109526286304   109.68054388   246.62606915
 H      1   2   3     1.110026616798   109.93804539     6.37696592
 H      7   6   5     1.111181726812   109.22356445   217.99376189
 H      7   6   5     1.108026109801   111.10452653   335.40219695
 H     10   8   7     1.043913684171   118.53761851   357.36282928
 H     15  14  13     1.082947838079   120.77484000     0.61890888
 H     16  15  14     1.082836077160   119.37183440   180.28780782
 H     24  14  13     1.079651323345   119.54228106     1.08285703
 H     25  13  12     1.080615014702   127.07706158   181.61109274
 H     30  29  27     1.110930227332   111.40257334   329.14217180
 H     30  29  27     1.110290583586   109.56546885    90.01821000
 H     30  29  27     1.110982281587   111.13127773   210.79823059
 H     34  33   4     1.111103834032   111.37938943    22.93762946
 H     34  33   4     1.111018672210   110.51685399   141.90275772
 H     34  33   4     1.110324830849   109.56152827   262.36235952

---------------------------
INTERNAL COORDINATES (A.U.)
---------------------------
 C      0   0   0     0.000000000000     0.00000000     0.00000000
 C      1   0   0     2.822715200103     0.00000000     0.00000000
 O      2   1   0     2.492841524895   123.41390780     0.00000000
 C      3   2   1     2.479852548235   107.46452169   178.82871540
 C      4   3   2     2.572996816772   111.16614926     0.04626402
 C      5   4   3     2.619799653231   106.44423492     0.26573628
 C      6   5   4     2.840639731346   128.62222089   183.68791214
 C      7   6   5     2.832180092824   110.26300232    97.12323490
 O      8   7   6     2.382492351481   119.24527692   107.09883497
 N      8   7   6     2.713803593418   120.06851626   288.10037614
 C     10   8   7     2.707827270972   123.82871299   176.65937647
 N     11  10   8     2.551044226813   124.22448573   359.85588934
 C     12  11  10     2.575262379649   112.17935273   180.27422746
 C     13  12  11     2.809669841837   121.28302437   180.40512967
 C     14  13  12     2.653629061556   119.64163133    14.89404309
 C     15  14  13     2.634400999022   120.62777104   180.06823310
 C     16  15  14     2.639984100903   120.56486983     0.21007454
 Cl    17  16  15     3.329773626012   117.96591990   180.02640190
 C     17  16  15     2.668833109933   120.04749852     0.13642789
 C     19  17  16     2.862049379075   120.55637217   179.61799130
 F     20  19  17     2.616492135313   111.94856597   179.73364635
 F     20  19  17     2.613843066589   109.61719496    59.65423583
 F     20  19  17     2.613757977494   109.58471652   299.82957406
 C     14  13  12     2.661986709772   121.57256186   195.58581112
 C     13  12  11     2.645271379493   114.26230908   359.75775761
 S     11  10   8     3.169763353280   124.01944411   179.99192127
 C      5   4   3     2.628225488690   119.89096643   179.75758911
 O     27   5   4     2.383405667491   120.47737587   181.33774297
 N     27   5   4     2.601297751181   118.51692891     0.68885050
 C     29  27   5     2.783144177992   119.81397275   181.61589681
 C     29  27   5     2.615566344365   120.27334741   357.83159820
 O     31  29  27     2.388352680975   119.81041228   183.54022315
 N      4   3   2     2.568926075142   126.50215195   180.03266202
 C     33   4   3     2.774508465495   120.51631195   357.83303246
 H      1   2   3     2.097139113343   109.89840790   126.15504307
 H      1   2   3     2.096700819502   109.68054388   246.62606915
 H      1   2   3     2.097646307111   109.93804539     6.37696592
 H      7   6   5     2.099829148692   109.22356445   217.99376189
 H      7   6   5     2.093865896757   111.10452653   335.40219695
 H     10   8   7     1.972710970536   118.53761851   357.36282928
 H     15  14  13     2.046474831291   120.77484000     0.61890888
 H     16  15  14     2.046263633763   119.37183440   180.28780782
 H     24  14  13     2.040245321247   119.54228106     1.08285703
 H     25  13  12     2.042066433991   127.07706158   181.61109274
 H     30  29  27     2.099353883552   111.40257334   329.14217180
 H     30  29  27     2.098145132049   109.56546885    90.01821000
 H     30  29  27     2.099452251838   111.13127773   210.79823059
 H     34  33   4     2.099681952670   111.37938943    22.93762946
 H     34  33   4     2.099521020150   110.51685399   141.90275772
 H     34  33   4     2.098209849997   109.56152827   262.36235952

---------------------
BASIS SET INFORMATION
---------------------
There are 7 groups of distinct atoms

 Group   1 Type C   : 10s4p1d contracted to 3s2p1d pattern {631/31/1}
 Group   2 Type O   : 10s4p1d contracted to 3s2p1d pattern {631/31/1}
 Group   3 Type N   : 10s4p1d contracted to 3s2p1d pattern {631/31/1}
 Group   4 Type Cl  : 16s10p1d contracted to 4s3p1d pattern {6631/631/1}
 Group   5 Type F   : 10s4p1d contracted to 3s2p1d pattern {631/31/1}
 Group   6 Type S   : 16s10p1d contracted to 4s3p1d pattern {6631/631/1}
 Group   7 Type H   : 4s contracted to 2s pattern {31}

Atom   0C    basis set group =>   1
Atom   1C    basis set group =>   1
Atom   2O    basis set group =>   2
Atom   3C    basis set group =>   1
Atom   4C    basis set group =>   1
Atom   5C    basis set group =>   1
Atom   6C    basis set group =>   1
Atom   7C    basis set group =>   1
Atom   8O    basis set group =>   2
Atom   9N    basis set group =>   3
Atom  10C    basis set group =>   1
Atom  11N    basis set group =>   3
Atom  12C    basis set group =>   1
Atom  13C    basis set group =>   1
Atom  14C    basis set group =>   1
Atom  15C    basis set group =>   1
Atom  16C    basis set group =>   1
Atom  17Cl   basis set group =>   4
Atom  18C    basis set group =>   1
Atom  19C    basis set group =>   1
Atom  20F    basis set group =>   5
Atom  21F    basis set group =>   5
Atom  22F    basis set group =>   5
Atom  23C    basis set group =>   1
Atom  24C    basis set group =>   1
Atom  25S    basis set group =>   6
Atom  26C    basis set group =>   1
Atom  27O    basis set group =>   2
Atom  28N    basis set group =>   3
Atom  29C    basis set group =>   1
Atom  30C    basis set group =>   1
Atom  31O    basis set group =>   2
Atom  32N    basis set group =>   3
Atom  33C    basis set group =>   1
Atom  34H    basis set group =>   7
Atom  35H    basis set group =>   7
Atom  36H    basis set group =>   7
Atom  37H    basis set group =>   7
Atom  38H    basis set group =>   7
Atom  39H    basis set group =>   7
Atom  40H    basis set group =>   7
Atom  41H    basis set group =>   7
Atom  42H    basis set group =>   7
Atom  43H    basis set group =>   7
Atom  44H    basis set group =>   7
Atom  45H    basis set group =>   7
Atom  46H    basis set group =>   7
Atom  47H    basis set group =>   7
Atom  48H    basis set group =>   7
Atom  49H    basis set group =>   7
---------------------------------
AUXILIARY/J BASIS SET INFORMATION
---------------------------------
There are 7 groups of distinct atoms

 Group   1 Type C   : 12s5p4d2f1g contracted to 6s4p3d1f1g pattern {711111/2111/211/2/1}
 Group   2 Type O   : 12s5p4d2f1g contracted to 6s4p3d1f1g pattern {711111/2111/211/2/1}
 Group   3 Type N   : 12s5p4d2f1g contracted to 6s4p3d1f1g pattern {711111/2111/211/2/1}
 Group   4 Type Cl  : 14s5p5d2f1g contracted to 8s4p3d1f1g pattern {71111111/2111/311/2/1}
 Group   5 Type F   : 12s5p4d2f1g contracted to 6s4p3d1f1g pattern {711111/2111/211/2/1}
 Group   6 Type S   : 14s5p5d2f1g contracted to 8s4p3d1f1g pattern {71111111/2111/311/2/1}
 Group   7 Type H   : 5s2p1d contracted to 3s1p1d pattern {311/2/1}

Atom   0C    basis set group =>   1
Atom   1C    basis set group =>   1
Atom   2O    basis set group =>   2
Atom   3C    basis set group =>   1
Atom   4C    basis set group =>   1
Atom   5C    basis set group =>   1
Atom   6C    basis set group =>   1
Atom   7C    basis set group =>   1
Atom   8O    basis set group =>   2
Atom   9N    basis set group =>   3
Atom  10C    basis set group =>   1
Atom  11N    basis set group =>   3
Atom  12C    basis set group =>   1
Atom  13C    basis set group =>   1
Atom  14C    basis set group =>   1
Atom  15C    basis set group =>   1
Atom  16C    basis set group =>   1
Atom  17Cl   basis set group =>   4
Atom  18C    basis set group =>   1
Atom  19C    basis set group =>   1
Atom  20F    basis set group =>   5
Atom  21F    basis set group =>   5
Atom  22F    basis set group =>   5
Atom  23C    basis set group =>   1
Atom  24C    basis set group =>   1
Atom  25S    basis set group =>   6
Atom  26C    basis set group =>   1
Atom  27O    basis set group =>   2
Atom  28N    basis set group =>   3
Atom  29C    basis set group =>   1
Atom  30C    basis set group =>   1
Atom  31O    basis set group =>   2
Atom  32N    basis set group =>   3
Atom  33C    basis set group =>   1
Atom  34H    basis set group =>   7
Atom  35H    basis set group =>   7
Atom  36H    basis set group =>   7
Atom  37H    basis set group =>   7
Atom  38H    basis set group =>   7
Atom  39H    basis set group =>   7
Atom  40H    basis set group =>   7
Atom  41H    basis set group =>   7
Atom  42H    basis set group =>   7
Atom  43H    basis set group =>   7
Atom  44H    basis set group =>   7
Atom  45H    basis set group =>   7
Atom  46H    basis set group =>   7
Atom  47H    basis set group =>   7
Atom  48H    basis set group =>   7
Atom  49H    basis set group =>   7
------------------------------------------------------------------------------
                             ORCA STARTUP CALCULATIONS
                           -- RI-GTO INTEGRALS CHOSEN --
------------------------------------------------------------------------------
------------------------------------------------------------------------------
                   ___                                                        
                  /   \      - P O W E R E D   B Y -                         
                 /     \                                                     
                 |  |  |   _    _      __       _____    __    __             
                 |  |  |  | |  | |    /  \     |  _  \  |  |  /  |          
                  \  \/   | |  | |   /    \    | | | |  |  | /  /          
                 / \  \   | |__| |  /  /\  \   | |_| |  |  |/  /          
                |  |  |   |  __  | /  /__\  \  |    /   |      \           
                |  |  |   | |  | | |   __   |  |    \   |  |\   \          
                \     /   | |  | | |  |  |  |  | |\  \  |  | \   \       
                 \___/    |_|  |_| |__|  |__|  |_| \__\ |__|  \__/        
                                                                              
                      - O R C A' S   B I G   F R I E N D -                    
                                      &                                       
                       - I N T E G R A L  F E E D E R -                       
                                                                              
 v1 FN, 2020, v2 2021, v3 2022-2024                                           
------------------------------------------------------------------------------


----------------------
SHARK INTEGRAL PACKAGE
----------------------

Number of atoms                             ...     50
Number of basis functions                   ...    516
Number of shells                            ...    240
Maximum angular momentum                    ...      2
Integral batch strategy                     ... SHARK/LIBINT Hybrid
RI-J (if used) integral strategy            ... SPLIT-RIJ (Revised 2003 algorithm where possible)
Printlevel                                  ...      1
Contraction scheme used                     ... SEGMENTED contraction
Prescreening option                         ... SCHWARTZ
   Thresh                                   ... 1.000e-10
   Tcut                                     ... 1.000e-11
   Tpresel                                  ... 1.000e-11 
Coulomb Range Separation                    ... NOT USED
Exchange Range Separation                   ... NOT USED
Multipole approximations                    ... NOT USED
Finite Nucleus Model                        ... NOT USED
CABS basis                                  ... NOT available
Auxiliary Coulomb fitting basis             ... AVAILABLE
   # of basis functions in Aux-J            ...   1846
   # of shells in Aux-J                     ...    594
   Maximum angular momentum in Aux-J        ...      4
Auxiliary J/K fitting basis                 ... NOT available
Auxiliary Correlation fitting basis         ... NOT available
Auxiliary 'external' fitting basis          ... NOT available

Checking pre-screening integrals            ... done (  0.0 sec) Dimension = 240
Check shell pair data                       ... done (  0.0 sec)
Shell pair information
Shell pair cut-off parameter TPreSel        ...   1.0e-11
Total number of shell pairs                 ...     28920
Shell pairs after pre-screening             ...     14159
Total number of primitive shell pairs       ...    179923
Primitive shell pairs kept                  ...     45564
          la=0 lb=0:   4282 shell pairs
          la=1 lb=0:   5014 shell pairs
          la=1 lb=1:   1495 shell pairs
          la=2 lb=0:   1932 shell pairs
          la=2 lb=1:   1195 shell pairs
          la=2 lb=2:    241 shell pairs

Calculating one electron integrals          ... done (  0.2 sec)
Calculating RI/J V-Matrix + Cholesky decomp.... done (  5.7 sec)
Calculating Nuclear repulsion               ... done (  0.0 sec) ENN=   3720.691055330889 Eh

Diagonalization of the overlap matrix:
Smallest eigenvalue                        ... 3.890e-04
Time for diagonalization                   ...    0.044 sec
Threshold for overlap eigenvalues          ... 1.000e-07
Number of eigenvalues below threshold      ... 0
Time for construction of square roots      ...    0.390 sec
Total time needed                          ...    0.522 sec

-------------------
DFT GRID GENERATION
-------------------

General Integration Accuracy     IntAcc      ... 4.388
Radial Grid Type                 RadialGrid  ... OptM3 with GC (2021)
Angular Grid (max. ang.)         AngularGrid ... 4 (Lebedev-302)
Angular grid pruning method      GridPruning ... 4 (adaptive)
Weight generation scheme         WeightScheme... mBecke (2022)
Basis function cutoff            BFCut       ... 1.0000e-10
Integration weight cutoff        WCut        ... 1.0000e-14
Partially contracted basis set               ... off
Rotationally invariant grid construction     ... off
Angular grids for H and He will be reduced by one unit

Total number of grid points                  ...   257482
Total number of batches                      ...     4047
Average number of points per batch           ...       63
Average number of grid points per atom       ...     5150

--------------------
COSX GRID GENERATION
--------------------

GRIDX 1
-------
General Integration Accuracy     IntAcc      ... 3.816
Radial Grid Type                 RadialGrid  ... OptM3 with GC (2021)
Angular Grid (max. ang.)         AngularGrid ... 1 (Lebedev-50)
Angular grid pruning method      GridPruning ... 4 (adaptive)
Weight generation scheme         WeightScheme... mBecke (2022)
Basis function cutoff            BFCut       ... 1.0000e-10
Integration weight cutoff        WCut        ... 1.0000e-14
Partially contracted basis set               ... on
Rotationally invariant grid construction     ... off
Angular grids for H and He will be reduced by one unit

Total number of grid points                  ...    34650
Total number of batches                      ...      302
Average number of points per batch           ...      114
Average number of grid points per atom       ...      693
UseSFitting                                  ... on

GRIDX 2
-------
General Integration Accuracy     IntAcc      ... 4.020
Radial Grid Type                 RadialGrid  ... OptM3 with GC (2021)
Angular Grid (max. ang.)         AngularGrid ... 2 (Lebedev-110)
Angular grid pruning method      GridPruning ... 4 (adaptive)
Weight generation scheme         WeightScheme... mBecke (2022)
Basis function cutoff            BFCut       ... 1.0000e-10
Integration weight cutoff        WCut        ... 1.0000e-14
Partially contracted basis set               ... on
Rotationally invariant grid construction     ... off
Angular grids for H and He will be reduced by one unit

Total number of grid points                  ...    72097
Total number of batches                      ...      589
Average number of points per batch           ...      122
Average number of grid points per atom       ...     1442
UseSFitting                                  ... on

GRIDX 3
-------
General Integration Accuracy     IntAcc      ... 4.338
Radial Grid Type                 RadialGrid  ... OptM3 with GC (2021)
Angular Grid (max. ang.)         AngularGrid ... 3 (Lebedev-194)
Angular grid pruning method      GridPruning ... 4 (adaptive)
Weight generation scheme         WeightScheme... mBecke (2022)
Basis function cutoff            BFCut       ... 1.0000e-10
Integration weight cutoff        WCut        ... 1.0000e-14
Partially contracted basis set               ... on
Rotationally invariant grid construction     ... off
Angular grids for H and He will be reduced by one unit

Total number of grid points                  ...   159233
Total number of batches                      ...     1271
Average number of points per batch           ...      125
Average number of grid points per atom       ...     3185
UseSFitting                                  ... on
Initializing property integral containers    ... done (  0.2 sec)

SHARK setup successfully completed in  26.9 seconds

Maximum memory used throughout the entire STARTUP-calculation: 109.7 MB
-------------------------------------------------------------------------------
                                 ORCA GUESS
                   Start orbitals & Density for SCF / CASSCF
-------------------------------------------------------------------------------

------------
SCF SETTINGS
------------
Hamiltonian:
 Density Functional     Method          .... DFT(GTOs)
 Exchange Functional    Exchange        .... B88
   X-Alpha parameter    XAlpha          ....  0.666667
   Becke's b parameter  XBeta           ....  0.004200
 Correlation Functional Correlation     .... LYP
 LDA part of GGA corr.  LDAOpt          .... VWN-5
 Gradients option       PostSCFGGA      .... off
 Hybrid DFT is turned on
   Fraction HF Exchange ScalHFX         ....  0.200000
   Scaling of DF-GGA-X  ScalDFX         ....  0.720000
   Scaling of DF-GGA-C  ScalDFC         ....  0.810000
   Scaling of DF-LDA-C  ScalLDAC        ....  1.000000
   Perturbative correction              ....  0.000000
   NL short-range parameter             ....  4.800000
 RI-approximation to the Coulomb term is turned on
   Number of AuxJ basis functions       .... 1846
   RIJ-COSX (HFX calculated with COS-X)).... on


General Settings:
 Integral files         IntName         .... /home/nmrbox/aojoawo/Documents/ERDOS/inputs/CHEMBL3927494
 Hartree-Fock type      HFTyp           .... RHF
 Total Charge           Charge          ....    0
 Multiplicity           Mult            ....    1
 Number of Electrons    NEL             ....  262
 Basis Dimension        Dim             ....  516
 Nuclear Repulsion      ENuc            ....   3720.6910553309 Eh

Convergence Acceleration:
 AO-DIIS                CNVDIIS         .... on
   Start iteration      DIISMaxIt       ....    12
   Startup error        DIISStart       ....  0.200000
   # of expansion vecs  DIISMaxEq       ....     5
   Bias factor          DIISBfac        ....   1.050
   Max. coefficient     DIISMaxC        ....  10.000
 MO-DIIS                CNVKDIIS        .... off
 Trust-Rad. Augm. Hess. CNVTRAH         .... auto
   Auto Start mean grad. ratio tolernc. ....  1.125000
   Auto Start start iteration           ....    50
   Auto Start num. interpolation iter.  ....    10
   Max. Number of Micro iterations      ....    24
   Max. Number of Macro iterations      .... Maxiter - #DIIS iter
   Number of Davidson start vectors     ....     2
   Converg. threshold    (grad. norm)   ....   5.000e-05
   Grad. Scal. Fac. for Micro threshold ....   0.100
   Minimum threshold for Micro iter.    ....   1.000e-02
   NR start threshold (gradient norm)   ....   1.000e-04
   Initial trust radius                 ....   0.400
   Minimum AH scaling param. (alpha)    ....   1.000
   Maximum AH scaling param. (alpha)    .... 1000.000
   Quad. conv. algorithm                .... NR
   White noise on init. David. guess    .... on
   Maximum white noise                  ....   0.010
   Pseudo random numbers                .... off
   Inactive MOs                         .... canonical
   Orbital update algorithm             .... Taylor
   Preconditioner                       .... Diag
   Full preconditioner red. dimension   ....   250
 SOSCF                  CNVSOSCF        .... on
   Start iteration      SOSCFMaxIt      ....   150
   Startup grad/error   SOSCFStart      ....  0.003300
   Hessian update       SOSCFHessUp     .... L-BFGS
 Level Shifting         CNVShift        .... on
   Level shift para.    LevelShift      ....    0.2500
   Turn off err/grad.   ShiftErr        ....    0.0010
 Zerner damping         CNVZerner       .... off
 Static damping         CNVDamp         .... on
   Fraction old density DampFac         ....    0.7000
   Max. Damping (<1)    DampMax         ....    0.9800
   Min. Damping (>=0)   DampMin         ....    0.0000
   Turn off err/grad.   DampErr         ....    0.1000

SCF Procedure:
 Maximum # iterations   MaxIter         ....   125
 SCF integral mode      SCFMode         .... Direct
   Integral package                     .... SHARK and LIBINT hybrid scheme
 Reset frequency        DirectResetFreq ....    20
 Integral Threshold     Thresh          ....  1.000e-10 Eh
 Primitive CutOff       TCut            ....  1.000e-11 Eh

Convergence Tolerance:
 Convergence Check Mode ConvCheckMode   .... Total+1el-Energy
 Convergence forced     ConvForced      .... 0
 Energy Change          TolE            ....  1.000e-06 Eh
 1-El. energy change                    ....  1.000e-03 Eh
 Orbital Gradient       TolG            ....  5.000e-05
 Orbital Rotation angle TolX            ....  5.000e-05
 DIIS Error             TolErr          ....  1.000e-06

------------------------------
INITIAL GUESS: MODEL POTENTIAL
------------------------------
Loading Hartree-Fock densities                     ... done
Calculating cut-offs                               ... done
Initializing the effective Hamiltonian             ... done
Setting up the integral package (SHARK)            ... done
Starting the Coulomb interaction                   ... done (   3.8 sec)
Making the grid                                    ... done (   2.0 sec)
Mapping shells                                     ... done
Starting the XC term evaluation                    ... done (   1.2 sec)
  promolecular density results
     # of electrons  =    261.991560817
     EX              =   -254.633493543
     EC              =     -9.422960870
     EX+EC           =   -264.056454413
Transforming the Hamiltonian                       ... done (   0.0 sec)
Diagonalizing the Hamiltonian                      ... done (   0.1 sec)
Back transforming the eigenvectors                 ... done (   0.3 sec)
Now organizing SCF variables                       ... done
                      ------------------
                      INITIAL GUESS DONE (   7.8 sec)
                      ------------------
             **** ENERGY FILE WAS UPDATED (/home/nmrbox/aojoawo/Documents/ERDOS/inputs/CHEMBL3927494.en.tmp) ****
Finished Guess after   9.7 sec
Maximum memory used throughout the entire GUESS-calculation: 59.6 MB

-------------------------------------------------------------------------------------------
                                      ORCA LEAN-SCF
                              memory conserving SCF solver
-------------------------------------------------------------------------------------------

----------------------------------------D-I-I-S--------------------------------------------
Iteration    Energy (Eh)           Delta-E    RMSDP     MaxDP     DIISErr   Damp  Time(sec)
-------------------------------------------------------------------------------------------
               ***  Starting incremental Fock matrix formation  ***
    1    -2485.7711193987206570     0.00e+00  2.51e-03  1.16e-01  2.90e-01  0.700  66.8
    2    -2486.2159171343564594    -4.45e-01  1.49e-03  5.81e-02  1.02e-01  0.700  30.5
                               ***Turning on AO-DIIS***
    3    -2486.3560315213026115    -1.40e-01  5.59e-04  2.33e-02  3.46e-02  0.700  29.1
    4    -2486.4513976263142467    -9.54e-02  1.07e-03  6.16e-02  1.67e-02  0.000  26.7
    5    -2486.6714160834408176    -2.20e-01  2.51e-04  1.18e-02  8.79e-03  0.000  28.0
                              *** Initializing SOSCF ***
---------------------------------------S-O-S-C-F--------------------------------------
Iteration    Energy (Eh)           Delta-E    RMSDP     MaxDP     MaxGrad    Time(sec)
--------------------------------------------------------------------------------------
    6    -2486.6733427351846331    -1.93e-03  9.44e-05  4.04e-03  3.01e-03    24.1
               *** Restarting incremental Fock matrix formation ***
    7    -2486.6736168994602849    -2.74e-04  7.93e-05  3.54e-03  5.52e-04    66.6
    8    -2486.6735476625181036     6.92e-05  4.82e-05  2.38e-03  1.40e-03    39.0
    9    -2486.6736597112349045    -1.12e-04  1.03e-05  5.29e-04  9.23e-05    34.5
   10    -2486.6736583474512372     1.36e-06  6.40e-06  3.14e-04  2.19e-04    27.3
   11    -2486.6736603799463410    -2.03e-06  3.12e-06  1.64e-04  2.40e-05    24.0
   12    -2486.6736602888540801     9.11e-08  1.84e-06  1.06e-04  3.63e-05    21.9
                 **** Energy Check signals convergence ****

               *****************************************************
               *                     SUCCESS                       *
               *           SCF CONVERGED AFTER  12 CYCLES          *
               *****************************************************

Recomputing exchange energy using gridx3       ... done (  115.637 sec)
Old exchange energy                            :    -51.354282802 Eh
New exchange energy                            :    -51.354373905 Eh
Exchange energy change after final integration :     -0.000091104 Eh
Total energy after final integration           :  -2486.673751393 Eh
             **** ENERGY FILE WAS UPDATED (/home/nmrbox/aojoawo/Documents/ERDOS/inputs/CHEMBL3927494.en.tmp) ****

----------------
TOTAL SCF ENERGY
----------------

Total Energy       :      -2486.67375139261276 Eh          -67665.83284 eV

Components:
Nuclear Repulsion  :       3720.69105533088896 Eh          101245.15082 eV
Electronic Energy  :      -6207.36471561974304 Eh         -168910.98118 eV
One Electron Energy:     -10818.84165725802268 Eh         -294395.64828 eV
Two Electron Energy:       4611.47694163827964 Eh          125484.66710 eV

Virial components:
Potential Energy   :      -4962.15561698269448 Eh         -135027.11898 eV
Kinetic Energy     :       2475.48186559008127 Eh           67361.28614 eV
Virial Ratio       :          2.00452109383555

DFT components:
N(Alpha)           :      131.000158190759 electrons
N(Beta)            :      131.000158190759 electrons
N(Total)           :      262.000316381519 electrons
E(X)               :     -204.156773246151 Eh       
E(C)               :      -11.050825722867 Eh       
E(XC)              :     -215.207598969017 Eh       

---------------
SCF CONVERGENCE
---------------

  Last Energy change         ...   -9.1092e-08  Tolerance :   1.0000e-06
  Last MAX-Density change    ...    1.0637e-04  Tolerance :   1.0000e-05
  Last RMS-Density change    ...    1.8400e-06  Tolerance :   1.0000e-06
  Last DIIS Error            ...    3.0148e-03  Tolerance :   1.0000e-06
  Last Orbital Gradient      ...    3.6350e-05  Tolerance :   5.0000e-05
  Last Orbital Rotation      ...    5.4077e-05  Tolerance :   5.0000e-05


----------------
ORBITAL ENERGIES
----------------

  NO   OCC          E(Eh)            E(eV) 
   0   2.0000    -101.527986     -2762.7169 
   1   2.0000     -88.910437     -2419.3760 
   2   2.0000     -24.720565      -672.6808 
   3   2.0000     -24.711280      -672.4281 
   4   2.0000     -24.711140      -672.4243 
   5   2.0000     -19.259523      -524.0783 
   6   2.0000     -19.123020      -520.3638 
   7   2.0000     -19.121849      -520.3320 
   8   2.0000     -19.120207      -520.2873 
   9   2.0000     -14.423051      -392.4712 
  10   2.0000     -14.407477      -392.0474 
  11   2.0000     -14.392964      -391.6525 
  12   2.0000     -14.328036      -389.8857 
  13   2.0000     -10.434544      -283.9384 
  14   2.0000     -10.340139      -281.3695 
  15   2.0000     -10.307659      -280.4856 
  16   2.0000     -10.304805      -280.4080 
  17   2.0000     -10.302347      -280.3411 
  18   2.0000     -10.292785      -280.0809 
  19   2.0000     -10.258173      -279.1391 
  20   2.0000     -10.258103      -279.1372 
  21   2.0000     -10.247162      -278.8395 
  22   2.0000     -10.230514      -278.3865 
  23   2.0000     -10.228284      -278.3258 
  24   2.0000     -10.222659      -278.1727 
  25   2.0000     -10.213450      -277.9221 
  26   2.0000     -10.210894      -277.8526 
  27   2.0000     -10.208615      -277.7905 
  28   2.0000     -10.206311      -277.7278 
  29   2.0000     -10.206009      -277.7196 
  30   2.0000     -10.200597      -277.5724 
  31   2.0000     -10.200156      -277.5603 
  32   2.0000     -10.196832      -277.4699 
  33   2.0000     -10.196012      -277.4476 
  34   2.0000      -9.459836      -257.4152 
  35   2.0000      -7.988128      -217.3680 
  36   2.0000      -7.223104      -196.5507 
  37   2.0000      -7.213428      -196.2873 
  38   2.0000      -7.212870      -196.2722 
  39   2.0000      -5.951212      -161.9407 
  40   2.0000      -5.947083      -161.8284 
  41   2.0000      -5.944943      -161.7701 
  42   2.0000      -1.275974       -34.7210 
  43   2.0000      -1.202348       -32.7176 
  44   2.0000      -1.197756       -32.5926 
  45   2.0000      -1.189762       -32.3751 
  46   2.0000      -1.078135       -29.3375 
  47   2.0000      -1.031854       -28.0782 
  48   2.0000      -1.023456       -27.8496 
  49   2.0000      -0.985033       -26.8041 
  50   2.0000      -0.977554       -26.6006 
  51   2.0000      -0.950132       -25.8544 
  52   2.0000      -0.916424       -24.9372 
  53   2.0000      -0.895470       -24.3670 
  54   2.0000      -0.860592       -23.4179 
  55   2.0000      -0.843718       -22.9587 
  56   2.0000      -0.815716       -22.1968 
  57   2.0000      -0.813734       -22.1428 
  58   2.0000      -0.787384       -21.4258 
  59   2.0000      -0.776627       -21.1331 
  60   2.0000      -0.766929       -20.8692 
  61   2.0000      -0.749997       -20.4084 
  62   2.0000      -0.732079       -19.9209 
  63   2.0000      -0.719544       -19.5798 
  64   2.0000      -0.713329       -19.4107 
  65   2.0000      -0.691586       -18.8190 
  66   2.0000      -0.672306       -18.2944 
  67   2.0000      -0.639616       -17.4048 
  68   2.0000      -0.634206       -17.2576 
  69   2.0000      -0.630051       -17.1446 
  70   2.0000      -0.619071       -16.8458 
  71   2.0000      -0.610648       -16.6166 
  72   2.0000      -0.597654       -16.2630 
  73   2.0000      -0.587137       -15.9768 
  74   2.0000      -0.566157       -15.4059 
  75   2.0000      -0.564975       -15.3738 
  76   2.0000      -0.563931       -15.3454 
  77   2.0000      -0.542391       -14.7592 
  78   2.0000      -0.537698       -14.6315 
  79   2.0000      -0.531460       -14.4618 
  80   2.0000      -0.519407       -14.1338 
  81   2.0000      -0.514780       -14.0079 
  82   2.0000      -0.498442       -13.5633 
  83   2.0000      -0.494349       -13.4519 
  84   2.0000      -0.484402       -13.1813 
  85   2.0000      -0.480465       -13.0741 
  86   2.0000      -0.473312       -12.8795 
  87   2.0000      -0.469548       -12.7771 
  88   2.0000      -0.460225       -12.5234 
  89   2.0000      -0.457366       -12.4456 
  90   2.0000      -0.454684       -12.3726 
  91   2.0000      -0.451619       -12.2892 
  92   2.0000      -0.447087       -12.1659 
  93   2.0000      -0.441837       -12.0230 
  94   2.0000      -0.440527       -11.9874 
  95   2.0000      -0.433441       -11.7945 
  96   2.0000      -0.430649       -11.7186 
  97   2.0000      -0.428115       -11.6496 
  98   2.0000      -0.424002       -11.5377 
  99   2.0000      -0.420188       -11.4339 
 100   2.0000      -0.419059       -11.4032 
 101   2.0000      -0.413597       -11.2545 
 102   2.0000      -0.411995       -11.2110 
 103   2.0000      -0.409389       -11.1400 
 104   2.0000      -0.408334       -11.1113 
 105   2.0000      -0.398366       -10.8401 
 106   2.0000      -0.397456       -10.8153 
 107   2.0000      -0.395580       -10.7643 
 108   2.0000      -0.394103       -10.7241 
 109   2.0000      -0.393394       -10.7048 
 110   2.0000      -0.391701       -10.6587 
 111   2.0000      -0.388694       -10.5769 
 112   2.0000      -0.373439       -10.1618 
 113   2.0000      -0.365375        -9.9424 
 114   2.0000      -0.362209        -9.8562 
 115   2.0000      -0.357556        -9.7296 
 116   2.0000      -0.339563        -9.2400 
 117   2.0000      -0.334909        -9.1133 
 118   2.0000      -0.308594        -8.3973 
 119   2.0000      -0.307136        -8.3576 
 120   2.0000      -0.296466        -8.0672 
 121   2.0000      -0.293255        -7.9799 
 122   2.0000      -0.286657        -7.8003 
 123   2.0000      -0.282028        -7.6744 
 124   2.0000      -0.277463        -7.5501 
 125   2.0000      -0.268611        -7.3093 
 126   2.0000      -0.260851        -7.0981 
 127   2.0000      -0.253093        -6.8870 
 128   2.0000      -0.238524        -6.4906 
 129   2.0000      -0.215501        -5.8641 
 130   2.0000      -0.211832        -5.7643 
 131   0.0000      -0.044855        -1.2206 
 132   0.0000      -0.034293        -0.9332 
 133   0.0000      -0.030193        -0.8216 
 134   0.0000      -0.020831        -0.5668 
 135   0.0000      -0.011480        -0.3124 
 136   0.0000       0.017250         0.4694 
 137   0.0000       0.018946         0.5155 
 138   0.0000       0.028991         0.7889 
 139   0.0000       0.033213         0.9038 
 140   0.0000       0.061519         1.6740 
 141   0.0000       0.067716         1.8427 
*Only the first 10 virtual orbitals were printed.

                    ********************************
                    * MULLIKEN POPULATION ANALYSIS *
                    ********************************

-----------------------
MULLIKEN ATOMIC CHARGES
-----------------------
   0 C :   -0.531669
   1 C :    0.255148
   2 O :   -0.401491
   3 C :    0.488623
   4 C :    0.026770
   5 C :    0.013742
   6 C :   -0.435040
   7 C :    0.566524
   8 O :   -0.436514
   9 N :   -0.665625
  10 C :    0.255195
  11 N :   -0.379689
  12 C :    0.219395
  13 C :    0.114703
  14 C :   -0.151745
  15 C :   -0.134359
  16 C :   -0.107440
  17 Cl:    0.011918
  18 C :   -0.020880
  19 C :    0.906552
  20 F :   -0.306823
  21 F :   -0.297382
  22 F :   -0.297463
  23 C :   -0.209332
  24 C :   -0.397497
  25 S :    0.257653
  26 C :    0.503231
  27 O :   -0.519877
  28 N :   -0.482352
  29 C :   -0.315823
  30 C :    0.675832
  31 O :   -0.502759
  32 N :   -0.501825
  33 C :   -0.330590
  34 H :    0.178379
  35 H :    0.207025
  36 H :    0.162982
  37 H :    0.181305
  38 H :    0.203990
  39 H :    0.360229
  40 H :    0.187759
  41 H :    0.162312
  42 H :    0.152222
  43 H :    0.185684
  44 H :    0.193857
  45 H :    0.181351
  46 H :    0.195573
  47 H :    0.184461
  48 H :    0.205950
  49 H :    0.187808
Sum of atomic charges:   -0.0000000

--------------------------------
MULLIKEN REDUCED ORBITAL CHARGES
--------------------------------
  0 C s       :     3.320761  s :     3.320761
      pz      :     1.010288  p :     3.176524
      px      :     1.088112
      py      :     1.078124
      dz2     :     0.006943  d :     0.034385
      dxz     :     0.006708
      dyz     :     0.006921
      dx2y2   :     0.010997
      dxy     :     0.002817

  1 C s       :     3.074799  s :     3.074799
      pz      :     0.924907  p :     2.597553
      px      :     0.861900
      py      :     0.810746
      dz2     :     0.017744  d :     0.072501
      dxz     :     0.012180
      dyz     :     0.012907
      dx2y2   :     0.013273
      dxy     :     0.016397

  2 O s       :     3.832070  s :     3.832070
      pz      :     1.493582  p :     4.528539
      px      :     1.502819
      py      :     1.532138
      dz2     :     0.010675  d :     0.040882
      dxz     :     0.007671
      dyz     :     0.008264
      dx2y2   :     0.009052
      dxy     :     0.005221

  3 C s       :     2.947779  s :     2.947779
      pz      :     0.723103  p :     2.468542
      px      :     0.856668
      py      :     0.888771
      dz2     :     0.024121  d :     0.095056
      dxz     :     0.021557
      dyz     :     0.020131
      dx2y2   :     0.016669
      dxy     :     0.012578

  4 C s       :     3.120241  s :     3.120241
      pz      :     0.801883  p :     2.810471
      px      :     1.031674
      py      :     0.976914
      dz2     :     0.009185  d :     0.042517
      dxz     :     0.009792
      dyz     :     0.010395
      dx2y2   :     0.008797
      dxy     :     0.004348

  5 C s       :     3.160519  s :     3.160519
      pz      :     0.887084  p :     2.782278
      px      :     0.985333
      py      :     0.909861
      dz2     :     0.008934  d :     0.043461
      dxz     :     0.008217
      dyz     :     0.011520
      dx2y2   :     0.007396
      dxy     :     0.007396

  6 C s       :     3.293772  s :     3.293772
      pz      :     1.107204  p :     3.101867
      px      :     0.970094
      py      :     1.024569
      dz2     :     0.005944  d :     0.039400
      dxz     :     0.005872
      dyz     :     0.010483
      dx2y2   :     0.008872
      dxy     :     0.008229

  7 C s       :     3.007626  s :     3.007626
      pz      :     0.732265  p :     2.326895
      px      :     0.821015
      py      :     0.773616
      dz2     :     0.026798  d :     0.098954
      dxz     :     0.019968
      dyz     :     0.017904
      dx2y2   :     0.019774
      dxy     :     0.014510

  8 O s       :     3.893060  s :     3.893060
      pz      :     1.481973  p :     4.517452
      px      :     1.535254
      py      :     1.500225
      dz2     :     0.005660  d :     0.026002
      dxz     :     0.007389
      dyz     :     0.003373
      dx2y2   :     0.003938
      dxy     :     0.005643

  9 N s       :     3.625051  s :     3.625051
      pz      :     1.331733  p :     4.012424
      px      :     1.194248
      py      :     1.486442
      dz2     :     0.003992  d :     0.028150
      dxz     :     0.009618
      dyz     :     0.003803
      dx2y2   :     0.005313
      dxy     :     0.005423

 10 C s       :     3.047344  s :     3.047344
      pz      :     0.899941  p :     2.623510
      px      :     0.777501
      py      :     0.946067
      dz2     :     0.015583  d :     0.073951
      dxz     :     0.016595
      dyz     :     0.008872
      dx2y2   :     0.016490
      dxy     :     0.016412

 11 N s       :     3.733489  s :     3.733489
      pz      :     1.358952  p :     3.606756
      px      :     0.982078
      py      :     1.265726
      dz2     :     0.006981  d :     0.039444
      dxz     :     0.012350
      dyz     :     0.006466
      dx2y2   :     0.005196
      dxy     :     0.008450

 12 C s       :     3.057401  s :     3.057401
      pz      :     0.884326  p :     2.663721
      px      :     0.855802
      py      :     0.923593
      dz2     :     0.012392  d :     0.059483
      dxz     :     0.015027
      dyz     :     0.007882
      dx2y2   :     0.012958
      dxy     :     0.011225

 13 C s       :     3.143090  s :     3.143090
      pz      :     0.917500  p :     2.702454
      px      :     0.907257
      py      :     0.877697
      dz2     :     0.006547  d :     0.039753
      dxz     :     0.008572
      dyz     :     0.006192
      dx2y2   :     0.009275
      dxy     :     0.009168

 14 C s       :     3.208598  s :     3.208598
      pz      :     0.961744  p :     2.907185
      px      :     0.952850
      py      :     0.992591
      dz2     :     0.006921  d :     0.035963
      dxz     :     0.006926
      dyz     :     0.005538
      dx2y2   :     0.006430
      dxy     :     0.010147

 15 C s       :     3.200470  s :     3.200470
      pz      :     1.000809  p :     2.898372
      px      :     0.917335
      py      :     0.980228
      dz2     :     0.004430  d :     0.035517
      dxz     :     0.007298
      dyz     :     0.007283
      dx2y2   :     0.008000
      dxy     :     0.008506

 16 C s       :     3.180537  s :     3.180537
      pz      :     0.978200  p :     2.878738
      px      :     0.868477
      py      :     1.032060
      dz2     :     0.008343  d :     0.048166
      dxz     :     0.010785
      dyz     :     0.007034
      dx2y2   :     0.011658
      dxy     :     0.010346

 17 Cls       :     5.924893  s :     5.924893
      pz      :     3.737890  p :    11.034010
      px      :     3.365358
      py      :     3.930762
      dz2     :     0.003430  d :     0.029179
      dxz     :     0.011731
      dyz     :     0.001300
      dx2y2   :     0.008611
      dxy     :     0.004108

 18 C s       :     3.169662  s :     3.169662
      pz      :     0.954885  p :     2.814145
      px      :     0.901036
      py      :     0.958224
      dz2     :     0.007522  d :     0.037074
      dxz     :     0.006767
      dyz     :     0.005850
      dx2y2   :     0.006614
      dxy     :     0.010322

 19 C s       :     2.807261  s :     2.807261
      pz      :     0.628673  p :     2.147641
      px      :     0.774449
      py      :     0.744519
      dz2     :     0.027268  d :     0.138546
      dxz     :     0.025484
      dyz     :     0.034687
      dx2y2   :     0.020482
      dxy     :     0.030626

 20 F s       :     3.981490  s :     3.981490
      pz      :     1.699280  p :     5.309147
      px      :     1.874308
      py      :     1.735559
      dz2     :     0.003174  d :     0.016186
      dxz     :     0.002632
      dyz     :     0.005761
      dx2y2   :     0.002179
      dxy     :     0.002440

 21 F s       :     3.981572  s :     3.981572
      pz      :     1.856843  p :     5.299259
      px      :     1.631993
      py      :     1.810422
      dz2     :     0.002126  d :     0.016550
      dxz     :     0.003597
      dyz     :     0.001807
      dx2y2   :     0.003719
      dxy     :     0.005301

 22 F s       :     3.981441  s :     3.981441
      pz      :     1.620273  p :     5.299482
      px      :     1.884808
      py      :     1.794401
      dz2     :     0.004838  d :     0.016540
      dxz     :     0.002990
      dyz     :     0.005523
      dx2y2   :     0.001404
      dxy     :     0.001785

 23 C s       :     3.216520  s :     3.216520
      pz      :     0.990020  p :     2.957239
      px      :     0.976800
      py      :     0.990419
      dz2     :     0.003966  d :     0.035573
      dxz     :     0.007326
      dyz     :     0.007574
      dx2y2   :     0.008869
      dxy     :     0.007838

 24 C s       :     3.269237  s :     3.269237
      pz      :     1.077616  p :     3.094399
      px      :     0.880801
      py      :     1.135982
      dz2     :     0.006611  d :     0.033861
      dxz     :     0.007980
      dyz     :     0.006373
      dx2y2   :     0.006233
      dxy     :     0.006665

 25 S s       :     5.796558  s :     5.796558
      pz      :     3.324902  p :     9.839055
      px      :     3.095592
      py      :     3.418561
      dz2     :     0.019870  d :     0.106734
      dxz     :     0.021495
      dyz     :     0.021623
      dx2y2   :     0.028044
      dxy     :     0.015702

 26 C s       :     2.965617  s :     2.965617
      pz      :     0.890716  p :     2.422275
      px      :     0.790033
      py      :     0.741526
      dz2     :     0.030026  d :     0.108877
      dxz     :     0.016722
      dyz     :     0.021723
      dx2y2   :     0.019837
      dxy     :     0.020569

 27 O s       :     3.887904  s :     3.887904
      pz      :     1.605789  p :     4.607053
      px      :     1.556893
      py      :     1.444371
      dz2     :     0.004522  d :     0.024920
      dxz     :     0.004395
      dyz     :     0.006822
      dx2y2   :     0.005089
      dxy     :     0.004092

 28 N s       :     3.610351  s :     3.610351
      pz      :     1.162088  p :     3.834567
      px      :     1.378283
      py      :     1.294196
      dz2     :     0.007707  d :     0.037434
      dxz     :     0.008376
      dyz     :     0.010006
      dx2y2   :     0.005647
      dxy     :     0.005699

 29 C s       :     3.269848  s :     3.269848
      pz      :     0.808429  p :     3.000784
      px      :     1.070562
      py      :     1.121794
      dz2     :     0.013762  d :     0.045191
      dxz     :     0.011204
      dyz     :     0.006388
      dx2y2   :     0.005820
      dxy     :     0.008016

 30 C s       :     2.847038  s :     2.847038
      pz      :     0.763007  p :     2.355244
      px      :     0.796085
      py      :     0.796152
      dz2     :     0.025771  d :     0.121886
      dxz     :     0.029094
      dyz     :     0.026252
      dx2y2   :     0.024542
      dxy     :     0.016227

 31 O s       :     3.888147  s :     3.888147
      pz      :     1.722115  p :     4.588930
      px      :     1.402820
      py      :     1.463995
      dz2     :     0.003070  d :     0.025682
      dxz     :     0.003728
      dyz     :     0.003787
      dx2y2   :     0.008118
      dxy     :     0.006978

 32 N s       :     3.613029  s :     3.613029
      pz      :     1.148168  p :     3.848658
      px      :     1.384828
      py      :     1.315661
      dz2     :     0.010057  d :     0.040139
      dxz     :     0.007427
      dyz     :     0.008243
      dx2y2   :     0.007827
      dxy     :     0.006586

 33 C s       :     3.278655  s :     3.278655
      pz      :     0.958617  p :     3.005834
      px      :     1.057076
      py      :     0.990141
      dz2     :     0.004887  d :     0.046101
      dxz     :     0.012607
      dyz     :     0.011476
      dx2y2   :     0.011523
      dxy     :     0.005607

 34 H s       :     0.821621  s :     0.821621

 35 H s       :     0.792975  s :     0.792975

 36 H s       :     0.837018  s :     0.837018

 37 H s       :     0.818695  s :     0.818695

 38 H s       :     0.796010  s :     0.796010

 39 H s       :     0.639771  s :     0.639771

 40 H s       :     0.812241  s :     0.812241

 41 H s       :     0.837688  s :     0.837688

 42 H s       :     0.847778  s :     0.847778

 43 H s       :     0.814316  s :     0.814316

 44 H s       :     0.806143  s :     0.806143

 45 H s       :     0.818649  s :     0.818649

 46 H s       :     0.804427  s :     0.804427

 47 H s       :     0.815539  s :     0.815539

 48 H s       :     0.794050  s :     0.794050

 49 H s       :     0.812192  s :     0.812192



                     *******************************
                     * LOEWDIN POPULATION ANALYSIS *
                     *******************************

----------------------
LOEWDIN ATOMIC CHARGES
----------------------
   0 C :   -0.363040
   1 C :    0.028181
   2 O :    0.001646
   3 C :    0.094148
   4 C :   -0.117266
   5 C :   -0.050655
   6 C :   -0.241924
   7 C :    0.157719
   8 O :   -0.254036
   9 N :   -0.208028
  10 C :   -0.078693
  11 N :   -0.155883
  12 C :   -0.004693
  13 C :   -0.015495
  14 C :   -0.094726
  15 C :   -0.127833
  16 C :   -0.071243
  17 Cl:    0.046850
  18 C :   -0.077262
  19 C :    0.314561
  20 F :   -0.112251
  21 F :   -0.108786
  22 F :   -0.109055
  23 C :   -0.108583
  24 C :   -0.347151
  25 S :    0.394130
  26 C :    0.108316
  27 O :   -0.317962
  28 N :   -0.027548
  29 C :   -0.260028
  30 C :    0.142605
  31 O :   -0.311856
  32 N :   -0.021642
  33 C :   -0.260234
  34 H :    0.148655
  35 H :    0.161183
  36 H :    0.142177
  37 H :    0.155721
  38 H :    0.163798
  39 H :    0.272980
  40 H :    0.162098
  41 H :    0.149984
  42 H :    0.144666
  43 H :    0.161700
  44 H :    0.152212
  45 H :    0.142207
  46 H :    0.152693
  47 H :    0.145932
  48 H :    0.158148
  49 H :    0.143565

-------------------------------
LOEWDIN REDUCED ORBITAL CHARGES
-------------------------------
  0 C s       :     2.970111  s :     2.970111
      pz      :     1.073695  p :     3.325324
      px      :     1.125523
      py      :     1.126106
      dz2     :     0.014420  d :     0.067605
      dxz     :     0.013711
      dyz     :     0.013723
      dx2y2   :     0.020964
      dxy     :     0.004786

  1 C s       :     2.853682  s :     2.853682
      pz      :     1.056999  p :     2.949510
      px      :     0.966840
      py      :     0.925671
      dz2     :     0.040164  d :     0.168628
      dxz     :     0.028127
      dyz     :     0.033089
      dx2y2   :     0.029162
      dxy     :     0.038086

  2 O s       :     3.390116  s :     3.390116
      pz      :     1.505184  p :     4.514249
      px      :     1.486003
      py      :     1.523063
      dz2     :     0.024500  d :     0.093989
      dxz     :     0.017219
      dyz     :     0.017767
      dx2y2   :     0.020902
      dxy     :     0.013601

  3 C s       :     2.799613  s :     2.799613
      pz      :     0.914036  p :     2.882143
      px      :     0.970924
      py      :     0.997183
      dz2     :     0.058466  d :     0.224096
      dxz     :     0.051389
      dyz     :     0.049600
      dx2y2   :     0.035670
      dxy     :     0.028971

  4 C s       :     2.837468  s :     2.837468
      pz      :     1.031450  p :     3.162151
      px      :     1.074347
      py      :     1.056354
      dz2     :     0.026660  d :     0.117647
      dxz     :     0.026969
      dyz     :     0.031338
      dx2y2   :     0.020139
      dxy     :     0.012541

  5 C s       :     2.860414  s :     2.860414
      pz      :     1.034464  p :     3.082424
      px      :     1.018847
      py      :     1.029113
      dz2     :     0.025394  d :     0.107817
      dxz     :     0.020538
      dyz     :     0.029653
      dx2y2   :     0.014721
      dxy     :     0.017511

  6 C s       :     2.927701  s :     2.927701
      pz      :     1.125422  p :     3.230309
      px      :     1.032444
      py      :     1.072444
      dz2     :     0.011758  d :     0.083915
      dxz     :     0.012165
      dyz     :     0.020940
      dx2y2   :     0.020204
      dxy     :     0.018847

  7 C s       :     2.868263  s :     2.868263
      pz      :     0.892343  p :     2.745351
      px      :     1.002188
      py      :     0.850819
      dz2     :     0.061172  d :     0.228667
      dxz     :     0.047159
      dyz     :     0.043658
      dx2y2   :     0.046357
      dxy     :     0.030322

  8 O s       :     3.593556  s :     3.593556
      pz      :     1.517059  p :     4.609699
      px      :     1.592116
      py      :     1.500524
      dz2     :     0.008819  d :     0.050782
      dxz     :     0.018364
      dyz     :     0.006079
      dx2y2   :     0.008610
      dxy     :     0.008911

  9 N s       :     3.150597  s :     3.150597
      pz      :     1.320094  p :     3.988457
      px      :     1.199121
      py      :     1.469242
      dz2     :     0.010930  d :     0.068973
      dxz     :     0.022216
      dyz     :     0.009812
      dx2y2   :     0.012244
      dxy     :     0.013770

 10 C s       :     2.896715  s :     2.896715
      pz      :     1.027755  p :     3.011484
      px      :     0.969149
      py      :     1.014580
      dz2     :     0.036076  d :     0.170494
      dxz     :     0.039911
      dyz     :     0.021593
      dx2y2   :     0.037710
      dxy     :     0.035204

 11 N s       :     3.252972  s :     3.252972
      pz      :     1.428212  p :     3.817920
      px      :     1.095815
      py      :     1.293892
      dz2     :     0.010741  d :     0.084992
      dxz     :     0.031000
      dyz     :     0.009259
      dx2y2   :     0.013362
      dxy     :     0.020630

 12 C s       :     2.861751  s :     2.861751
      pz      :     1.018190  p :     2.999671
      px      :     0.995067
      py      :     0.986414
      dz2     :     0.030735  d :     0.143271
      dxz     :     0.036123
      dyz     :     0.020714
      dx2y2   :     0.029857
      dxy     :     0.025841

 13 C s       :     2.869574  s :     2.869574
      pz      :     1.004632  p :     3.045450
      px      :     1.013922
      py      :     1.026897
      dz2     :     0.015052  d :     0.100470
      dxz     :     0.021371
      dyz     :     0.016529
      dx2y2   :     0.023694
      dxy     :     0.023824

 14 C s       :     2.918679  s :     2.918679
      pz      :     1.000724  p :     3.092206
      px      :     1.060137
      py      :     1.031345
      dz2     :     0.014892  d :     0.083841
      dxz     :     0.018132
      dyz     :     0.012997
      dx2y2   :     0.016174
      dxy     :     0.021647

 15 C s       :     2.918676  s :     2.918676
      pz      :     1.035801  p :     3.124129
      px      :     1.052546
      py      :     1.035783
      dz2     :     0.010332  d :     0.085029
      dxz     :     0.017962
      dyz     :     0.013449
      dx2y2   :     0.020618
      dxy     :     0.022667

 16 C s       :     2.914404  s :     2.914404
      pz      :     1.016592  p :     3.044754
      px      :     0.962374
      py      :     1.065788
      dz2     :     0.017926  d :     0.112085
      dxz     :     0.024777
      dyz     :     0.016988
      dx2y2   :     0.027254
      dxy     :     0.025140

 17 Cls       :     5.805636  s :     5.805636
      pz      :     3.758895  p :    11.114747
      px      :     3.426277
      py      :     3.929575
      dz2     :     0.003624  d :     0.032768
      dxz     :     0.013512
      dyz     :     0.001365
      dx2y2   :     0.009929
      dxy     :     0.004337

 18 C s       :     2.889573  s :     2.889573
      pz      :     1.038637  p :     3.093229
      px      :     1.034692
      py      :     1.019900
      dz2     :     0.017434  d :     0.094460
      dxz     :     0.018198
      dyz     :     0.014958
      dx2y2   :     0.017571
      dxy     :     0.026298

 19 C s       :     2.851070  s :     2.851070
      pz      :     0.776105  p :     2.505562
      px      :     0.875661
      py      :     0.853796
      dz2     :     0.063973  d :     0.328807
      dxz     :     0.058291
      dyz     :     0.086563
      dx2y2   :     0.041812
      dxy     :     0.078169

 20 F s       :     3.757423  s :     3.757423
      pz      :     1.707992  p :     5.323948
      px      :     1.873936
      py      :     1.742019
      dz2     :     0.005396  d :     0.030880
      dxz     :     0.004842
      dyz     :     0.012045
      dx2y2   :     0.004200
      dxy     :     0.004396

 21 F s       :     3.761559  s :     3.761559
      pz      :     1.855691  p :     5.315806
      px      :     1.649752
      py      :     1.810362
      dz2     :     0.003856  d :     0.031421
      dxz     :     0.006532
      dyz     :     0.003270
      dx2y2   :     0.007323
      dxy     :     0.010441

 22 F s       :     3.761586  s :     3.761586
      pz      :     1.636286  p :     5.316047
      px      :     1.882994
      py      :     1.796767
      dz2     :     0.008790  d :     0.031422
      dxz     :     0.005635
      dyz     :     0.011511
      dx2y2   :     0.002164
      dxy     :     0.003321

 23 C s       :     2.915895  s :     2.915895
      pz      :     1.029181  p :     3.110487
      px      :     1.035205
      py      :     1.046102
      dz2     :     0.008925  d :     0.082200
      dxz     :     0.017601
      dyz     :     0.013949
      dx2y2   :     0.021968
      dxy     :     0.019757

 24 C s       :     2.982088  s :     2.982088
      pz      :     1.107768  p :     3.285248
      px      :     1.032451
      py      :     1.145029
      dz2     :     0.016401  d :     0.079816
      dxz     :     0.019489
      dyz     :     0.014122
      dx2y2   :     0.015946
      dxy     :     0.013857

 25 S s       :     5.520639  s :     5.520639
      pz      :     3.380854  p :     9.959076
      px      :     3.155333
      py      :     3.422889
      dz2     :     0.022967  d :     0.126155
      dxz     :     0.024653
      dyz     :     0.026611
      dx2y2   :     0.033515
      dxy     :     0.018408

 26 C s       :     2.820648  s :     2.820648
      pz      :     1.010971  p :     2.811614
      px      :     0.888240
      py      :     0.912404
      dz2     :     0.072411  d :     0.259422
      dxz     :     0.038265
      dyz     :     0.054239
      dx2y2   :     0.042890
      dxy     :     0.051617

 27 O s       :     3.579940  s :     3.579940
      pz      :     1.635518  p :     4.687975
      px      :     1.565596
      py      :     1.486861
      dz2     :     0.008438  d :     0.050048
      dxz     :     0.007960
      dyz     :     0.016568
      dx2y2   :     0.008498
      dxy     :     0.008583

 28 N s       :     3.085200  s :     3.085200
      pz      :     1.187574  p :     3.844758
      px      :     1.358968
      py      :     1.298216
      dz2     :     0.021319  d :     0.097591
      dxz     :     0.021106
      dyz     :     0.026054
      dx2y2   :     0.012958
      dxy     :     0.016154

 29 C s       :     2.971103  s :     2.971103
      pz      :     0.915485  p :     3.199460
      px      :     1.122706
      py      :     1.161268
      dz2     :     0.028948  d :     0.089466
      dxz     :     0.023029
      dyz     :     0.013163
      dx2y2   :     0.010022
      dxy     :     0.014303

 30 C s       :     2.802535  s :     2.802535
      pz      :     0.921512  p :     2.772109
      px      :     0.924186
      py      :     0.926412
      dz2     :     0.062467  d :     0.282751
      dxz     :     0.067917
      dyz     :     0.061362
      dx2y2   :     0.051246
      dxy     :     0.039759

 31 O s       :     3.586949  s :     3.586949
      pz      :     1.728728  p :     4.674385
      px      :     1.445797
      py      :     1.499860
      dz2     :     0.006458  d :     0.050521
      dxz     :     0.007399
      dyz     :     0.007204
      dx2y2   :     0.012120
      dxy     :     0.017340

 32 N s       :     3.061492  s :     3.061492
      pz      :     1.181465  p :     3.856510
      px      :     1.362946
      py      :     1.312098
      dz2     :     0.027785  d :     0.103640
      dxz     :     0.020545
      dyz     :     0.022645
      dx2y2   :     0.016796
      dxy     :     0.015870

 33 C s       :     2.971065  s :     2.971065
      pz      :     1.034028  p :     3.197983
      px      :     1.111964
      py      :     1.051990
      dz2     :     0.009766  d :     0.091186
      dxz     :     0.024864
      dyz     :     0.023140
      dx2y2   :     0.022803
      dxy     :     0.010612

 34 H s       :     0.851345  s :     0.851345

 35 H s       :     0.838817  s :     0.838817

 36 H s       :     0.857823  s :     0.857823

 37 H s       :     0.844279  s :     0.844279

 38 H s       :     0.836202  s :     0.836202

 39 H s       :     0.727020  s :     0.727020

 40 H s       :     0.837902  s :     0.837902

 41 H s       :     0.850016  s :     0.850016

 42 H s       :     0.855334  s :     0.855334

 43 H s       :     0.838300  s :     0.838300

 44 H s       :     0.847788  s :     0.847788

 45 H s       :     0.857793  s :     0.857793

 46 H s       :     0.847307  s :     0.847307

 47 H s       :     0.854068  s :     0.854068

 48 H s       :     0.841852  s :     0.841852

 49 H s       :     0.856435  s :     0.856435



                      *****************************
                      * MAYER POPULATION ANALYSIS *
                      *****************************

  NA   - Mulliken gross atomic population
  ZA   - Total nuclear charge
  QA   - Mulliken gross atomic charge
  VA   - Mayer's total valence
  BVA  - Mayer's bonded valence
  FA   - Mayer's free valence

  ATOM       NA         ZA         QA         VA         BVA        FA
  0 C      6.5317     6.0000    -0.5317     3.8287     3.8287    -0.0000
  1 C      5.7449     6.0000     0.2551     3.7377     3.7377     0.0000
  2 O      8.4015     8.0000    -0.4015     2.2362     2.2362     0.0000
  3 C      5.5114     6.0000     0.4886     3.6145     3.6145    -0.0000
  4 C      5.9732     6.0000     0.0268     3.9001     3.9001    -0.0000
  5 C      5.9863     6.0000     0.0137     3.9459     3.9459    -0.0000
  6 C      6.4350     6.0000    -0.4350     3.7731     3.7731    -0.0000
  7 C      5.4335     6.0000     0.5665     3.8962     3.8962     0.0000
  8 O      8.4365     8.0000    -0.4365     2.0741     2.0741     0.0000
  9 N      7.6656     7.0000    -0.6656     2.8978     2.8978    -0.0000
 10 C      5.7448     6.0000     0.2552     3.8184     3.8184    -0.0000
 11 N      7.3797     7.0000    -0.3797     2.9783     2.9783    -0.0000
 12 C      5.7806     6.0000     0.2194     3.9831     3.9831    -0.0000
 13 C      5.8853     6.0000     0.1147     3.9712     3.9712     0.0000
 14 C      6.1517     6.0000    -0.1517     3.8860     3.8860    -0.0000
 15 C      6.1344     6.0000    -0.1344     3.8911     3.8911     0.0000
 16 C      6.1074     6.0000    -0.1074     3.9614     3.9614     0.0000
 17 Cl    16.9881    17.0000     0.0119     1.1543     1.1543     0.0000
 18 C      6.0209     6.0000    -0.0209     3.9480     3.9480     0.0000
 19 C      5.0934     6.0000     0.9066     3.8973     3.8973     0.0000
 20 F      9.3068     9.0000    -0.3068     1.0599     1.0599    -0.0000
 21 F      9.2974     9.0000    -0.2974     1.0531     1.0531    -0.0000
 22 F      9.2975     9.0000    -0.2975     1.0529     1.0529    -0.0000
 23 C      6.2093     6.0000    -0.2093     3.8764     3.8764     0.0000
 24 C      6.3975     6.0000    -0.3975     3.7581     3.7581     0.0000
 25 S     15.7423    16.0000     0.2577     2.4667     2.4667    -0.0000
 26 C      5.4968     6.0000     0.5032     3.8586     3.8586    -0.0000
 27 O      8.5199     8.0000    -0.5199     2.0161     2.0161    -0.0000
 28 N      7.4824     7.0000    -0.4824     3.0557     3.0557    -0.0000
 29 C      6.3158     6.0000    -0.3158     3.7685     3.7685     0.0000
 30 C      5.3242     6.0000     0.6758     3.9558     3.9558    -0.0000
 31 O      8.5028     8.0000    -0.5028     2.0369     2.0369     0.0000
 32 N      7.5018     7.0000    -0.5018     3.0798     3.0798     0.0000
 33 C      6.3306     6.0000    -0.3306     3.7697     3.7697     0.0000
 34 H      0.8216     1.0000     0.1784     0.9291     0.9291    -0.0000
 35 H      0.7930     1.0000     0.2070     0.9264     0.9264     0.0000
 36 H      0.8370     1.0000     0.1630     0.9346     0.9346    -0.0000
 37 H      0.8187     1.0000     0.1813     0.9350     0.9350     0.0000
 38 H      0.7960     1.0000     0.2040     0.9347     0.9347     0.0000
 39 H      0.6398     1.0000     0.3602     0.8608     0.8608     0.0000
 40 H      0.8122     1.0000     0.1878     0.9356     0.9356    -0.0000
 41 H      0.8377     1.0000     0.1623     0.9365     0.9365     0.0000
 42 H      0.8478     1.0000     0.1522     0.9485     0.9485     0.0000
 43 H      0.8143     1.0000     0.1857     0.9363     0.9363     0.0000
 44 H      0.8061     1.0000     0.1939     0.9357     0.9357    -0.0000
 45 H      0.8186     1.0000     0.1814     0.9269     0.9269     0.0000
 46 H      0.8044     1.0000     0.1956     0.9335     0.9335     0.0000
 47 H      0.8155     1.0000     0.1845     0.9308     0.9308    -0.0000
 48 H      0.7940     1.0000     0.2060     0.9302     0.9302    -0.0000
 49 H      0.8122     1.0000     0.1878     0.9230     0.9230    -0.0000

  Mayer bond orders larger than 0.100000
B(  0-C ,  1-C ) :   1.0393 B(  0-C , 34-H ) :   0.9299 B(  0-C , 35-H ) :   0.9136 
B(  0-C , 36-H ) :   0.9352 B(  1-C ,  2-O ) :   0.9873 B(  1-C ,  5-C ) :   1.5494 
B(  2-O ,  3-C ) :   1.0749 B(  3-C ,  4-C ) :   1.3627 B(  3-C , 32-N ) :   0.9801 
B(  4-C ,  5-C ) :   1.2790 B(  4-C , 26-C ) :   1.0898 B(  5-C ,  6-C ) :   0.9941 
B(  6-C ,  7-C ) :   0.9618 B(  6-C , 37-H ) :   0.9135 B(  6-C , 38-H ) :   0.8918 
B(  7-C ,  8-O ) :   1.8752 B(  7-C ,  9-N ) :   0.9942 B(  9-N , 10-C ) :   0.9591 
B(  9-N , 39-H ) :   0.7914 B( 10-C , 11-N ) :   1.5093 B( 10-C , 24-C ) :   0.1061 
B( 10-C , 25-S ) :   1.1408 B( 11-N , 12-C ) :   1.2657 B( 12-C , 13-C ) :   1.0485 
B( 12-C , 24-C ) :   1.5109 B( 13-C , 14-C ) :   1.4016 B( 13-C , 23-C ) :   1.3746 
B( 14-C , 15-C ) :   1.4193 B( 14-C , 40-H ) :   0.9040 B( 15-C , 16-C ) :   1.4035 
B( 15-C , 41-H ) :   0.9219 B( 16-C , 17-Cl) :   1.0533 B( 16-C , 18-C ) :   1.3574 
B( 18-C , 19-C ) :   0.9788 B( 18-C , 23-C ) :   1.4030 B( 19-C , 20-F ) :   0.9378 
B( 19-C , 21-F ) :   0.9562 B( 19-C , 22-F ) :   0.9575 B( 23-C , 42-H ) :   0.9062 
B( 24-C , 25-S ) :   1.1170 B( 24-C , 43-H ) :   0.9013 B( 26-C , 27-O ) :   1.7281 
B( 26-C , 28-N ) :   0.9788 B( 28-N , 29-C ) :   0.9168 B( 28-N , 30-C ) :   1.0385 
B( 29-C , 44-H ) :   0.9241 B( 29-C , 45-H ) :   0.9398 B( 29-C , 46-H ) :   0.9264 
B( 30-C , 31-O ) :   1.7944 B( 30-C , 32-N ) :   1.0476 B( 32-N , 33-C ) :   0.9246 
B( 33-C , 47-H ) :   0.9301 B( 33-C , 48-H ) :   0.9260 B( 33-C , 49-H ) :   0.9344 


-------
TIMINGS
-------

Total SCF time: 0 days 0 hours 8 min 55 sec 

Total time                  ....     535.947 sec
Sum of individual times     ....     535.328 sec  ( 99.9%)

SCF preparation             ....       1.114 sec  (  0.2%)
Fock matrix formation       ....     531.509 sec  ( 99.2%)
  Startup                   ....       0.319 sec  (  0.1% of F)
  Split-RI-J                ....      72.132 sec  ( 13.6% of F)
  Chain of spheres X        ....     412.488 sec  ( 77.6% of F)
  XC integration            ....      45.113 sec  (  8.5% of F)
    XC Preparation          ....       0.000 sec  (  0.0% of XC)
    Basis function eval.    ....      17.369 sec  ( 38.5% of XC)
    Density eval.           ....      10.932 sec  ( 24.2% of XC)
    XC-Functional eval.     ....       2.385 sec  (  5.3% of XC)
    XC-Potential eval.      ....      12.147 sec  ( 26.9% of XC)
Diagonalization             ....       0.000 sec  (  0.0%)
Density matrix formation    ....       0.477 sec  (  0.1%)
Total Energy calculation    ....       0.092 sec  (  0.0%)
Population analysis         ....       0.078 sec  (  0.0%)
Orbital Transformation      ....       0.235 sec  (  0.0%)
Orbital Orthonormalization  ....       0.000 sec  (  0.0%)
DIIS solution               ....       1.097 sec  (  0.2%)
SOSCF solution              ....       0.727 sec  (  0.1%)
Finished LeanSCF after 536.0 sec

Maximum memory used throughout the entire LEANSCF-calculation: 82.2 MB

-------------------------   --------------------
FINAL SINGLE POINT ENERGY     -2486.673751392613
-------------------------   --------------------


------------------------------------------------------------------------------
                              ORCA PROPERTY CALCULATIONS
------------------------------------------------------------------------------

GBWName                                 ... /home/nmrbox/aojoawo/Documents/ERDOS/inputs/CHEMBL3927494.gbw
Number of atoms                         ...     50
Number of basis functions               ...    516
Max core memory                         ...   1024 MB

Electric properties:
Dipole moment                           ... YES
Quadrupole moment                       ...  NO
Static polarizability (Dipole/Dipole)   ...  NO
Static polarizability (Dipole/Quad.)    ...  NO
Static polarizability (Quad./Quad.)     ...  NO
Static polarizability (Velocity)        ...  NO

Atomic electric properties:
Dipole moment                           ...  NO
Quadrupole moment                       ...  NO
Static polarizability                   ...  NO

Choice of electric origin               ... Center of mass
Position of electric origin             ...     2.248292    -0.255506     0.040889

General magnetic properties:
Magnetizability                         ...  NO

EPR properties:
g-Tensor (aka g-matrix)                 ...  NO
Zero-Field splitting spin-orbit         ...  NO
Zero-field splitting spin-spin          ...  NO
Hyperfine couplings                     ...  NO (   0 nuclei)
Quadrupole couplings                    ...  NO (   0 nuclei)
Contact density                         ...  NO (   0 nuclei)

NMR properties:
Chemical shifts                         ...  NO (   0 nuclei)
Spin-rotation constants                 ...  NO (   0 nuclei)
Spin-spin couplings                     ...  NO (   0 nuclei,    0 pairs)

Choice of magnetic origin               ... GIAO
Position of magnetic origin             ...     0.000000     0.000000     0.000000

Properties with geometric perturbations:
SCF Hessian                             ...  NO
IR spectrum                             ...  NO
VCD spectrum                            ...  NO
X-ray spectroscopy properties:
SCF XES/XAS/RIXS spectra                ...  NO


-------------
DIPOLE MOMENT
-------------

Method             : SCF
Type of density    : Electron Density
Multiplicity       :   1
Irrep              :   0
Energy             : -2486.6737513926127576 Eh
Relativity type    : 
Basis              : AO
                                X                 Y                 Z
Electronic contribution:     68.917722175      -9.612083972       3.113797730
Nuclear contribution   :    -71.431282055       9.301020035      -3.504145490
                        -----------------------------------------
Total Dipole Moment    :     -2.513559880      -0.311063937      -0.390347760
                        -----------------------------------------
Magnitude (a.u.)       :      2.562638370
Magnitude (Debye)      :      6.513709084



--------------------
Rotational spectrum 
--------------------
 
Rotational constants in cm-1:             0.007927             0.001184             0.001138 
Rotational constants in MHz :           237.633621            35.507249            34.103109 

Dipole components along the rotational axes: 
x,y,z [a.u.] :    -2.483490    -0.222661     0.591450 
x,y,z [Debye]:    -6.312531    -0.565959     1.503346 

 

Dipole moment calculation done in   0.0 sec 

Maximum memory used throughout the entire PROP-calculation: 40.6 MB

--------------------------------
SUGGESTED CITATIONS FOR THIS RUN
--------------------------------

Below you find a list of papers that are relevant to this ORCA run
We neither can nor want to force you to cite these papers, but we appreciate if you do
You receive ORCA, which is the product of decades of hard work by many enthusiastic individuals, for free
The only thing we kindly ask in return is that you cite our papers,
We deeply appreciate it, if you show your appreciation for ORCA by not just citing the generic ORCA reference.

Please note that relegating all ORCA citations to the supporting information does *not* help us.
SI sections are not indexed - citations you put there will not count into any citation statistics
But we need these citations in order to attract the funding resources that allow us to do what we are doing

Therefore, if you are a happy ORCA user, please consider citing a few of the papers listed below in the main body of your paper

In addition to the list printed below, the program has created the file /home/nmrbox/aojoawo/Documents/ERDOS/inputs/CHEMBL3927494.bibtex that contains the list in bibtex format
You can import this file easily into all common literature databanks and citation aid programs


List of essential papers. We consider these as the minimum necessary citations

  1. Neese,F.
     Software update: the ORCA program system, version 5.0
     WIRES Comput. Molec. Sci., 2022 12(1)e1606
     doi.org/10.1002/wcms.1606

List of papers to cite with high priority. The work reported in these papers was absolutely
necessary for this run to complete.
Our perspective: the developers of density functionals and basis sets usually get cited in chemistry papers
Good! But without the algorithms to do something with them, the functionals or basis sets would not do anything.
Hence, in our opinion, the algorithm design and method developments papers are equally worthy of getting cited

  1. Neese,F.
     An improvement of the resolution of the identity approximation for the formation of the Coulomb matrix
     J. Comp. Chem., 2003 24(14)1740-1747
     doi.org/10.1002/jcc.10318
  2. Neese,F.; Wennmohs,F.; Hansen,A.; Becker,U.
     Efficient, approximate and parallel Hartree-Fock and hybrid DFT calculations. A 'chain-of-spheres' algorithm for the Hartree-Fock exchange
     Chem. Phys., 2009 356(1-3)98-109
     doi.org/10.1016/j.chemphys.2008.10.036
  3. Helmich-Paris,B.; de Souza,B.; Neese,F.; Izsák,R.
     An improved chain of spheres for exchange algorithm
     J. Chem. Phys., 2021 155 104109
     doi.org/doi: 10.1063/5.0058766.
  4. Neese,F.
     The SHARK Integral Generation and Digestion System
     J. Comp. Chem., 2022  1-16
     doi.org/10.1002/jcc.26942

List of suggested additional citations. These are papers that are important in the 'surrounding' of 
of this run, or papers that preceded the highly important papers. If you like your results we are grateful for a citation.

  1. Izsak,R.; Neese,F.
     An overlap fitted chain of spheres exchange method
     J. Chem. Phys., 2011 135 144105
     doi.org/10.1063/1.3646921
  2. Izsak,R.; Hansen,A.; Neese,F.
     The resolution of identity and chain of spheres approximations for the LPNO-CCSD singles Fock term
     Molec. Phys., 2012 110 2413-2417
     doi.org/10.1080/00268976.2012.687466
  3. Neese,F.
     The ORCA program system
     WIRES Comput. Molec. Sci., 2012 2(1)73-78
     doi.org/10.1002/wcms.81
  4. Izsak,R.; Neese,F.; Klopper,W.
     Robust fitting techniques in the chain of spheres approximation to the Fock exchange: The role of the complementary space
     J. Chem. Phys., 2013 139 
     doi.org/10.1063/1.4819264
  5. Neese,F.
     Software update: the ORCA program system, version 4.0
     WIRES Comput. Molec. Sci., 2018 8(1)1-6
     doi.org/10.1002/wcms.1327
  6. Neese,F.; Wennmohs,F.; Becker,U.; Riplinger,C.
     The ORCA quantum chemistry program package
     J. Chem. Phys., 2020 152 Art. No. L224108
     doi.org/10.1063/5.0004608

List of optional additional citations

  1. Neese,F.
     Approximate second-order SCF convergence for spin unrestricted wavefunctions
     Chem. Phys. Lett., 2000 325(1-3)93-98
     doi.org/10.1016/s0009-2614(00)00662-x

Timings for individual modules:

Sum of individual times          ...      573.007 sec (=   9.550 min)
Startup calculation              ...       26.981 sec (=   0.450 min)   4.7 %
SCF iterations                   ...      545.838 sec (=   9.097 min)  95.3 %
Property calculations            ...        0.187 sec (=   0.003 min)   0.0 %
                             ****ORCA TERMINATED NORMALLY****
TOTAL RUN TIME: 0 days 0 hours 9 minutes 34 seconds 826 msec
