
                                 *****************
                                 * O   R   C   A *
                                 *****************

                                            #,                                       
                                            ###                                      
                                            ####                                     
                                            #####                                    
                                            ######                                   
                                           ########,                                 
                                     ,,################,,,,,                         
                               ,,#################################,,                 
                          ,,##########################################,,             
                       ,#########################################, ''#####,          
                    ,#############################################,,   '####,        
                  ,##################################################,,,,####,       
                ,###########''''           ''''###############################       
              ,#####''   ,,,,##########,,,,          '''####'''          '####       
            ,##' ,,,,###########################,,,                        '##       
           ' ,,###''''                  '''############,,,                           
         ,,##''                                '''############,,,,        ,,,,,,###''
      ,#''                                            '''#######################'''  
     '                                                          ''''####''''         
             ,#######,   #######,   ,#######,      ##                                
            ,#'     '#,  ##    ##  ,#'     '#,    #''#        ,####,   ,####,        
            ##       ##  ##   ,#'  ##            #'  '#       #'       #'  '#        
            ##       ##  #######   ##           ,######,      #####,   #    #        
            '#,     ,#'  ##    ##  '#,     ,#' ,#      #,     #,   #   #,  ,#        
             '#######'   ##     ##  '#######'  #'      '#     '####' # '####'        



                #########################################################
                #                        -***-                          #
                #          Department of theory and spectroscopy        #
                #                                                       #
                #                      Frank Neese                      #
                #                                                       #
                #     Directorship, Architecture, Infrastructure        #
                #                    SHARK, DRIVERS                     #
                #        Core code/Algorithms in most modules           #
                #                                                       #
                #        Max Planck Institute fuer Kohlenforschung      #
                #                Kaiser Wilhelm Platz 1                 #
                #                 D-45470 Muelheim/Ruhr                 #
                #                      Germany                          #
                #                                                       #
                #                  All rights reserved                  #
                #                        -***-                          #
                #########################################################


                         Program Version 6.0.0  -   RELEASE  -


 With contributions from (in alphabetic order):
   Daniel Aravena         : Magnetic Suceptibility
   Michael Atanasov       : Ab Initio Ligand Field Theory (pilot matlab implementation)
   Alexander A. Auer      : GIAO ZORA, VPT2 properties, NMR spectrum
   Ute Becker             : All parallelization in ORCA, NUMFREQ, NUMCALC
   Giovanni Bistoni       : ED, misc. LED, open-shell LED, HFLD
   Martin Brehm           : Molecular dynamics
   Dmytro Bykov           : pre 5.0 version of the SCF Hessian
   Marcos Casanova-Páez   : Triplet and SCS-CIS(D). UHF-(DLPNO)-IP/EA/STEOM-CCSD. UHF-CVS-IP/STEOM-CCSD
   Vijay G. Chilkuri      : MRCI spin determinant printing, contributions to CSF-ICE
   Pauline Colinet        : FMM embedding
   Dipayan Datta          : RHF DLPNO-CCSD density
   Achintya Kumar Dutta   : EOM-CC, STEOM-CC
   Nicolas Foglia         : Exact transition moments, OPA infrastructure, MCD improvements
   Dmitry Ganyushin       : Spin-Orbit,Spin-Spin,Magnetic field MRCI
   Miquel Garcia          : C-PCM and meta-GGA Hessian, CCSD/C-PCM, Gaussian charge scheme
   Tiago L. C. Gouveia    : GS-ROHF, GS-ROCIS
   Yang Guo               : DLPNO-NEVPT2, F12-NEVPT2, CIM, IAO-localization
   Andreas Hansen         : Spin unrestricted coupled pair/coupled cluster methods
   Ingolf Harden          : AUTO-CI MPn and infrastructure 
   Benjamin Helmich-Paris : MC-RPA, TRAH-(SCF,CASSCF), AVAS, COSX integrals, SCF dyn. polar.
   Lee Huntington         : MR-EOM, pCC
   Robert Izsak           : Overlap fitted RIJCOSX, COSX-SCS-MP3, EOM
   Riya Kayal             : Wick's Theorem for AUTO-CI, AUTO-CI UHF-CCSDT
   Emily Kempfer          : AUTO-CI, RHF CISDT and CCSDT
   Christian Kollmar      : KDIIS, OOCD, Brueckner-CCSD(T), CCSD density, CASPT2, CASPT2-K, improved NEVPT2
   Axel Koslowski         : Symmetry handling
   Simone Kossmann        : Meta GGA functionals, TD-DFT gradient, OOMP2, (MP2 Hessian; deprecated post 5.0)
   Lucas Lang             : DCDCAS
   Marvin Lechner         : AUTO-CI (C++ implementation), FIC-MRCC
   Spencer Leger          : CASSCF response
   Dagmar Lenk            : GEPOL surface, SMD, ORCA-2-JSON
   Dimitrios Liakos       : Extrapolation schemes; Compound Job, initial MDCI parallelization
   Dimitrios Manganas     : Further ROCIS development; embedding schemes. LFT, Crystal Embedding
   Dimitrios Pantazis     : SARC Basis sets
   Anastasios Papadopoulos: AUTO-CI, single reference methods and gradients
   Taras Petrenko         : pre 6.0 DFT Hessian and TD-DFT gradient, (ASA, deprecated), ECA, 1-Electron XAS/XES, NRVS
   Peter Pinski           : DLPNO-MP2, DLPNO-MP2 Gradient
   Christoph Reimann      : Effective Core Potentials
   Marius Retegan         : Local ZFS, SOC
   Christoph Riplinger    : Optimizer, TS searches, QM/MM, DLPNO-CCSD(T), (RO)-DLPNO pert. Triples
   Michael Roemelt        : Original ROCIS implementation
   Masaaki Saitow         : Open-shell DLPNO-CCSD energy and density
   Barbara Sandhoefer     : DKH picture change effects
   Kantharuban Sivalingam : CASSCF convergence/infrastructure, NEVPT2 and variants, FIC-MRCI
   Bernardo de Souza      : ESD, SOC TD-DFT
   Georgi Stoychev        : AutoAux, RI-MP2 NMR, DLPNO-MP2 response, X2C
   Van Anh Tran           : RI-MP2 g-tensors
   Willem Van den Heuvel  : Paramagnetic NMR
   Zikuan Wang            : NOTCH, Electric field optimization 
   Frank Wennmohs         : Technical directorship and infrastructure
   Hang Xu                : AUTO-CI-Response properties 


 We gratefully acknowledge several colleagues who have allowed us to
 interface, adapt or use parts of their codes:
   Stefan Grimme, W. Hujo, H. Kruse, P. Pracht,  : VdW corrections, initial TS optimization,
                  C. Bannwarth, S. Ehlert,         DFT functionals, gCP, sTDA/sTD-DF
                  L. Wittmann, M. Mueller
   Ed Valeev, F. Pavosevic, A. Kumar             : LibInt (2-el integral package), F12 methods
   Garnet Chan, S. Sharma, J. Yang, R. Olivares  : DMRG
   Ulf Ekstrom                                   : XCFun DFT Library
   Mihaly Kallay                                 : mrcc  (arbitrary order and MRCC methods)
   Frank Weinhold                                : gennbo (NPA and NBO analysis)
   Simon Mueller                                 : openCOSMO-RS
   Christopher J. Cramer and Donald G. Truhlar   : smd solvation model
   Lars Goerigk                                  : TD-DFT with DH, B97 family of functionals
   V. Asgeirsson, H. Jonsson                     : NEB implementation
   FAccTs GmbH                                   : IRC, NEB, NEB-TS, DLPNO-Multilevel, CI-OPT
                                                   MM, QMMM, 2- and 3-layer-ONIOM, Crystal-QMMM,
                                                   LR-CPCM, SF, NACMEs, symmetry and pop. for TD-DFT,
                                                   nearIR, NL-DFT gradient (VV10), updates on ESD,
                                                   ML-optimized integration grids, MBIS, APM,
                                                   GOAT, DOCKER, SOLVATOR, interface openCOSMO-RS
   S Lehtola, MJT Oliveira, MAL Marques          : LibXC Library
   Liviu Ungur et al                             : ANISO software


 Your calculation uses the libint2 library for the computation of 2-el integrals
 For citations please refer to: http://libint.valeyev.net

 Your ORCA version has been built with support for libXC version: 6.2.2
 For citations please refer to: https://libxc.gitlab.io

 This ORCA versions uses:
   CBLAS   interface :  Fast vector & matrix operations
   LAPACKE interface :  Fast linear algebra routines
   SCALAPACK package :  Parallel linear algebra routines
   Shared memory     :  Shared parallel matrices
   BLAS/LAPACK       :  OpenBLAS 0.3.27  USE64BITINT DYNAMIC_ARCH NO_AFFINITY SkylakeX SINGLE_THREADED
        Core in use  :  SkylakeX
   Copyright (c) 2011-2014, The OpenBLAS Project


Warning: RI is on but no J-basis has been assigned. Assigning Def2/J (nothing to worry about!)
================================================================================

----- Orbital basis set information -----
Your calculation utilizes the basis: 6-31G*
   H-He, Li-Ne : W. J. Hehre, R. Ditchfield and J.A. Pople, J. Chem. Phys. 56, 2257 (1972).
                 Note: He and Ne are unpublished basis sets taken from the Gaussian program.
                 Note: Li and B from J. D. Dill and J. A. Pople, J. Chem. Phys. 62, 2921 (1975).
   Na - Ar     : M. M. Francl, W. J. Pietro, W. J. Hehre, J. S. Binkley, M. S. Gordon, 
                 D. J. DeFrees and J. A. Pople, J. Chem. Phys. 77, 3654 (1982).
   K - Zn      : V. A. Rassolov, J. A. Pople, M. A. Ratner, and T. L. Windus, J. Chem. Phys. 109, 1223 (1998).

----- AuxJ basis set information -----
Your calculation utilizes the auxiliary basis: def2/J
   F. Weigend, Phys. Chem. Chem. Phys. 8, 1057 (2006).

================================================================================
                                        WARNINGS
                       Please study these warnings very carefully!
================================================================================


================================================================================
                                       INPUT FILE
================================================================================
NAME = /home/nmrbox/aojoawo/Documents/ERDOS/inputs/CHEMBL441472.inp
|  1> ! B3LYP 6-31G* SP
|  2> 
|  3> * xyz 0 1
|  4> C -6.6204 -1.0396 1.2039
|  5> C -6.2152 0.1380 0.2911
|  6> C -6.7611 -0.1057 -1.1330
|  7> C -6.8945 1.4153 0.8412
|  8> C -4.6768 0.2442 0.2417
|  9> C -3.9736 1.3894 0.6838
| 10> C -2.5785 1.4441 0.6228
| 11> C -1.8426 0.3707 0.1093
| 12> N -0.4066 0.4468 0.0800
| 13> C 0.4091 -0.2021 -0.9111
| 14> O -0.1078 -0.5674 -2.0028
| 15> N 1.8193 -0.4064 -0.6826
| 16> C 2.6854 -0.8480 -1.7869
| 17> C 4.0926 -0.2589 -1.6365
| 18> N 4.6125 -0.4382 -0.2751
| 19> C 5.9419 0.0204 0.0244
| 20> N 6.3018 1.2851 -0.3334
| 21> C 7.5390 1.7858 -0.0779
| 22> C 8.4914 0.9975 0.5670
| 23> C 8.1622 -0.3076 0.9325
| 24> C 6.8865 -0.8119 0.6611
| 25> Cl 6.5420 -2.4909 1.0560
| 26> C 3.7457 -0.9653 0.7854
| 27> C 2.3530 -0.3362 0.6878
| 28> C -2.5236 -0.7811 -0.3102
| 29> C -3.9179 -0.8409 -0.2502
| 30> H -7.7267 -1.1107 1.2881
| 31> H -6.2006 -0.9000 2.2236
| 32> H -6.2544 -2.0091 0.8062
| 33> H -6.4004 -1.0689 -1.5502
| 34> H -6.4407 0.7120 -1.8145
| 35> H -7.8722 -0.1418 -1.1287
| 36> H -8.0003 1.3004 0.8518
| 37> H -6.6566 2.2954 0.2053
| 38> H -6.5719 1.6177 1.8855
| 39> H -4.4819 2.2546 1.0820
| 40> H -2.0681 2.3341 0.9698
| 41> H 0.0599 1.0891 0.7587
| 42> H 2.2763 -0.5216 -2.7677
| 43> H 2.7413 -1.9581 -1.7854
| 44> H 4.0558 0.8264 -1.8752
| 45> H 4.7722 -0.7559 -2.3621
| 46> H 7.7824 2.7968 -0.3757
| 47> H 9.4787 1.3907 0.7722
| 48> H 8.9039 -0.9311 1.4156
| 49> H 3.6588 -2.0676 0.6736
| 50> H 4.1711 -0.7464 1.7896
| 51> H 1.6756 -0.8750 1.3859
| 52> H 2.4148 0.7282 1.0011
| 53> H -1.9797 -1.6473 -0.6629
| 54> H -4.4009 -1.7488 -0.5850
| 55> *
| 56> 
| 57>                          ****END OF INPUT****
================================================================================

                       ****************************
                       * Single Point Calculation *
                       ****************************

---------------------------------
CARTESIAN COORDINATES (ANGSTROEM)
---------------------------------
  C     -6.620400   -1.039600    1.203900
  C     -6.215200    0.138000    0.291100
  C     -6.761100   -0.105700   -1.133000
  C     -6.894500    1.415300    0.841200
  C     -4.676800    0.244200    0.241700
  C     -3.973600    1.389400    0.683800
  C     -2.578500    1.444100    0.622800
  C     -1.842600    0.370700    0.109300
  N     -0.406600    0.446800    0.080000
  C      0.409100   -0.202100   -0.911100
  O     -0.107800   -0.567400   -2.002800
  N      1.819300   -0.406400   -0.682600
  C      2.685400   -0.848000   -1.786900
  C      4.092600   -0.258900   -1.636500
  N      4.612500   -0.438200   -0.275100
  C      5.941900    0.020400    0.024400
  N      6.301800    1.285100   -0.333400
  C      7.539000    1.785800   -0.077900
  C      8.491400    0.997500    0.567000
  C      8.162200   -0.307600    0.932500
  C      6.886500   -0.811900    0.661100
  Cl     6.542000   -2.490900    1.056000
  C      3.745700   -0.965300    0.785400
  C      2.353000   -0.336200    0.687800
  C     -2.523600   -0.781100   -0.310200
  C     -3.917900   -0.840900   -0.250200
  H     -7.726700   -1.110700    1.288100
  H     -6.200600   -0.900000    2.223600
  H     -6.254400   -2.009100    0.806200
  H     -6.400400   -1.068900   -1.550200
  H     -6.440700    0.712000   -1.814500
  H     -7.872200   -0.141800   -1.128700
  H     -8.000300    1.300400    0.851800
  H     -6.656600    2.295400    0.205300
  H     -6.571900    1.617700    1.885500
  H     -4.481900    2.254600    1.082000
  H     -2.068100    2.334100    0.969800
  H      0.059900    1.089100    0.758700
  H      2.276300   -0.521600   -2.767700
  H      2.741300   -1.958100   -1.785400
  H      4.055800    0.826400   -1.875200
  H      4.772200   -0.755900   -2.362100
  H      7.782400    2.796800   -0.375700
  H      9.478700    1.390700    0.772200
  H      8.903900   -0.931100    1.415600
  H      3.658800   -2.067600    0.673600
  H      4.171100   -0.746400    1.789600
  H      1.675600   -0.875000    1.385900
  H      2.414800    0.728200    1.001100
  H     -1.979700   -1.647300   -0.662900
  H     -4.400900   -1.748800   -0.585000

----------------------------
CARTESIAN COORDINATES (A.U.)
----------------------------
  NO LB      ZA    FRAG     MASS         X           Y           Z
   0 C     6.0000    0    12.011  -12.510743   -1.964559    2.275041
   1 C     6.0000    0    12.011  -11.745026    0.260782    0.550099
   2 C     6.0000    0    12.011  -12.776627   -0.199744   -2.141060
   3 C     6.0000    0    12.011  -13.028717    2.674529    1.589638
   4 C     6.0000    0    12.011   -8.837871    0.461471    0.456747
   5 C     6.0000    0    12.011   -7.509016    2.625585    1.292195
   6 C     6.0000    0    12.011   -4.872659    2.728954    1.176921
   7 C     6.0000    0    12.011   -3.482009    0.700521    0.206547
   8 N     7.0000    0    14.007   -0.768363    0.844330    0.151178
   9 C     6.0000    0    12.011    0.773087   -0.381914   -1.721729
  10 O     8.0000    0    15.999   -0.203712   -1.072231   -3.784744
  11 N     7.0000    0    14.007    3.437979   -0.767985   -1.289927
  12 C     6.0000    0    12.011    5.074671   -1.602488   -3.376752
  13 C     6.0000    0    12.011    7.733893   -0.489250   -3.092537
  14 N     7.0000    0    14.007    8.716362   -0.828078   -0.519864
  15 C     6.0000    0    12.011   11.228564    0.038550    0.046109
  16 N     7.0000    0    14.007   11.908676    2.428487   -0.630035
  17 C     6.0000    0    12.011   14.246645    3.374673   -0.147210
  18 C     6.0000    0    12.011   16.046420    1.885002    1.071475
  19 C     6.0000    0    12.011   15.424323   -0.581280    1.762170
  20 C     6.0000    0    12.011   13.013599   -1.534269    1.249298
  21 Cl   17.0000    0    35.453   12.362588   -4.707119    1.995551
  22 C     6.0000    0    12.011    7.078347   -1.824153    1.484191
  23 C     6.0000    0    12.011    4.446526   -0.635326    1.299754
  24 C     6.0000    0    12.011   -4.768913   -1.476065   -0.586193
  25 C     6.0000    0    12.011   -7.403758   -1.589071   -0.472809
  26 H     1.0000    0     1.008  -14.601347   -2.098919    2.434156
  27 H     1.0000    0     1.008  -11.717436   -1.700754    4.201995
  28 H     1.0000    0     1.008  -11.819103   -3.796649    1.523497
  29 H     1.0000    0     1.008  -12.095003   -2.019928   -2.929453
  30 H     1.0000    0     1.008  -12.171159    1.345485   -3.428908
  31 H     1.0000    0     1.008  -14.876302   -0.267963   -2.132934
  32 H     1.0000    0     1.008  -15.118376    2.457400    1.609669
  33 H     1.0000    0     1.008  -12.579151    4.337677    0.387961
  34 H     1.0000    0     1.008  -12.419091    3.057010    3.563079
  35 H     1.0000    0     1.008   -8.469564    4.260577    2.044684
  36 H     1.0000    0     1.008   -3.908143    4.410810    1.832656
  37 H     1.0000    0     1.008    0.113195    2.058101    1.433735
  38 H     1.0000    0     1.008    4.301584   -0.985681   -5.230195
  39 H     1.0000    0     1.008    5.180306   -3.700273   -3.373917
  40 H     1.0000    0     1.008    7.664351    1.561670   -3.543614
  41 H     1.0000    0     1.008    9.018151   -1.428444   -4.463722
  42 H     1.0000    0     1.008   14.706605    5.285186   -0.709970
  43 H     1.0000    0     1.008   17.912147    2.628042    1.459247
  44 H     1.0000    0     1.008   16.825933   -1.759524    2.675096
  45 H     1.0000    0     1.008    6.914130   -3.907198    1.272920
  46 H     1.0000    0     1.008    7.882237   -1.410492    3.381854
  47 H     1.0000    0     1.008    3.166425   -1.653510    2.618971
  48 H     1.0000    0     1.008    4.563311    1.376099    1.891805
  49 H     1.0000    0     1.008   -3.741091   -3.112946   -1.252699
  50 H     1.0000    0     1.008   -8.316496   -3.304753   -1.105490

--------------------------------
INTERNAL COORDINATES (ANGSTROEM)
--------------------------------
 C      0   0   0     0.000000000000     0.00000000     0.00000000
 C      1   0   0     1.544063677443     0.00000000     0.00000000
 C      2   1   0     1.544492573631   109.38987564     0.00000000
 C      2   1   3     1.547757665140   107.70441838   116.70013908
 C      2   1   3     1.542852345495   109.45657089   240.02639051
 C      5   2   1     1.414717530110   122.77491828   241.13205644
 C      6   5   2     1.397503881927   120.94729474   179.93721772
 C      7   6   5     1.399077774822   120.73547090     0.65635547
 N      8   7   6     1.438313491559   119.47390284   181.04023268
 C      9   8   7     1.438303483275   123.80589900   210.45297129
 O     10   9   8     1.261918614650   119.63182273    19.28358471
 N     10   9   8     1.443126737331   120.59391018   197.61377396
 C     12  10   9     1.471264170705   119.92680789   190.89921898
 C     13  12  10     1.532928833965   110.57337673   147.30774842
 N     14  13  12     1.468282826979   111.65935206    48.14864330
 C     15  14  13     1.437817293678   118.78842955   177.99934076
 N     16  15  14     1.362723354170   119.04584876    49.55101033
 C     17  16  15     1.358913014140   122.21072822   179.77015164
 C     18  17  16     1.394409789122   120.03277701     0.21092287
 C     19  18  17     1.394721800217   119.27410848     0.58436196
 C     20  19  18     1.398351508027   120.12797063   359.55991879
 Cl    21  20  19     1.758882389473   118.64412560   176.57767767
 C     15  14  13     1.467595618691   120.31371630   352.57811630
 C     12  10   9     1.472331447059   119.65925019    18.55023573
 C      8   7   6     1.402278321162   118.98201076   358.20370997
 C     25   8   7     1.396870978294   120.46805476     1.73965537
 H      1   2   3     1.111775399980   110.77368168   297.68153320
 H      1   2   3     1.111534205502   110.33017503   177.74010414
 H      1   2   3     1.109978170957   111.57983921    57.31037926
 H      3   2   1     1.109916469830   111.63235144   302.93625976
 H      3   2   1     1.111634697191   110.32442779   182.44627780
 H      3   2   1     1.111694611843   110.78227185    62.50625127
 H      4   2   1     1.111803944048   110.77044327   300.59171493
 H      4   2   1     1.111549022761   110.86444692   181.37576594
 H      4   2   1     1.111575013213   110.90368344    59.70997282
 H      6   5   2     1.079584721085   122.00376325     0.02316894
 H      7   6   5     1.083059167359   119.25034705   180.06924042
 H      9   8   7     1.044416214926   117.72595176    23.94311478
 H     13  12  10     1.111696186015   110.94340823    27.31030872
 H     13  12  10     1.111507566326   109.16943543   268.11488314
 H     14  13  12     1.111848919593   108.88524456   287.41155872
 H     14  13  12     1.111467732325   108.98992997   169.27640414
 H     18  17  16     1.081688217556   119.83334497   180.23190365
 H     19  18  17     1.082346788234   120.35399738   179.93905216
 H     20  19  18     1.082708063145   119.61070196   178.77576310
 H     23  15  14     1.111357791173   109.25186243    78.22878758
 H     23  15  14     1.112339880612   110.84263628   197.63637475
 H     24  12  10     1.111989123148   109.90182614    43.18969659
 H     24  12  10     1.111271114535   109.16187034   284.03314085
 H     25   8   7     1.081908933321   120.73018441   183.24386501
 H     26  25   8     1.081509338841   117.93159686   179.95029375

---------------------------
INTERNAL COORDINATES (A.U.)
---------------------------
 C      0   0   0     0.000000000000     0.00000000     0.00000000
 C      1   0   0     2.917857483703     0.00000000     0.00000000
 C      2   1   0     2.918667980037   109.38987564     0.00000000
 C      2   1   3     2.924838108792   107.70441838   116.70013908
 C      2   1   3     2.915568398064   109.45657089   240.02639051
 C      5   2   1     2.673428688765   122.77491828   241.13205644
 C      6   5   2     2.640899607933   120.94729474   179.93721772
 C      7   6   5     2.643873834469   120.73547090     0.65635547
 N      8   7   6     2.718018593770   119.47390284   181.04023268
 C      9   8   7     2.717999680854   123.80589900   210.45297129
 O     10   9   8     2.384680584986   119.63182273    19.28358471
 N     10   9   8     2.727114310095   120.59391018   197.61377396
 C     12  10   9     2.780286353283   119.92680789   190.89921898
 C     13  12  10     2.896815678984   110.57337673   147.30774842
 N     14  13  12     2.774652430129   111.65935206    48.14864330
 C     15  14  13     2.717080915668   118.78842955   177.99934076
 N     16  15  14     2.575173935680   119.04584876    49.55101033
 C     17  16  15     2.567973436547   122.21072822   179.77015164
 C     18  17  16     2.635052619900   120.03277701     0.21092287
 C     19  18  17     2.635642235419   119.27410848     0.58436196
 C     20  19  18     2.642501389126   120.12797063   359.55991879
 Cl    21  20  19     3.323806017882   118.64412560   176.57767767
 C     15  14  13     2.773353794668   120.31371630   352.57811630
 C     12  10   9     2.782303213302   119.65925019    18.55023573
 C      8   7   6     2.649921990530   118.98201076   358.20370997
 C     25   8   7     2.639703593398   120.46805476     1.73965537
 H      1   2   3     2.100951028392   110.77368168   297.68153320
 H      1   2   3     2.100495236884   110.33017503   177.74010414
 H      1   2   3     2.097554757739   111.57983921    57.31037926
 H      3   2   1     2.097438159507   111.63235144   302.93625976
 H      3   2   1     2.100685138656   110.32442779   182.44627780
 H      3   2   1     2.100798360939   110.78227185    62.50625127
 H      4   2   1     2.101004968864   110.77044327   300.59171493
 H      4   2   1     2.100523237445   110.86444692   181.37576594
 H      4   2   1     2.100572352283   110.90368344    59.70997282
 H      6   5   2     2.040119461216   122.00376325     0.02316894
 H      7   6   5     2.046685213141   119.25034705   180.06924042
 H      9   8   7     1.973660616036   117.72595176    23.94311478
 H     13  12  10     2.100801335693   110.94340823    27.31030872
 H     13  12  10     2.100444896137   109.16943543   268.11488314
 H     14  13  12     2.101089960327   108.88524456   287.41155872
 H     14  13  12     2.100369620785   108.98992997   169.27640414
 H     18  17  16     2.044094493471   119.83334497   180.23190365
 H     19  18  17     2.045339011691   120.35399738   179.93905216
 H     20  19  18     2.046021722333   119.61070196   178.77576310
 H     23  15  14     2.100161862116   109.25186243    78.22878758
 H     23  15  14     2.102017742195   110.84263628   197.63637475
 H     24  12  10     2.101354906649   109.90182614    43.18969659
 H     24  12  10     2.099998067009   109.16187034   284.03314085
 H     25   8   7     2.044511585820   120.73018441   183.24386501
 H     26  25   8     2.043756461687   117.93159686   179.95029375

---------------------
BASIS SET INFORMATION
---------------------
There are 5 groups of distinct atoms

 Group   1 Type C   : 10s4p1d contracted to 3s2p1d pattern {631/31/1}
 Group   2 Type N   : 10s4p1d contracted to 3s2p1d pattern {631/31/1}
 Group   3 Type O   : 10s4p1d contracted to 3s2p1d pattern {631/31/1}
 Group   4 Type Cl  : 16s10p1d contracted to 4s3p1d pattern {6631/631/1}
 Group   5 Type H   : 4s contracted to 2s pattern {31}

Atom   0C    basis set group =>   1
Atom   1C    basis set group =>   1
Atom   2C    basis set group =>   1
Atom   3C    basis set group =>   1
Atom   4C    basis set group =>   1
Atom   5C    basis set group =>   1
Atom   6C    basis set group =>   1
Atom   7C    basis set group =>   1
Atom   8N    basis set group =>   2
Atom   9C    basis set group =>   1
Atom  10O    basis set group =>   3
Atom  11N    basis set group =>   2
Atom  12C    basis set group =>   1
Atom  13C    basis set group =>   1
Atom  14N    basis set group =>   2
Atom  15C    basis set group =>   1
Atom  16N    basis set group =>   2
Atom  17C    basis set group =>   1
Atom  18C    basis set group =>   1
Atom  19C    basis set group =>   1
Atom  20C    basis set group =>   1
Atom  21Cl   basis set group =>   4
Atom  22C    basis set group =>   1
Atom  23C    basis set group =>   1
Atom  24C    basis set group =>   1
Atom  25C    basis set group =>   1
Atom  26H    basis set group =>   5
Atom  27H    basis set group =>   5
Atom  28H    basis set group =>   5
Atom  29H    basis set group =>   5
Atom  30H    basis set group =>   5
Atom  31H    basis set group =>   5
Atom  32H    basis set group =>   5
Atom  33H    basis set group =>   5
Atom  34H    basis set group =>   5
Atom  35H    basis set group =>   5
Atom  36H    basis set group =>   5
Atom  37H    basis set group =>   5
Atom  38H    basis set group =>   5
Atom  39H    basis set group =>   5
Atom  40H    basis set group =>   5
Atom  41H    basis set group =>   5
Atom  42H    basis set group =>   5
Atom  43H    basis set group =>   5
Atom  44H    basis set group =>   5
Atom  45H    basis set group =>   5
Atom  46H    basis set group =>   5
Atom  47H    basis set group =>   5
Atom  48H    basis set group =>   5
Atom  49H    basis set group =>   5
Atom  50H    basis set group =>   5
---------------------------------
AUXILIARY/J BASIS SET INFORMATION
---------------------------------
There are 5 groups of distinct atoms

 Group   1 Type C   : 12s5p4d2f1g contracted to 6s4p3d1f1g pattern {711111/2111/211/2/1}
 Group   2 Type N   : 12s5p4d2f1g contracted to 6s4p3d1f1g pattern {711111/2111/211/2/1}
 Group   3 Type O   : 12s5p4d2f1g contracted to 6s4p3d1f1g pattern {711111/2111/211/2/1}
 Group   4 Type Cl  : 14s5p5d2f1g contracted to 8s4p3d1f1g pattern {71111111/2111/311/2/1}
 Group   5 Type H   : 5s2p1d contracted to 3s1p1d pattern {311/2/1}

Atom   0C    basis set group =>   1
Atom   1C    basis set group =>   1
Atom   2C    basis set group =>   1
Atom   3C    basis set group =>   1
Atom   4C    basis set group =>   1
Atom   5C    basis set group =>   1
Atom   6C    basis set group =>   1
Atom   7C    basis set group =>   1
Atom   8N    basis set group =>   2
Atom   9C    basis set group =>   1
Atom  10O    basis set group =>   3
Atom  11N    basis set group =>   2
Atom  12C    basis set group =>   1
Atom  13C    basis set group =>   1
Atom  14N    basis set group =>   2
Atom  15C    basis set group =>   1
Atom  16N    basis set group =>   2
Atom  17C    basis set group =>   1
Atom  18C    basis set group =>   1
Atom  19C    basis set group =>   1
Atom  20C    basis set group =>   1
Atom  21Cl   basis set group =>   4
Atom  22C    basis set group =>   1
Atom  23C    basis set group =>   1
Atom  24C    basis set group =>   1
Atom  25C    basis set group =>   1
Atom  26H    basis set group =>   5
Atom  27H    basis set group =>   5
Atom  28H    basis set group =>   5
Atom  29H    basis set group =>   5
Atom  30H    basis set group =>   5
Atom  31H    basis set group =>   5
Atom  32H    basis set group =>   5
Atom  33H    basis set group =>   5
Atom  34H    basis set group =>   5
Atom  35H    basis set group =>   5
Atom  36H    basis set group =>   5
Atom  37H    basis set group =>   5
Atom  38H    basis set group =>   5
Atom  39H    basis set group =>   5
Atom  40H    basis set group =>   5
Atom  41H    basis set group =>   5
Atom  42H    basis set group =>   5
Atom  43H    basis set group =>   5
Atom  44H    basis set group =>   5
Atom  45H    basis set group =>   5
Atom  46H    basis set group =>   5
Atom  47H    basis set group =>   5
Atom  48H    basis set group =>   5
Atom  49H    basis set group =>   5
Atom  50H    basis set group =>   5
------------------------------------------------------------------------------
                             ORCA STARTUP CALCULATIONS
                           -- RI-GTO INTEGRALS CHOSEN --
------------------------------------------------------------------------------
------------------------------------------------------------------------------
                   ___                                                        
                  /   \      - P O W E R E D   B Y -                         
                 /     \                                                     
                 |  |  |   _    _      __       _____    __    __             
                 |  |  |  | |  | |    /  \     |  _  \  |  |  /  |          
                  \  \/   | |  | |   /    \    | | | |  |  | /  /          
                 / \  \   | |__| |  /  /\  \   | |_| |  |  |/  /          
                |  |  |   |  __  | /  /__\  \  |    /   |      \           
                |  |  |   | |  | | |   __   |  |    \   |  |\   \          
                \     /   | |  | | |  |  |  |  | |\  \  |  | \   \       
                 \___/    |_|  |_| |__|  |__|  |_| \__\ |__|  \__/        
                                                                              
                      - O R C A' S   B I G   F R I E N D -                    
                                      &                                       
                       - I N T E G R A L  F E E D E R -                       
                                                                              
 v1 FN, 2020, v2 2021, v3 2022-2024                                           
------------------------------------------------------------------------------


----------------------
SHARK INTEGRAL PACKAGE
----------------------

Number of atoms                             ...     51
Number of basis functions                   ...    418
Number of shells                            ...    208
Maximum angular momentum                    ...      2
Integral batch strategy                     ... SHARK/LIBINT Hybrid
RI-J (if used) integral strategy            ... SPLIT-RIJ (Revised 2003 algorithm where possible)
Printlevel                                  ...      1
Contraction scheme used                     ... SEGMENTED contraction
Prescreening option                         ... SCHWARTZ
   Thresh                                   ... 1.000e-10
   Tcut                                     ... 1.000e-11
   Tpresel                                  ... 1.000e-11 
Coulomb Range Separation                    ... NOT USED
Exchange Range Separation                   ... NOT USED
Multipole approximations                    ... NOT USED
Finite Nucleus Model                        ... NOT USED
CABS basis                                  ... NOT available
Auxiliary Coulomb fitting basis             ... AVAILABLE
   # of basis functions in Aux-J            ...   1551
   # of shells in Aux-J                     ...    517
   Maximum angular momentum in Aux-J        ...      4
Auxiliary J/K fitting basis                 ... NOT available
Auxiliary Correlation fitting basis         ... NOT available
Auxiliary 'external' fitting basis          ... NOT available

Checking pre-screening integrals            ... done (  0.0 sec) Dimension = 208
Check shell pair data                       ... done (  0.0 sec)
Shell pair information
Shell pair cut-off parameter TPreSel        ...   1.0e-11
Total number of shell pairs                 ...     21736
Shell pairs after pre-screening             ...     11535
Total number of primitive shell pairs       ...    126904
Primitive shell pairs kept                  ...     37143
          la=0 lb=0:   4219 shell pairs
          la=1 lb=0:   3896 shell pairs
          la=1 lb=1:    926 shell pairs
          la=2 lb=0:   1570 shell pairs
          la=2 lb=1:    765 shell pairs
          la=2 lb=2:    159 shell pairs

Calculating one electron integrals          ... done (  0.1 sec)
Calculating RI/J V-Matrix + Cholesky decomp.... done (  0.3 sec)
Calculating Nuclear repulsion               ... done (  0.1 sec) ENN=   2294.987904914541 Eh

Diagonalization of the overlap matrix:
Smallest eigenvalue                        ... 4.383e-04
Time for diagonalization                   ...    0.029 sec
Threshold for overlap eigenvalues          ... 1.000e-07
Number of eigenvalues below threshold      ... 0
Time for construction of square roots      ...    0.026 sec
Total time needed                          ...    0.065 sec

-------------------
DFT GRID GENERATION
-------------------

General Integration Accuracy     IntAcc      ... 4.388
Radial Grid Type                 RadialGrid  ... OptM3 with GC (2021)
Angular Grid (max. ang.)         AngularGrid ... 4 (Lebedev-302)
Angular grid pruning method      GridPruning ... 4 (adaptive)
Weight generation scheme         WeightScheme... mBecke (2022)
Basis function cutoff            BFCut       ... 1.0000e-10
Integration weight cutoff        WCut        ... 1.0000e-14
Partially contracted basis set               ... off
Rotationally invariant grid construction     ... off
Angular grids for H and He will be reduced by one unit

Total number of grid points                  ...   236039
Total number of batches                      ...     3711
Average number of points per batch           ...       63
Average number of grid points per atom       ...     4628

--------------------
COSX GRID GENERATION
--------------------

GRIDX 1
-------
General Integration Accuracy     IntAcc      ... 3.816
Radial Grid Type                 RadialGrid  ... OptM3 with GC (2021)
Angular Grid (max. ang.)         AngularGrid ... 1 (Lebedev-50)
Angular grid pruning method      GridPruning ... 4 (adaptive)
Weight generation scheme         WeightScheme... mBecke (2022)
Basis function cutoff            BFCut       ... 1.0000e-10
Integration weight cutoff        WCut        ... 1.0000e-14
Partially contracted basis set               ... on
Rotationally invariant grid construction     ... off
Angular grids for H and He will be reduced by one unit

Total number of grid points                  ...    31026
Total number of batches                      ...      270
Average number of points per batch           ...      114
Average number of grid points per atom       ...      608
UseSFitting                                  ... on

GRIDX 2
-------
General Integration Accuracy     IntAcc      ... 4.020
Radial Grid Type                 RadialGrid  ... OptM3 with GC (2021)
Angular Grid (max. ang.)         AngularGrid ... 2 (Lebedev-110)
Angular grid pruning method      GridPruning ... 4 (adaptive)
Weight generation scheme         WeightScheme... mBecke (2022)
Basis function cutoff            BFCut       ... 1.0000e-10
Integration weight cutoff        WCut        ... 1.0000e-14
Partially contracted basis set               ... on
Rotationally invariant grid construction     ... off
Angular grids for H and He will be reduced by one unit

Total number of grid points                  ...    64150
Total number of batches                      ...      528
Average number of points per batch           ...      121
Average number of grid points per atom       ...     1258
UseSFitting                                  ... on

GRIDX 3
-------
General Integration Accuracy     IntAcc      ... 4.338
Radial Grid Type                 RadialGrid  ... OptM3 with GC (2021)
Angular Grid (max. ang.)         AngularGrid ... 3 (Lebedev-194)
Angular grid pruning method      GridPruning ... 4 (adaptive)
Weight generation scheme         WeightScheme... mBecke (2022)
Basis function cutoff            BFCut       ... 1.0000e-10
Integration weight cutoff        WCut        ... 1.0000e-14
Partially contracted basis set               ... on
Rotationally invariant grid construction     ... off
Angular grids for H and He will be reduced by one unit

Total number of grid points                  ...   140536
Total number of batches                      ...     1120
Average number of points per batch           ...      125
Average number of grid points per atom       ...     2756
UseSFitting                                  ... on
Initializing property integral containers    ... done (  0.0 sec)

SHARK setup successfully completed in   9.6 seconds

Maximum memory used throughout the entire STARTUP-calculation: 98.6 MB
-------------------------------------------------------------------------------
                                 ORCA GUESS
                   Start orbitals & Density for SCF / CASSCF
-------------------------------------------------------------------------------

------------
SCF SETTINGS
------------
Hamiltonian:
 Density Functional     Method          .... DFT(GTOs)
 Exchange Functional    Exchange        .... B88
   X-Alpha parameter    XAlpha          ....  0.666667
   Becke's b parameter  XBeta           ....  0.004200
 Correlation Functional Correlation     .... LYP
 LDA part of GGA corr.  LDAOpt          .... VWN-5
 Gradients option       PostSCFGGA      .... off
 Hybrid DFT is turned on
   Fraction HF Exchange ScalHFX         ....  0.200000
   Scaling of DF-GGA-X  ScalDFX         ....  0.720000
   Scaling of DF-GGA-C  ScalDFC         ....  0.810000
   Scaling of DF-LDA-C  ScalLDAC        ....  1.000000
   Perturbative correction              ....  0.000000
   NL short-range parameter             ....  4.800000
 RI-approximation to the Coulomb term is turned on
   Number of AuxJ basis functions       .... 1551
   RIJ-COSX (HFX calculated with COS-X)).... on


General Settings:
 Integral files         IntName         .... /home/nmrbox/aojoawo/Documents/ERDOS/inputs/CHEMBL441472
 Hartree-Fock type      HFTyp           .... RHF
 Total Charge           Charge          ....    0
 Multiplicity           Mult            ....    1
 Number of Electrons    NEL             ....  198
 Basis Dimension        Dim             ....  418
 Nuclear Repulsion      ENuc            ....   2294.9879049145 Eh

Convergence Acceleration:
 AO-DIIS                CNVDIIS         .... on
   Start iteration      DIISMaxIt       ....    12
   Startup error        DIISStart       ....  0.200000
   # of expansion vecs  DIISMaxEq       ....     5
   Bias factor          DIISBfac        ....   1.050
   Max. coefficient     DIISMaxC        ....  10.000
 MO-DIIS                CNVKDIIS        .... off
 Trust-Rad. Augm. Hess. CNVTRAH         .... auto
   Auto Start mean grad. ratio tolernc. ....  1.125000
   Auto Start start iteration           ....    50
   Auto Start num. interpolation iter.  ....    10
   Max. Number of Micro iterations      ....    24
   Max. Number of Macro iterations      .... Maxiter - #DIIS iter
   Number of Davidson start vectors     ....     2
   Converg. threshold    (grad. norm)   ....   5.000e-05
   Grad. Scal. Fac. for Micro threshold ....   0.100
   Minimum threshold for Micro iter.    ....   1.000e-02
   NR start threshold (gradient norm)   ....   1.000e-04
   Initial trust radius                 ....   0.400
   Minimum AH scaling param. (alpha)    ....   1.000
   Maximum AH scaling param. (alpha)    .... 1000.000
   Quad. conv. algorithm                .... NR
   White noise on init. David. guess    .... on
   Maximum white noise                  ....   0.010
   Pseudo random numbers                .... off
   Inactive MOs                         .... canonical
   Orbital update algorithm             .... Taylor
   Preconditioner                       .... Diag
   Full preconditioner red. dimension   ....   250
 SOSCF                  CNVSOSCF        .... on
   Start iteration      SOSCFMaxIt      ....   150
   Startup grad/error   SOSCFStart      ....  0.003300
   Hessian update       SOSCFHessUp     .... L-BFGS
 Level Shifting         CNVShift        .... on
   Level shift para.    LevelShift      ....    0.2500
   Turn off err/grad.   ShiftErr        ....    0.0010
 Zerner damping         CNVZerner       .... off
 Static damping         CNVDamp         .... on
   Fraction old density DampFac         ....    0.7000
   Max. Damping (<1)    DampMax         ....    0.9800
   Min. Damping (>=0)   DampMin         ....    0.0000
   Turn off err/grad.   DampErr         ....    0.1000

SCF Procedure:
 Maximum # iterations   MaxIter         ....   125
 SCF integral mode      SCFMode         .... Direct
   Integral package                     .... SHARK and LIBINT hybrid scheme
 Reset frequency        DirectResetFreq ....    20
 Integral Threshold     Thresh          ....  1.000e-10 Eh
 Primitive CutOff       TCut            ....  1.000e-11 Eh

Convergence Tolerance:
 Convergence Check Mode ConvCheckMode   .... Total+1el-Energy
 Convergence forced     ConvForced      .... 0
 Energy Change          TolE            ....  1.000e-06 Eh
 1-El. energy change                    ....  1.000e-03 Eh
 Orbital Gradient       TolG            ....  5.000e-05
 Orbital Rotation angle TolX            ....  5.000e-05
 DIIS Error             TolErr          ....  1.000e-06

------------------------------
INITIAL GUESS: MODEL POTENTIAL
------------------------------
Loading Hartree-Fock densities                     ... done
Calculating cut-offs                               ... done
Initializing the effective Hamiltonian             ... done
Setting up the integral package (SHARK)            ... done
Starting the Coulomb interaction                   ... done (   2.0 sec)
Making the grid                                    ... done (   1.1 sec)
Mapping shells                                     ... done
Starting the XC term evaluation                    ... done (   0.8 sec)
  promolecular density results
     # of electrons  =    197.980580613
     EX              =   -172.202534221
     EC              =     -6.804457838
     EX+EC           =   -179.006992059
Transforming the Hamiltonian                       ... done (   0.0 sec)
Diagonalizing the Hamiltonian                      ... done (   0.0 sec)
Back transforming the eigenvectors                 ... done (   0.0 sec)
Now organizing SCF variables                       ... done
                      ------------------
                      INITIAL GUESS DONE (   3.9 sec)
                      ------------------
             **** ENERGY FILE WAS UPDATED (/home/nmrbox/aojoawo/Documents/ERDOS/inputs/CHEMBL441472.en.tmp) ****
Finished Guess after   4.2 sec
Maximum memory used throughout the entire GUESS-calculation: 49.6 MB

-------------------------------------------------------------------------------------------
                                      ORCA LEAN-SCF
                              memory conserving SCF solver
-------------------------------------------------------------------------------------------

----------------------------------------D-I-I-S--------------------------------------------
Iteration    Energy (Eh)           Delta-E    RMSDP     MaxDP     DIISErr   Damp  Time(sec)
-------------------------------------------------------------------------------------------
               ***  Starting incremental Fock matrix formation  ***
    1    -1530.1911114925874244     0.00e+00  2.18e-03  1.09e-01  2.88e-01  0.700  41.5
    2    -1530.4954312033346469    -3.04e-01  1.52e-03  5.86e-02  1.03e-01  0.700  18.6
                               ***Turning on AO-DIIS***
    3    -1530.6135965004909849    -1.18e-01  6.33e-04  1.66e-02  3.91e-02  0.700  18.2
    4    -1530.6847172633451919    -7.11e-02  1.01e-03  3.10e-02  1.75e-02  0.000  16.6
    5    -1530.8409441025478372    -1.56e-01  2.47e-04  9.45e-03  6.62e-03  0.000  17.8
                              *** Initializing SOSCF ***
---------------------------------------S-O-S-C-F--------------------------------------
Iteration    Energy (Eh)           Delta-E    RMSDP     MaxDP     MaxGrad    Time(sec)
--------------------------------------------------------------------------------------
    6    -1530.8421007664614990    -1.16e-03  8.38e-05  2.55e-03  2.31e-03    15.4
               *** Restarting incremental Fock matrix formation ***
    7    -1530.8421586946628850    -5.79e-05  6.04e-05  3.54e-03  4.33e-04    40.5
    8    -1530.8421302690694574     2.84e-05  3.52e-05  2.65e-03  1.18e-03    23.4
    9    -1530.8421741017305067    -4.38e-05  8.10e-06  3.57e-04  5.50e-05    20.1
   10    -1530.8421736295672417     4.72e-07  4.46e-06  1.97e-04  1.17e-04    16.3
                 **** Energy Check signals convergence ****

               *****************************************************
               *                     SUCCESS                       *
               *           SCF CONVERGED AFTER  10 CYCLES          *
               *****************************************************

Recomputing exchange energy using gridx3       ... done (   69.067 sec)
Old exchange energy                            :    -34.940527934 Eh
New exchange energy                            :    -34.940581740 Eh
Exchange energy change after final integration :     -0.000053807 Eh
Total energy after final integration           :  -1530.842227436 Eh
             **** ENERGY FILE WAS UPDATED (/home/nmrbox/aojoawo/Documents/ERDOS/inputs/CHEMBL441472.en.tmp) ****

----------------
TOTAL SCF ENERGY
----------------

Total Energy       :      -1530.84222743627606 Eh          -41656.33478 eV

Components:
Nuclear Repulsion  :       2294.98790491454065 Eh           62449.79578 eV
Electronic Energy  :      -3825.83007854410789 Eh         -104106.12909 eV
One Electron Energy:      -6650.54167235219847 Eh         -180970.43926 eV
Two Electron Energy:       2824.71159380809058 Eh           76864.31017 eV

Virial components:
Potential Energy   :      -3053.40466543853654 Eh          -83087.36503 eV
Kinetic Energy     :       1522.56243800226025 Eh           41431.03025 eV
Virial Ratio       :          2.00543806232661

DFT components:
N(Alpha)           :       99.000130288790 electrons
N(Beta)            :       99.000130288790 electrons
N(Total)           :      198.000260577581 electrons
E(X)               :     -138.715825201942 Eh       
E(C)               :       -8.004872355259 Eh       
E(XC)              :     -146.720697557200 Eh       

---------------
SCF CONVERGENCE
---------------

  Last Energy change         ...   -4.7216e-07  Tolerance :   1.0000e-06
  Last MAX-Density change    ...    1.9682e-04  Tolerance :   1.0000e-05
  Last RMS-Density change    ...    4.4649e-06  Tolerance :   1.0000e-06
  Last DIIS Error            ...    2.3124e-03  Tolerance :   1.0000e-06
  Last Orbital Gradient      ...    1.1688e-04  Tolerance :   5.0000e-05
  Last Orbital Rotation      ...    1.7221e-04  Tolerance :   5.0000e-05


----------------
ORBITAL ENERGIES
----------------

  NO   OCC          E(Eh)            E(eV) 
   0   2.0000    -101.535238     -2762.9143 
   1   2.0000     -19.093289      -519.5548 
   2   2.0000     -14.360435      -390.7673 
   3   2.0000     -14.353697      -390.5840 
   4   2.0000     -14.337710      -390.1489 
   5   2.0000     -14.335329      -390.0841 
   6   2.0000     -10.308362      -280.5048 
   7   2.0000     -10.270039      -279.4620 
   8   2.0000     -10.254572      -279.0411 
   9   2.0000     -10.228669      -278.3362 
  10   2.0000     -10.226255      -278.2706 
  11   2.0000     -10.225709      -278.2557 
  12   2.0000     -10.220143      -278.1042 
  13   2.0000     -10.218482      -278.0590 
  14   2.0000     -10.214306      -277.9454 
  15   2.0000     -10.213428      -277.9215 
  16   2.0000     -10.198725      -277.5214 
  17   2.0000     -10.189360      -277.2666 
  18   2.0000     -10.176903      -276.9276 
  19   2.0000     -10.174210      -276.8543 
  20   2.0000     -10.172663      -276.8122 
  21   2.0000     -10.170259      -276.7468 
  22   2.0000     -10.168745      -276.7056 
  23   2.0000     -10.163429      -276.5610 
  24   2.0000     -10.161779      -276.5161 
  25   2.0000     -10.160424      -276.4792 
  26   2.0000      -9.466763      -257.6037 
  27   2.0000      -7.229836      -196.7338 
  28   2.0000      -7.220450      -196.4784 
  29   2.0000      -7.220006      -196.4663 
  30   2.0000      -1.010748       -27.5039 
  31   2.0000      -0.964068       -26.2336 
  32   2.0000      -0.928421       -25.2636 
  33   2.0000      -0.907456       -24.6931 
  34   2.0000      -0.890750       -24.2385 
  35   2.0000      -0.873050       -23.7569 
  36   2.0000      -0.838192       -22.8084 
  37   2.0000      -0.797124       -21.6908 
  38   2.0000      -0.794402       -21.6168 
  39   2.0000      -0.776161       -21.1204 
  40   2.0000      -0.757578       -20.6148 
  41   2.0000      -0.734478       -19.9862 
  42   2.0000      -0.719987       -19.5919 
  43   2.0000      -0.698160       -18.9979 
  44   2.0000      -0.671719       -18.2784 
  45   2.0000      -0.670020       -18.2322 
  46   2.0000      -0.662424       -18.0255 
  47   2.0000      -0.634785       -17.2734 
  48   2.0000      -0.625297       -17.0152 
  49   2.0000      -0.610362       -16.6088 
  50   2.0000      -0.599976       -16.3262 
  51   2.0000      -0.578082       -15.7304 
  52   2.0000      -0.550945       -14.9920 
  53   2.0000      -0.537575       -14.6281 
  54   2.0000      -0.535318       -14.5667 
  55   2.0000      -0.521110       -14.1801 
  56   2.0000      -0.508190       -13.8286 
  57   2.0000      -0.504815       -13.7367 
  58   2.0000      -0.500715       -13.6252 
  59   2.0000      -0.480086       -13.0638 
  60   2.0000      -0.469169       -12.7667 
  61   2.0000      -0.457657       -12.4535 
  62   2.0000      -0.454963       -12.3802 
  63   2.0000      -0.445059       -12.1107 
  64   2.0000      -0.437290       -11.8993 
  65   2.0000      -0.434195       -11.8151 
  66   2.0000      -0.427042       -11.6204 
  67   2.0000      -0.425893       -11.5891 
  68   2.0000      -0.416908       -11.3446 
  69   2.0000      -0.413798       -11.2600 
  70   2.0000      -0.408845       -11.1252 
  71   2.0000      -0.407702       -11.0941 
  72   2.0000      -0.400086       -10.8869 
  73   2.0000      -0.398847       -10.8532 
  74   2.0000      -0.393842       -10.7170 
  75   2.0000      -0.384658       -10.4671 
  76   2.0000      -0.383199       -10.4274 
  77   2.0000      -0.378945       -10.3116 
  78   2.0000      -0.375440       -10.2162 
  79   2.0000      -0.370249       -10.0750 
  80   2.0000      -0.363270        -9.8851 
  81   2.0000      -0.358162        -9.7461 
  82   2.0000      -0.353893        -9.6299 
  83   2.0000      -0.347845        -9.4654 
  84   2.0000      -0.345944        -9.4136 
  85   2.0000      -0.342988        -9.3332 
  86   2.0000      -0.320477        -8.7206 
  87   2.0000      -0.319788        -8.7019 
  88   2.0000      -0.312849        -8.5131 
  89   2.0000      -0.305318        -8.3081 
  90   2.0000      -0.290066        -7.8931 
  91   2.0000      -0.278274        -7.5722 
  92   2.0000      -0.263585        -7.1725 
  93   2.0000      -0.259215        -7.0536 
  94   2.0000      -0.248825        -6.7709 
  95   2.0000      -0.234877        -6.3913 
  96   2.0000      -0.224965        -6.1216 
  97   2.0000      -0.207407        -5.6438 
  98   2.0000      -0.200636        -5.4596 
  99   0.0000      -0.034282        -0.9329 
 100   0.0000      -0.018391        -0.5004 
 101   0.0000       0.005496         0.1495 
 102   0.0000       0.010105         0.2750 
 103   0.0000       0.026037         0.7085 
 104   0.0000       0.050830         1.3831 
 105   0.0000       0.067000         1.8232 
 106   0.0000       0.085446         2.3251 
 107   0.0000       0.087612         2.3841 
 108   0.0000       0.108684         2.9574 
 109   0.0000       0.112734         3.0676 
*Only the first 10 virtual orbitals were printed.

                    ********************************
                    * MULLIKEN POPULATION ANALYSIS *
                    ********************************

-----------------------
MULLIKEN ATOMIC CHARGES
-----------------------
   0 C :   -0.432962
   1 C :    0.037713
   2 C :   -0.433854
   3 C :   -0.451317
   4 C :    0.162041
   5 C :   -0.193206
   6 C :   -0.189263
   7 C :    0.355160
   8 N :   -0.728697
   9 C :    0.686040
  10 O :   -0.497012
  11 N :   -0.449675
  12 C :   -0.142673
  13 C :   -0.110903
  14 N :   -0.449510
  15 C :    0.386460
  16 N :   -0.398658
  17 C :    0.014368
  18 C :   -0.133561
  19 C :   -0.105193
  20 C :   -0.112576
  21 Cl:   -0.006361
  22 C :   -0.148279
  23 C :   -0.123429
  24 C :   -0.139685
  25 C :   -0.194681
  26 H :    0.133246
  27 H :    0.141176
  28 H :    0.137684
  29 H :    0.139036
  30 H :    0.145499
  31 H :    0.132412
  32 H :    0.137534
  33 H :    0.141035
  34 H :    0.138317
  35 H :    0.124914
  36 H :    0.116408
  37 H :    0.325980
  38 H :    0.189116
  39 H :    0.151170
  40 H :    0.162391
  41 H :    0.144137
  42 H :    0.153746
  43 H :    0.139393
  44 H :    0.162090
  45 H :    0.155886
  46 H :    0.162566
  47 H :    0.153015
  48 H :    0.139520
  49 H :    0.146777
  50 H :    0.126661
Sum of atomic charges:    0.0000000

--------------------------------
MULLIKEN REDUCED ORBITAL CHARGES
--------------------------------
  0 C s       :     3.309414  s :     3.309414
      pz      :     1.033951  p :     3.088830
      px      :     1.048817
      py      :     1.006062
      dz2     :     0.009548  d :     0.034719
      dxz     :     0.004174
      dyz     :     0.006202
      dx2y2   :     0.010887
      dxy     :     0.003908

  1 C s       :     3.182989  s :     3.182989
      pz      :     0.899581  p :     2.730692
      px      :     0.932950
      py      :     0.898161
      dz2     :     0.010573  d :     0.048606
      dxz     :     0.008186
      dyz     :     0.010180
      dx2y2   :     0.011815
      dxy     :     0.007851

  2 C s       :     3.310320  s :     3.310320
      pz      :     0.982354  p :     3.088867
      px      :     1.041238
      py      :     1.065275
      dz2     :     0.007067  d :     0.034667
      dxz     :     0.004093
      dyz     :     0.010283
      dx2y2   :     0.010254
      dxy     :     0.002969

  3 C s       :     3.313553  s :     3.313553
      pz      :     1.047239  p :     3.103349
      px      :     1.043178
      py      :     1.012933
      dz2     :     0.008852  d :     0.034414
      dxz     :     0.002713
      dyz     :     0.008427
      dx2y2   :     0.010501
      dxy     :     0.003922

  4 C s       :     3.145320  s :     3.145320
      pz      :     0.939795  p :     2.653717
      px      :     0.856424
      py      :     0.857498
      dz2     :     0.004240  d :     0.038922
      dxz     :     0.006363
      dyz     :     0.005517
      dx2y2   :     0.010974
      dxy     :     0.011829

  5 C s       :     3.213672  s :     3.213672
      pz      :     1.007532  p :     2.943426
      px      :     0.951145
      py      :     0.984750
      dz2     :     0.003055  d :     0.036108
      dxz     :     0.006736
      dyz     :     0.004756
      dx2y2   :     0.010067
      dxy     :     0.011494

  6 C s       :     3.181215  s :     3.181215
      pz      :     1.036468  p :     2.972740
      px      :     0.988119
      py      :     0.948154
      dz2     :     0.003539  d :     0.035308
      dxz     :     0.006569
      dyz     :     0.004234
      dx2y2   :     0.008535
      dxy     :     0.012431

  7 C s       :     3.058589  s :     3.058589
      pz      :     0.979933  p :     2.531218
      px      :     0.687035
      py      :     0.864250
      dz2     :     0.005719  d :     0.055033
      dxz     :     0.009111
      dyz     :     0.006235
      dx2y2   :     0.017544
      dxy     :     0.016423

  8 N s       :     3.636983  s :     3.636983
      pz      :     1.391112  p :     4.062402
      px      :     1.168118
      py      :     1.503172
      dz2     :     0.003200  d :     0.029312
      dxz     :     0.009248
      dyz     :     0.005315
      dx2y2   :     0.004813
      dxy     :     0.006735

  9 C s       :     2.909887  s :     2.909887
      pz      :     0.742335  p :     2.289312
      px      :     0.730651
      py      :     0.816326
      dz2     :     0.030243  d :     0.114762
      dxz     :     0.030829
      dyz     :     0.018713
      dx2y2   :     0.016161
      dxy     :     0.018817

 10 O s       :     3.887068  s :     3.887068
      pz      :     1.376977  p :     4.584661
      px      :     1.682514
      py      :     1.525170
      dz2     :     0.008545  d :     0.025282
      dxz     :     0.006366
      dyz     :     0.006448
      dx2y2   :     0.001618
      dxy     :     0.002305

 11 N s       :     3.559944  s :     3.559944
      pz      :     1.086413  p :     3.856985
      px      :     1.127870
      py      :     1.642702
      dz2     :     0.009295  d :     0.032745
      dxz     :     0.008917
      dyz     :     0.004495
      dx2y2   :     0.005736
      dxy     :     0.004302

 12 C s       :     3.225874  s :     3.225874
      pz      :     0.940490  p :     2.863591
      px      :     0.889293
      py      :     1.033807
      dz2     :     0.011378  d :     0.053208
      dxz     :     0.012463
      dyz     :     0.007148
      dx2y2   :     0.014417
      dxy     :     0.007801

 13 C s       :     3.204431  s :     3.204431
      pz      :     0.833374  p :     2.852096
      px      :     0.952913
      py      :     1.065808
      dz2     :     0.013945  d :     0.054377
      dxz     :     0.012289
      dyz     :     0.011586
      dx2y2   :     0.010092
      dxy     :     0.006464

 14 N s       :     3.534880  s :     3.534880
      pz      :     1.094115  p :     3.881371
      px      :     1.160087
      py      :     1.627168
      dz2     :     0.008679  d :     0.033260
      dxz     :     0.009691
      dyz     :     0.005060
      dx2y2   :     0.005430
      dxy     :     0.004400

 15 C s       :     3.021556  s :     3.021556
      pz      :     0.933967  p :     2.517089
      px      :     0.794495
      py      :     0.788627
      dz2     :     0.006946  d :     0.074895
      dxz     :     0.008199
      dyz     :     0.010993
      dx2y2   :     0.023116
      dxy     :     0.025642

 16 N s       :     3.689986  s :     3.689986
      pz      :     1.244200  p :     3.674072
      px      :     1.261973
      py      :     1.167899
      dz2     :     0.004938  d :     0.034600
      dxz     :     0.005944
      dyz     :     0.006406
      dx2y2   :     0.012152
      dxy     :     0.005160

 17 C s       :     3.142386  s :     3.142386
      pz      :     0.947741  p :     2.789584
      px      :     0.874160
      py      :     0.967683
      dz2     :     0.005847  d :     0.053662
      dxz     :     0.010026
      dyz     :     0.004869
      dx2y2   :     0.017559
      dxy     :     0.015362

 18 C s       :     3.189259  s :     3.189259
      pz      :     0.991672  p :     2.909324
      px      :     0.987384
      py      :     0.930268
      dz2     :     0.004596  d :     0.034978
      dxz     :     0.004002
      dyz     :     0.005676
      dx2y2   :     0.010282
      dxy     :     0.010421

 19 C s       :     3.188656  s :     3.188656
      pz      :     0.962803  p :     2.880529
      px      :     0.958356
      py      :     0.959370
      dz2     :     0.002992  d :     0.036007
      dxz     :     0.006345
      dyz     :     0.006384
      dx2y2   :     0.009015
      dxy     :     0.011271

 20 C s       :     3.187593  s :     3.187593
      pz      :     1.066421  p :     2.878657
      px      :     1.001112
      py      :     0.811124
      dz2     :     0.005108  d :     0.046326
      dxz     :     0.006410
      dyz     :     0.007890
      dx2y2   :     0.013515
      dxy     :     0.013403

 21 Cls       :     5.924832  s :     5.924832
      pz      :     3.896678  p :    11.051874
      px      :     3.918436
      py      :     3.236760
      dz2     :     0.004169  d :     0.029656
      dxz     :     0.000820
      dyz     :     0.007477
      dx2y2   :     0.011928
      dxy     :     0.005262

 22 C s       :     3.226336  s :     3.226336
      pz      :     0.933966  p :     2.866609
      px      :     0.900820
      py      :     1.031822
      dz2     :     0.011792  d :     0.055334
      dxz     :     0.012370
      dyz     :     0.006638
      dx2y2   :     0.015514
      dxy     :     0.009020

 23 C s       :     3.200099  s :     3.200099
      pz      :     0.845597  p :     2.869612
      px      :     0.975291
      py      :     1.048724
      dz2     :     0.012568  d :     0.053719
      dxz     :     0.012175
      dyz     :     0.012545
      dx2y2   :     0.009688
      dxy     :     0.006743

 24 C s       :     3.179814  s :     3.179814
      pz      :     1.007173  p :     2.924573
      px      :     0.957314
      py      :     0.960086
      dz2     :     0.003393  d :     0.035298
      dxz     :     0.006171
      dyz     :     0.004278
      dx2y2   :     0.009044
      dxy     :     0.012411

 25 C s       :     3.212935  s :     3.212935
      pz      :     0.995831  p :     2.945658
      px      :     0.970407
      py      :     0.979420
      dz2     :     0.003500  d :     0.036088
      dxz     :     0.006691
      dyz     :     0.004113
      dx2y2   :     0.010124
      dxy     :     0.011660

 26 H s       :     0.866754  s :     0.866754

 27 H s       :     0.858824  s :     0.858824

 28 H s       :     0.862316  s :     0.862316

 29 H s       :     0.860964  s :     0.860964

 30 H s       :     0.854501  s :     0.854501

 31 H s       :     0.867588  s :     0.867588

 32 H s       :     0.862466  s :     0.862466

 33 H s       :     0.858965  s :     0.858965

 34 H s       :     0.861683  s :     0.861683

 35 H s       :     0.875086  s :     0.875086

 36 H s       :     0.883592  s :     0.883592

 37 H s       :     0.674020  s :     0.674020

 38 H s       :     0.810884  s :     0.810884

 39 H s       :     0.848830  s :     0.848830

 40 H s       :     0.837609  s :     0.837609

 41 H s       :     0.855863  s :     0.855863

 42 H s       :     0.846254  s :     0.846254

 43 H s       :     0.860607  s :     0.860607

 44 H s       :     0.837910  s :     0.837910

 45 H s       :     0.844114  s :     0.844114

 46 H s       :     0.837434  s :     0.837434

 47 H s       :     0.846985  s :     0.846985

 48 H s       :     0.860480  s :     0.860480

 49 H s       :     0.853223  s :     0.853223

 50 H s       :     0.873339  s :     0.873339



                     *******************************
                     * LOEWDIN POPULATION ANALYSIS *
                     *******************************

----------------------
LOEWDIN ATOMIC CHARGES
----------------------
   0 C :   -0.342494
   1 C :   -0.035076
   2 C :   -0.342633
   3 C :   -0.347807
   4 C :   -0.014312
   5 C :   -0.138082
   6 C :   -0.154719
   7 C :    0.038732
   8 N :   -0.227807
   9 C :    0.162230
  10 O :   -0.312989
  11 N :   -0.129867
  12 C :   -0.145963
  13 C :   -0.148543
  14 N :   -0.140824
  15 C :    0.061451
  16 N :   -0.139332
  17 C :   -0.065103
  18 C :   -0.154355
  19 C :   -0.107051
  20 C :   -0.117727
  21 Cl:    0.039312
  22 C :   -0.149561
  23 C :   -0.160077
  24 C :   -0.128674
  25 C :   -0.127442
  26 H :    0.118581
  27 H :    0.123237
  28 H :    0.119812
  29 H :    0.120478
  30 H :    0.125490
  31 H :    0.118192
  32 H :    0.122586
  33 H :    0.121813
  34 H :    0.120311
  35 H :    0.133248
  36 H :    0.126499
  37 H :    0.253597
  38 H :    0.155108
  39 H :    0.119880
  40 H :    0.126406
  41 H :    0.123430
  42 H :    0.137508
  43 H :    0.139073
  44 H :    0.149027
  45 H :    0.119187
  46 H :    0.140088
  47 H :    0.127216
  48 H :    0.113329
  49 H :    0.143959
  50 H :    0.130660

-------------------------------
LOEWDIN REDUCED ORBITAL CHARGES
-------------------------------
  0 C s       :     2.991401  s :     2.991401
      pz      :     1.096044  p :     3.284416
      px      :     1.111268
      py      :     1.077104
      dz2     :     0.017586  d :     0.066676
      dxz     :     0.007730
      dyz     :     0.013079
      dx2y2   :     0.020653
      dxy     :     0.007628

  1 C s       :     2.867515  s :     2.867515
      pz      :     1.023658  p :     3.055109
      px      :     1.008740
      py      :     1.022711
      dz2     :     0.024681  d :     0.112452
      dxz     :     0.018246
      dyz     :     0.024311
      dx2y2   :     0.027501
      dxy     :     0.017714

  2 C s       :     2.991425  s :     2.991425
      pz      :     1.058858  p :     3.284638
      px      :     1.106198
      py      :     1.119583
      dz2     :     0.014853  d :     0.066570
      dxz     :     0.008624
      dyz     :     0.019235
      dx2y2   :     0.018685
      dxy     :     0.005173

  3 C s       :     2.990011  s :     2.990011
      pz      :     1.108523  p :     3.291989
      px      :     1.106658
      py      :     1.076807
      dz2     :     0.016392  d :     0.065808
      dxz     :     0.004978
      dyz     :     0.016185
      dx2y2   :     0.019984
      dxy     :     0.008269

  4 C s       :     2.885592  s :     2.885592
      pz      :     0.973121  p :     3.033146
      px      :     1.015510
      py      :     1.044514
      dz2     :     0.008755  d :     0.095575
      dxz     :     0.013100
      dyz     :     0.013196
      dx2y2   :     0.029827
      dxy     :     0.030697

  5 C s       :     2.916733  s :     2.916733
      pz      :     1.014670  p :     3.137289
      px      :     1.061880
      py      :     1.060739
      dz2     :     0.006094  d :     0.084061
      dxz     :     0.015018
      dyz     :     0.008740
      dx2y2   :     0.026087
      dxy     :     0.028122

  6 C s       :     2.913508  s :     2.913508
      pz      :     1.042082  p :     3.157837
      px      :     1.070451
      py      :     1.045304
      dz2     :     0.006966  d :     0.083374
      dxz     :     0.015050
      dyz     :     0.008050
      dx2y2   :     0.022948
      dxy     :     0.030359

  7 C s       :     2.853905  s :     2.853905
      pz      :     0.997520  p :     2.974192
      px      :     0.910863
      py      :     1.065810
      dz2     :     0.012601  d :     0.133171
      dxz     :     0.020138
      dyz     :     0.014089
      dx2y2   :     0.045175
      dxy     :     0.041167

  8 N s       :     3.144853  s :     3.144853
      pz      :     1.383636  p :     4.014149
      px      :     1.164419
      py      :     1.466094
      dz2     :     0.008107  d :     0.068805
      dxz     :     0.022817
      dyz     :     0.009980
      dx2y2   :     0.012413
      dxy     :     0.015488

  9 C s       :     2.840055  s :     2.840055
      pz      :     0.944245  p :     2.735562
      px      :     0.918214
      py      :     0.873103
      dz2     :     0.068893  d :     0.262153
      dxz     :     0.073641
      dyz     :     0.042499
      dx2y2   :     0.037390
      dxy     :     0.039731

 10 O s       :     3.589881  s :     3.589881
      pz      :     1.449107  p :     4.673281
      px      :     1.692083
      py      :     1.532091
      dz2     :     0.017013  d :     0.049828
      dxz     :     0.014338
      dyz     :     0.011959
      dx2y2   :     0.002691
      dxy     :     0.003827

 11 N s       :     3.113011  s :     3.113011
      pz      :     1.160036  p :     3.933892
      px      :     1.159811
      py      :     1.614045
      dz2     :     0.024456  d :     0.082964
      dxz     :     0.025305
      dyz     :     0.010102
      dx2y2   :     0.013842
      dxy     :     0.009260

 12 C s       :     2.928430  s :     2.928430
      pz      :     1.020088  p :     3.105734
      px      :     0.992767
      py      :     1.092879
      dz2     :     0.023620  d :     0.111799
      dxz     :     0.026659
      dyz     :     0.014442
      dx2y2   :     0.029907
      dxy     :     0.017170

 13 C s       :     2.930870  s :     2.930870
      pz      :     0.947086  p :     3.103795
      px      :     1.040061
      py      :     1.116648
      dz2     :     0.030067  d :     0.113878
      dxz     :     0.026558
      dyz     :     0.023632
      dx2y2   :     0.020413
      dxy     :     0.013207

 14 N s       :     3.088893  s :     3.088893
      pz      :     1.166789  p :     3.968395
      px      :     1.183026
      py      :     1.618580
      dz2     :     0.022741  d :     0.083536
      dxz     :     0.026933
      dyz     :     0.011734
      dx2y2   :     0.012193
      dxy     :     0.009935

 15 C s       :     2.853666  s :     2.853666
      pz      :     0.958246  p :     2.906876
      px      :     0.951293
      py      :     0.997336
      dz2     :     0.015096  d :     0.178007
      dxz     :     0.017669
      dyz     :     0.025352
      dx2y2   :     0.055829
      dxy     :     0.064060

 16 N s       :     3.244585  s :     3.244585
      pz      :     1.237365  p :     3.817481
      px      :     1.331193
      py      :     1.248923
      dz2     :     0.008697  d :     0.077265
      dxz     :     0.011317
      dyz     :     0.013074
      dx2y2   :     0.029021
      dxy     :     0.015156

 17 C s       :     2.915129  s :     2.915129
      pz      :     0.966270  p :     3.026565
      px      :     1.002841
      py      :     1.057454
      dz2     :     0.012016  d :     0.123410
      dxz     :     0.023836
      dyz     :     0.009148
      dx2y2   :     0.040641
      dxy     :     0.037768

 18 C s       :     2.923902  s :     2.923902
      pz      :     1.016895  p :     3.146194
      px      :     1.070257
      py      :     1.059042
      dz2     :     0.009088  d :     0.084260
      dxz     :     0.008971
      dyz     :     0.014257
      dx2y2   :     0.026059
      dxy     :     0.025884

 19 C s       :     2.922816  s :     2.922816
      pz      :     0.979494  p :     3.098743
      px      :     1.052294
      py      :     1.066955
      dz2     :     0.006387  d :     0.085492
      dxz     :     0.013204
      dyz     :     0.013465
      dx2y2   :     0.023571
      dxy     :     0.028864

 20 C s       :     2.926211  s :     2.926211
      pz      :     1.065529  p :     3.080854
      px      :     1.085666
      py      :     0.929659
      dz2     :     0.010523  d :     0.110662
      dxz     :     0.014997
      dyz     :     0.016960
      dx2y2   :     0.034363
      dxy     :     0.033820

 21 Cls       :     5.802738  s :     5.802738
      pz      :     3.893946  p :    11.124441
      px      :     3.915348
      py      :     3.315148
      dz2     :     0.004703  d :     0.033509
      dxz     :     0.000902
      dyz     :     0.008340
      dx2y2   :     0.013954
      dxy     :     0.005609

 22 C s       :     2.928760  s :     2.928760
      pz      :     1.017534  p :     3.104813
      px      :     0.997820
      py      :     1.089459
      dz2     :     0.024337  d :     0.115988
      dxz     :     0.026180
      dyz     :     0.013365
      dx2y2   :     0.032486
      dxy     :     0.019621

 23 C s       :     2.933302  s :     2.933302
      pz      :     0.954184  p :     3.114039
      px      :     1.054490
      py      :     1.105365
      dz2     :     0.027371  d :     0.112736
      dxz     :     0.026128
      dyz     :     0.025731
      dx2y2   :     0.019454
      dxy     :     0.014052

 24 C s       :     2.914687  s :     2.914687
      pz      :     1.009509  p :     3.131259
      px      :     1.069172
      py      :     1.052579
      dz2     :     0.006534  d :     0.082728
      dxz     :     0.013504
      dyz     :     0.008184
      dx2y2   :     0.024232
      dxy     :     0.030273

 25 C s       :     2.916291  s :     2.916291
      pz      :     1.003161  p :     3.127072
      px      :     1.064937
      py      :     1.058974
      dz2     :     0.006750  d :     0.084080
      dxz     :     0.014913
      dyz     :     0.007661
      dx2y2   :     0.026095
      dxy     :     0.028660

 26 H s       :     0.881419  s :     0.881419

 27 H s       :     0.876763  s :     0.876763

 28 H s       :     0.880188  s :     0.880188

 29 H s       :     0.879522  s :     0.879522

 30 H s       :     0.874510  s :     0.874510

 31 H s       :     0.881808  s :     0.881808

 32 H s       :     0.877414  s :     0.877414

 33 H s       :     0.878187  s :     0.878187

 34 H s       :     0.879689  s :     0.879689

 35 H s       :     0.866752  s :     0.866752

 36 H s       :     0.873501  s :     0.873501

 37 H s       :     0.746403  s :     0.746403

 38 H s       :     0.844892  s :     0.844892

 39 H s       :     0.880120  s :     0.880120

 40 H s       :     0.873594  s :     0.873594

 41 H s       :     0.876570  s :     0.876570

 42 H s       :     0.862492  s :     0.862492

 43 H s       :     0.860927  s :     0.860927

 44 H s       :     0.850973  s :     0.850973

 45 H s       :     0.880813  s :     0.880813

 46 H s       :     0.859912  s :     0.859912

 47 H s       :     0.872784  s :     0.872784

 48 H s       :     0.886671  s :     0.886671

 49 H s       :     0.856041  s :     0.856041

 50 H s       :     0.869340  s :     0.869340



                      *****************************
                      * MAYER POPULATION ANALYSIS *
                      *****************************

  NA   - Mulliken gross atomic population
  ZA   - Total nuclear charge
  QA   - Mulliken gross atomic charge
  VA   - Mayer's total valence
  BVA  - Mayer's bonded valence
  FA   - Mayer's free valence

  ATOM       NA         ZA         QA         VA         BVA        FA
  0 C      6.4330     6.0000    -0.4330     3.8276     3.8276    -0.0000
  1 C      5.9623     6.0000     0.0377     3.9464     3.9464     0.0000
  2 C      6.4339     6.0000    -0.4339     3.8266     3.8266    -0.0000
  3 C      6.4513     6.0000    -0.4513     3.8391     3.8391     0.0000
  4 C      5.8380     6.0000     0.1620     3.9073     3.9073     0.0000
  5 C      6.1932     6.0000    -0.1932     3.9479     3.9479     0.0000
  6 C      6.1893     6.0000    -0.1893     3.9082     3.9082     0.0000
  7 C      5.6448     6.0000     0.3552     3.8654     3.8654     0.0000
  8 N      7.7287     7.0000    -0.7287     2.8570     2.8570    -0.0000
  9 C      5.3140     6.0000     0.6860     3.9305     3.9305     0.0000
 10 O      8.4970     8.0000    -0.4970     2.0355     2.0355     0.0000
 11 N      7.4497     7.0000    -0.4497     3.0199     3.0199     0.0000
 12 C      6.1427     6.0000    -0.1427     3.8361     3.8361     0.0000
 13 C      6.1109     6.0000    -0.1109     3.8166     3.8166     0.0000
 14 N      7.4495     7.0000    -0.4495     3.0023     3.0023    -0.0000
 15 C      5.6135     6.0000     0.3865     3.9142     3.9142    -0.0000
 16 N      7.3987     7.0000    -0.3987     2.9781     2.9781     0.0000
 17 C      5.9856     6.0000     0.0144     3.9172     3.9172     0.0000
 18 C      6.1336     6.0000    -0.1336     3.9178     3.9178    -0.0000
 19 C      6.1052     6.0000    -0.1052     3.9171     3.9171    -0.0000
 20 C      6.1126     6.0000    -0.1126     3.8932     3.8932     0.0000
 21 Cl    17.0064    17.0000    -0.0064     1.1172     1.1172     0.0000
 22 C      6.1483     6.0000    -0.1483     3.8666     3.8666     0.0000
 23 C      6.1234     6.0000    -0.1234     3.8259     3.8259    -0.0000
 24 C      6.1397     6.0000    -0.1397     3.9223     3.9223     0.0000
 25 C      6.1947     6.0000    -0.1947     3.9243     3.9243     0.0000
 26 H      0.8668     1.0000     0.1332     0.9402     0.9402    -0.0000
 27 H      0.8588     1.0000     0.1412     0.9406     0.9406    -0.0000
 28 H      0.8623     1.0000     0.1377     0.9415     0.9415    -0.0000
 29 H      0.8610     1.0000     0.1390     0.9412     0.9412    -0.0000
 30 H      0.8545     1.0000     0.1455     0.9398     0.9398    -0.0000
 31 H      0.8676     1.0000     0.1324     0.9402     0.9402    -0.0000
 32 H      0.8625     1.0000     0.1375     0.9409     0.9409     0.0000
 33 H      0.8590     1.0000     0.1410     0.9392     0.9392    -0.0000
 34 H      0.8617     1.0000     0.1383     0.9396     0.9396    -0.0000
 35 H      0.8751     1.0000     0.1249     0.9441     0.9441    -0.0000
 36 H      0.8836     1.0000     0.1164     0.9399     0.9399     0.0000
 37 H      0.6740     1.0000     0.3260     0.8685     0.8685    -0.0000
 38 H      0.8109     1.0000     0.1891     0.9374     0.9374     0.0000
 39 H      0.8488     1.0000     0.1512     0.9236     0.9236     0.0000
 40 H      0.8376     1.0000     0.1624     0.9275     0.9275     0.0000
 41 H      0.8559     1.0000     0.1441     0.9289     0.9289    -0.0000
 42 H      0.8463     1.0000     0.1537     0.9311     0.9311     0.0000
 43 H      0.8606     1.0000     0.1394     0.9374     0.9374     0.0000
 44 H      0.8379     1.0000     0.1621     0.9339     0.9339     0.0000
 45 H      0.8441     1.0000     0.1559     0.9218     0.9218     0.0000
 46 H      0.8374     1.0000     0.1626     0.9359     0.9359     0.0000
 47 H      0.8470     1.0000     0.1530     0.9310     0.9310    -0.0000
 48 H      0.8605     1.0000     0.1395     0.9260     0.9260     0.0000
 49 H      0.8532     1.0000     0.1468     0.9470     0.9470    -0.0000
 50 H      0.8733     1.0000     0.1267     0.9427     0.9427    -0.0000

  Mayer bond orders larger than 0.100000
B(  0-C ,  1-C ) :   0.9905 B(  0-C , 26-H ) :   0.9434 B(  0-C , 27-H ) :   0.9475 
B(  0-C , 28-H ) :   0.9430 B(  1-C ,  2-C ) :   0.9909 B(  1-C ,  3-C ) :   0.9993 
B(  1-C ,  4-C ) :   0.9725 B(  2-C , 29-H ) :   0.9425 B(  2-C , 30-H ) :   0.9469 
B(  2-C , 31-H ) :   0.9433 B(  3-C , 32-H ) :   0.9435 B(  3-C , 33-H ) :   0.9412 
B(  3-C , 34-H ) :   0.9411 B(  4-C ,  5-C ) :   1.4362 B(  4-C , 25-C ) :   1.3858 
B(  5-C ,  6-C ) :   1.4220 B(  5-C , 35-H ) :   0.9177 B(  6-C ,  7-C ) :   1.4145 
B(  6-C , 36-H ) :   0.9243 B(  7-C ,  8-N ) :   0.8635 B(  7-C , 24-C ) :   1.4156 
B(  8-N ,  9-C ) :   1.0021 B(  8-N , 37-H ) :   0.8221 B(  9-C , 10-O ) :   1.7838 
B(  9-C , 11-N ) :   1.0587 B( 11-N , 12-C ) :   0.9393 B( 11-N , 23-C ) :   0.9416 
B( 12-C , 13-C ) :   0.9918 B( 12-C , 38-H ) :   0.9181 B( 12-C , 39-H ) :   0.9272 
B( 13-C , 14-N ) :   0.9455 B( 13-C , 40-H ) :   0.9182 B( 13-C , 41-H ) :   0.9272 
B( 14-N , 15-C ) :   1.0386 B( 14-N , 22-C ) :   0.9659 B( 15-C , 16-N ) :   1.3802 
B( 15-C , 20-C ) :   1.3145 B( 16-N , 17-C ) :   1.4203 B( 17-C , 18-C ) :   1.4190 
B( 17-C , 42-H ) :   0.9285 B( 18-C , 19-C ) :   1.4485 B( 18-C , 43-H ) :   0.9238 
B( 19-C , 20-C ) :   1.4215 B( 19-C , 44-H ) :   0.9211 B( 20-C , 21-Cl) :   1.0184 
B( 22-C , 23-C ) :   0.9966 B( 22-C , 45-H ) :   0.9190 B( 22-C , 46-H ) :   0.9310 
B( 23-C , 47-H ) :   0.9208 B( 23-C , 48-H ) :   0.9207 B( 24-C , 25-C ) :   1.4444 
B( 24-C , 49-H ) :   0.9123 B( 25-C , 50-H ) :   0.9218 

-------
TIMINGS
-------

Total SCF time: 0 days 0 hours 4 min 57 sec 

Total time                  ....     297.960 sec
Sum of individual times     ....     297.715 sec  ( 99.9%)

SCF preparation             ....       0.300 sec  (  0.1%)
Fock matrix formation       ....     295.964 sec  ( 99.3%)
  Startup                   ....       0.074 sec  (  0.0% of F)
  Split-RI-J                ....      36.287 sec  ( 12.3% of F)
  Chain of spheres X        ....     230.158 sec  ( 77.8% of F)
  XC integration            ....      28.768 sec  (  9.7% of F)
    XC Preparation          ....       0.000 sec  (  0.0% of XC)
    Basis function eval.    ....      10.810 sec  ( 37.6% of XC)
    Density eval.           ....       6.669 sec  ( 23.2% of XC)
    XC-Functional eval.     ....       1.451 sec  (  5.0% of XC)
    XC-Potential eval.      ....       8.275 sec  ( 28.8% of XC)
Diagonalization             ....       0.000 sec  (  0.0%)
Density matrix formation    ....       0.242 sec  (  0.1%)
Total Energy calculation    ....       0.063 sec  (  0.0%)
Population analysis         ....       0.062 sec  (  0.0%)
Orbital Transformation      ....       0.127 sec  (  0.0%)
Orbital Orthonormalization  ....       0.000 sec  (  0.0%)
DIIS solution               ....       0.630 sec  (  0.2%)
SOSCF solution              ....       0.327 sec  (  0.1%)
Finished LeanSCF after 298.1 sec

Maximum memory used throughout the entire LEANSCF-calculation: 65.4 MB

-------------------------   --------------------
FINAL SINGLE POINT ENERGY     -1530.842227436276
-------------------------   --------------------


------------------------------------------------------------------------------
                              ORCA PROPERTY CALCULATIONS
------------------------------------------------------------------------------

GBWName                                 ... /home/nmrbox/aojoawo/Documents/ERDOS/inputs/CHEMBL441472.gbw
Number of atoms                         ...     51
Number of basis functions               ...    418
Max core memory                         ...   1024 MB

Electric properties:
Dipole moment                           ... YES
Quadrupole moment                       ...  NO
Static polarizability (Dipole/Dipole)   ...  NO
Static polarizability (Dipole/Quad.)    ...  NO
Static polarizability (Quad./Quad.)     ...  NO
Static polarizability (Velocity)        ...  NO

Atomic electric properties:
Dipole moment                           ...  NO
Quadrupole moment                       ...  NO
Static polarizability                   ...  NO

Choice of electric origin               ... Center of mass
Position of electric origin             ...     2.185695    -0.346514     0.046735

General magnetic properties:
Magnetizability                         ...  NO

EPR properties:
g-Tensor (aka g-matrix)                 ...  NO
Zero-Field splitting spin-orbit         ...  NO
Zero-field splitting spin-spin          ...  NO
Hyperfine couplings                     ...  NO (   0 nuclei)
Quadrupole couplings                    ...  NO (   0 nuclei)
Contact density                         ...  NO (   0 nuclei)

NMR properties:
Chemical shifts                         ...  NO (   0 nuclei)
Spin-rotation constants                 ...  NO (   0 nuclei)
Spin-spin couplings                     ...  NO (   0 nuclei,    0 pairs)

Choice of magnetic origin               ... GIAO
Position of magnetic origin             ...     0.000000     0.000000     0.000000

Properties with geometric perturbations:
SCF Hessian                             ...  NO
IR spectrum                             ...  NO
VCD spectrum                            ...  NO
X-ray spectroscopy properties:
SCF XES/XAS/RIXS spectra                ...  NO


-------------
DIPOLE MOMENT
-------------

Method             : SCF
Type of density    : Electron Density
Multiplicity       :   1
Irrep              :   0
Energy             : -1530.8422274362760618 Eh
Relativity type    : 
Basis              : AO
                                X                 Y                 Z
Electronic contribution:     57.201863370      -7.756978248       1.200737302
Nuclear contribution   :    -55.970155403       8.210947314       0.064054257
                        -----------------------------------------
Total Dipole Moment    :      1.231707967       0.453969066       1.264791559
                        -----------------------------------------
Magnitude (a.u.)       :      1.822879622
Magnitude (Debye)      :      4.633391778



--------------------
Rotational spectrum 
--------------------
 
Rotational constants in cm-1:             0.021212             0.001704             0.001680 
Rotational constants in MHz :           635.911961            51.075534            50.373986 

Dipole components along the rotational axes: 
x,y,z [a.u.] :     1.223891     0.328885    -1.310273 
x,y,z [Debye]:     3.110885     0.835959    -3.330449 

 

Dipole moment calculation done in   0.0 sec 

Maximum memory used throughout the entire PROP-calculation: 30.8 MB

--------------------------------
SUGGESTED CITATIONS FOR THIS RUN
--------------------------------

Below you find a list of papers that are relevant to this ORCA run
We neither can nor want to force you to cite these papers, but we appreciate if you do
You receive ORCA, which is the product of decades of hard work by many enthusiastic individuals, for free
The only thing we kindly ask in return is that you cite our papers,
We deeply appreciate it, if you show your appreciation for ORCA by not just citing the generic ORCA reference.

Please note that relegating all ORCA citations to the supporting information does *not* help us.
SI sections are not indexed - citations you put there will not count into any citation statistics
But we need these citations in order to attract the funding resources that allow us to do what we are doing

Therefore, if you are a happy ORCA user, please consider citing a few of the papers listed below in the main body of your paper

In addition to the list printed below, the program has created the file /home/nmrbox/aojoawo/Documents/ERDOS/inputs/CHEMBL441472.bibtex that contains the list in bibtex format
You can import this file easily into all common literature databanks and citation aid programs


List of essential papers. We consider these as the minimum necessary citations

  1. Neese,F.
     Software update: the ORCA program system, version 5.0
     WIRES Comput. Molec. Sci., 2022 12(1)e1606
     doi.org/10.1002/wcms.1606

List of papers to cite with high priority. The work reported in these papers was absolutely
necessary for this run to complete.
Our perspective: the developers of density functionals and basis sets usually get cited in chemistry papers
Good! But without the algorithms to do something with them, the functionals or basis sets would not do anything.
Hence, in our opinion, the algorithm design and method developments papers are equally worthy of getting cited

  1. Neese,F.
     An improvement of the resolution of the identity approximation for the formation of the Coulomb matrix
     J. Comp. Chem., 2003 24(14)1740-1747
     doi.org/10.1002/jcc.10318
  2. Neese,F.; Wennmohs,F.; Hansen,A.; Becker,U.
     Efficient, approximate and parallel Hartree-Fock and hybrid DFT calculations. A 'chain-of-spheres' algorithm for the Hartree-Fock exchange
     Chem. Phys., 2009 356(1-3)98-109
     doi.org/10.1016/j.chemphys.2008.10.036
  3. Helmich-Paris,B.; de Souza,B.; Neese,F.; Izsák,R.
     An improved chain of spheres for exchange algorithm
     J. Chem. Phys., 2021 155 104109
     doi.org/doi: 10.1063/5.0058766.
  4. Neese,F.
     The SHARK Integral Generation and Digestion System
     J. Comp. Chem., 2022  1-16
     doi.org/10.1002/jcc.26942

List of suggested additional citations. These are papers that are important in the 'surrounding' of 
of this run, or papers that preceded the highly important papers. If you like your results we are grateful for a citation.

  1. Izsak,R.; Neese,F.
     An overlap fitted chain of spheres exchange method
     J. Chem. Phys., 2011 135 144105
     doi.org/10.1063/1.3646921
  2. Izsak,R.; Hansen,A.; Neese,F.
     The resolution of identity and chain of spheres approximations for the LPNO-CCSD singles Fock term
     Molec. Phys., 2012 110 2413-2417
     doi.org/10.1080/00268976.2012.687466
  3. Neese,F.
     The ORCA program system
     WIRES Comput. Molec. Sci., 2012 2(1)73-78
     doi.org/10.1002/wcms.81
  4. Izsak,R.; Neese,F.; Klopper,W.
     Robust fitting techniques in the chain of spheres approximation to the Fock exchange: The role of the complementary space
     J. Chem. Phys., 2013 139 
     doi.org/10.1063/1.4819264
  5. Neese,F.
     Software update: the ORCA program system, version 4.0
     WIRES Comput. Molec. Sci., 2018 8(1)1-6
     doi.org/10.1002/wcms.1327
  6. Neese,F.; Wennmohs,F.; Becker,U.; Riplinger,C.
     The ORCA quantum chemistry program package
     J. Chem. Phys., 2020 152 Art. No. L224108
     doi.org/10.1063/5.0004608

List of optional additional citations

  1. Neese,F.
     Approximate second-order SCF convergence for spin unrestricted wavefunctions
     Chem. Phys. Lett., 2000 325(1-3)93-98
     doi.org/10.1016/s0009-2614(00)00662-x

Timings for individual modules:

Sum of individual times          ...      312.270 sec (=   5.205 min)
Startup calculation              ...        9.721 sec (=   0.162 min)   3.1 %
SCF iterations                   ...      302.370 sec (=   5.040 min)  96.8 %
Property calculations            ...        0.180 sec (=   0.003 min)   0.1 %
                             ****ORCA TERMINATED NORMALLY****
TOTAL RUN TIME: 0 days 0 hours 5 minutes 12 seconds 953 msec
