
                                 *****************
                                 * O   R   C   A *
                                 *****************

                                            #,                                       
                                            ###                                      
                                            ####                                     
                                            #####                                    
                                            ######                                   
                                           ########,                                 
                                     ,,################,,,,,                         
                               ,,#################################,,                 
                          ,,##########################################,,             
                       ,#########################################, ''#####,          
                    ,#############################################,,   '####,        
                  ,##################################################,,,,####,       
                ,###########''''           ''''###############################       
              ,#####''   ,,,,##########,,,,          '''####'''          '####       
            ,##' ,,,,###########################,,,                        '##       
           ' ,,###''''                  '''############,,,                           
         ,,##''                                '''############,,,,        ,,,,,,###''
      ,#''                                            '''#######################'''  
     '                                                          ''''####''''         
             ,#######,   #######,   ,#######,      ##                                
            ,#'     '#,  ##    ##  ,#'     '#,    #''#        ,####,   ,####,        
            ##       ##  ##   ,#'  ##            #'  '#       #'       #'  '#        
            ##       ##  #######   ##           ,######,      #####,   #    #        
            '#,     ,#'  ##    ##  '#,     ,#' ,#      #,     #,   #   #,  ,#        
             '#######'   ##     ##  '#######'  #'      '#     '####' # '####'        



                #########################################################
                #                        -***-                          #
                #          Department of theory and spectroscopy        #
                #                                                       #
                #                      Frank Neese                      #
                #                                                       #
                #     Directorship, Architecture, Infrastructure        #
                #                    SHARK, DRIVERS                     #
                #        Core code/Algorithms in most modules           #
                #                                                       #
                #        Max Planck Institute fuer Kohlenforschung      #
                #                Kaiser Wilhelm Platz 1                 #
                #                 D-45470 Muelheim/Ruhr                 #
                #                      Germany                          #
                #                                                       #
                #                  All rights reserved                  #
                #                        -***-                          #
                #########################################################


                         Program Version 6.0.0  -   RELEASE  -


 With contributions from (in alphabetic order):
   Daniel Aravena         : Magnetic Suceptibility
   Michael Atanasov       : Ab Initio Ligand Field Theory (pilot matlab implementation)
   Alexander A. Auer      : GIAO ZORA, VPT2 properties, NMR spectrum
   Ute Becker             : All parallelization in ORCA, NUMFREQ, NUMCALC
   Giovanni Bistoni       : ED, misc. LED, open-shell LED, HFLD
   Martin Brehm           : Molecular dynamics
   Dmytro Bykov           : pre 5.0 version of the SCF Hessian
   Marcos Casanova-Páez   : Triplet and SCS-CIS(D). UHF-(DLPNO)-IP/EA/STEOM-CCSD. UHF-CVS-IP/STEOM-CCSD
   Vijay G. Chilkuri      : MRCI spin determinant printing, contributions to CSF-ICE
   Pauline Colinet        : FMM embedding
   Dipayan Datta          : RHF DLPNO-CCSD density
   Achintya Kumar Dutta   : EOM-CC, STEOM-CC
   Nicolas Foglia         : Exact transition moments, OPA infrastructure, MCD improvements
   Dmitry Ganyushin       : Spin-Orbit,Spin-Spin,Magnetic field MRCI
   Miquel Garcia          : C-PCM and meta-GGA Hessian, CCSD/C-PCM, Gaussian charge scheme
   Tiago L. C. Gouveia    : GS-ROHF, GS-ROCIS
   Yang Guo               : DLPNO-NEVPT2, F12-NEVPT2, CIM, IAO-localization
   Andreas Hansen         : Spin unrestricted coupled pair/coupled cluster methods
   Ingolf Harden          : AUTO-CI MPn and infrastructure 
   Benjamin Helmich-Paris : MC-RPA, TRAH-(SCF,CASSCF), AVAS, COSX integrals, SCF dyn. polar.
   Lee Huntington         : MR-EOM, pCC
   Robert Izsak           : Overlap fitted RIJCOSX, COSX-SCS-MP3, EOM
   Riya Kayal             : Wick's Theorem for AUTO-CI, AUTO-CI UHF-CCSDT
   Emily Kempfer          : AUTO-CI, RHF CISDT and CCSDT
   Christian Kollmar      : KDIIS, OOCD, Brueckner-CCSD(T), CCSD density, CASPT2, CASPT2-K, improved NEVPT2
   Axel Koslowski         : Symmetry handling
   Simone Kossmann        : Meta GGA functionals, TD-DFT gradient, OOMP2, (MP2 Hessian; deprecated post 5.0)
   Lucas Lang             : DCDCAS
   Marvin Lechner         : AUTO-CI (C++ implementation), FIC-MRCC
   Spencer Leger          : CASSCF response
   Dagmar Lenk            : GEPOL surface, SMD, ORCA-2-JSON
   Dimitrios Liakos       : Extrapolation schemes; Compound Job, initial MDCI parallelization
   Dimitrios Manganas     : Further ROCIS development; embedding schemes. LFT, Crystal Embedding
   Dimitrios Pantazis     : SARC Basis sets
   Anastasios Papadopoulos: AUTO-CI, single reference methods and gradients
   Taras Petrenko         : pre 6.0 DFT Hessian and TD-DFT gradient, (ASA, deprecated), ECA, 1-Electron XAS/XES, NRVS
   Peter Pinski           : DLPNO-MP2, DLPNO-MP2 Gradient
   Christoph Reimann      : Effective Core Potentials
   Marius Retegan         : Local ZFS, SOC
   Christoph Riplinger    : Optimizer, TS searches, QM/MM, DLPNO-CCSD(T), (RO)-DLPNO pert. Triples
   Michael Roemelt        : Original ROCIS implementation
   Masaaki Saitow         : Open-shell DLPNO-CCSD energy and density
   Barbara Sandhoefer     : DKH picture change effects
   Kantharuban Sivalingam : CASSCF convergence/infrastructure, NEVPT2 and variants, FIC-MRCI
   Bernardo de Souza      : ESD, SOC TD-DFT
   Georgi Stoychev        : AutoAux, RI-MP2 NMR, DLPNO-MP2 response, X2C
   Van Anh Tran           : RI-MP2 g-tensors
   Willem Van den Heuvel  : Paramagnetic NMR
   Zikuan Wang            : NOTCH, Electric field optimization 
   Frank Wennmohs         : Technical directorship and infrastructure
   Hang Xu                : AUTO-CI-Response properties 


 We gratefully acknowledge several colleagues who have allowed us to
 interface, adapt or use parts of their codes:
   Stefan Grimme, W. Hujo, H. Kruse, P. Pracht,  : VdW corrections, initial TS optimization,
                  C. Bannwarth, S. Ehlert,         DFT functionals, gCP, sTDA/sTD-DF
                  L. Wittmann, M. Mueller
   Ed Valeev, F. Pavosevic, A. Kumar             : LibInt (2-el integral package), F12 methods
   Garnet Chan, S. Sharma, J. Yang, R. Olivares  : DMRG
   Ulf Ekstrom                                   : XCFun DFT Library
   Mihaly Kallay                                 : mrcc  (arbitrary order and MRCC methods)
   Frank Weinhold                                : gennbo (NPA and NBO analysis)
   Simon Mueller                                 : openCOSMO-RS
   Christopher J. Cramer and Donald G. Truhlar   : smd solvation model
   Lars Goerigk                                  : TD-DFT with DH, B97 family of functionals
   V. Asgeirsson, H. Jonsson                     : NEB implementation
   FAccTs GmbH                                   : IRC, NEB, NEB-TS, DLPNO-Multilevel, CI-OPT
                                                   MM, QMMM, 2- and 3-layer-ONIOM, Crystal-QMMM,
                                                   LR-CPCM, SF, NACMEs, symmetry and pop. for TD-DFT,
                                                   nearIR, NL-DFT gradient (VV10), updates on ESD,
                                                   ML-optimized integration grids, MBIS, APM,
                                                   GOAT, DOCKER, SOLVATOR, interface openCOSMO-RS
   S Lehtola, MJT Oliveira, MAL Marques          : LibXC Library
   Liviu Ungur et al                             : ANISO software


 Your calculation uses the libint2 library for the computation of 2-el integrals
 For citations please refer to: http://libint.valeyev.net

 Your ORCA version has been built with support for libXC version: 6.2.2
 For citations please refer to: https://libxc.gitlab.io

 This ORCA versions uses:
   CBLAS   interface :  Fast vector & matrix operations
   LAPACKE interface :  Fast linear algebra routines
   SCALAPACK package :  Parallel linear algebra routines
   Shared memory     :  Shared parallel matrices
   BLAS/LAPACK       :  OpenBLAS 0.3.27  USE64BITINT DYNAMIC_ARCH NO_AFFINITY SkylakeX SINGLE_THREADED
        Core in use  :  SkylakeX
   Copyright (c) 2011-2014, The OpenBLAS Project


Warning: RI is on but no J-basis has been assigned. Assigning Def2/J (nothing to worry about!)
================================================================================

----- Orbital basis set information -----
Your calculation utilizes the basis: 6-31G*
   H-He, Li-Ne : W. J. Hehre, R. Ditchfield and J.A. Pople, J. Chem. Phys. 56, 2257 (1972).
                 Note: He and Ne are unpublished basis sets taken from the Gaussian program.
                 Note: Li and B from J. D. Dill and J. A. Pople, J. Chem. Phys. 62, 2921 (1975).
   Na - Ar     : M. M. Francl, W. J. Pietro, W. J. Hehre, J. S. Binkley, M. S. Gordon, 
                 D. J. DeFrees and J. A. Pople, J. Chem. Phys. 77, 3654 (1982).
   K - Zn      : V. A. Rassolov, J. A. Pople, M. A. Ratner, and T. L. Windus, J. Chem. Phys. 109, 1223 (1998).

----- AuxJ basis set information -----
Your calculation utilizes the auxiliary basis: def2/J
   F. Weigend, Phys. Chem. Chem. Phys. 8, 1057 (2006).

================================================================================
                                        WARNINGS
                       Please study these warnings very carefully!
================================================================================


================================================================================
                                       INPUT FILE
================================================================================
NAME = /home/nmrbox/aojoawo/Documents/ERDOS/inputs/CHEMBL3987098.inp
|  1> ! B3LYP 6-31G* SP
|  2> 
|  3> * xyz 0 1
|  4> C 3.4399 1.7502 -1.5465
|  5> C 4.3744 0.7279 -0.9874
|  6> O 5.3898 0.2215 -1.6619
|  7> C 5.9757 -0.6624 -0.8883
|  8> C 5.3514 -0.7469 0.3176
|  9> C 4.3076 0.1626 0.2865
| 10> C 3.2405 0.3867 1.3196
| 11> C 2.1075 -0.5732 1.0973
| 12> O 2.2829 -1.7998 1.3242
| 13> N 0.8794 -0.1453 0.4970
| 14> C 0.1140 0.8125 0.9359
| 15> S 0.3201 1.6424 2.3881
| 16> C -1.0812 2.5487 2.1963
| 17> C -1.6810 2.1836 0.9917
| 18> C -2.9285 2.8303 0.5351
| 19> C -4.0742 2.7797 1.3311
| 20> C -5.2480 3.4060 0.9129
| 21> C -5.3069 4.1145 -0.2951
| 22> O -6.5518 4.7107 -0.5872
| 23> C -6.8904 5.6130 -1.6352
| 24> F -8.1826 6.0575 -1.4286
| 25> F -6.8467 4.9688 -2.8578
| 26> F -6.0478 6.7104 -1.6223
| 27> C -4.1358 4.1742 -1.1049
| 28> Cl -4.0294 4.9693 -2.6706
| 29> C -2.9622 3.5409 -0.6704
| 30> N -1.0162 1.2059 0.2939
| 31> C -1.4867 0.5614 -0.9414
| 32> O -1.8786 -0.7812 -0.6692
| 33> C -3.0668 -1.1099 -0.0090
| 34> O -3.9152 -0.2176 0.2700
| 35> C -3.3535 -2.5536 0.3188
| 36> N -3.7047 -2.6883 1.7376
| 37> C -4.4822 -3.1240 -0.5834
| 38> C -4.1155 -3.0243 -2.0760
| 39> C -4.7837 -4.5897 -0.2285
| 40> C 5.8026 -1.6503 1.2724
| 41> O 5.2338 -1.7290 2.3957
| 42> N 6.8814 -2.4468 0.9644
| 43> C 7.4054 -3.3940 1.9637
| 44> C 7.5221 -2.3114 -0.2558
| 45> O 8.5494 -3.0025 -0.5057
| 46> N 7.0518 -1.4304 -1.2038
| 47> C 7.7243 -1.2809 -2.5003
| 48> H 3.7199 1.9857 -2.5952
| 49> H 2.4016 1.3582 -1.5312
| 50> H 3.4946 2.6784 -0.9417
| 51> H 3.6530 0.2530 2.3405
| 52> H 2.8865 1.4347 1.2466
| 53> H -1.4467 3.2970 2.8863
| 54> H -4.0628 2.2458 2.2739
| 55> H -6.1270 3.3488 1.5444
| 56> H -2.0671 3.5988 -1.2787
| 57> H -0.6603 0.5469 -1.6847
| 58> H -2.3284 1.1059 -1.4111
| 59> H -2.4254 -3.1428 0.1377
| 60> H -4.5489 -2.1067 1.9489
| 61> H -2.9139 -2.3216 2.3170
| 62> H -5.4121 -2.5346 -0.4157
| 63> H -3.1447 -3.5310 -2.2705
| 64> H -4.8989 -3.5012 -2.7053
| 65> H -4.0383 -1.9615 -2.3878
| 66> H -3.8856 -5.2275 -0.3863
| 67> H -5.6123 -4.9732 -0.8617
| 68> H -5.1061 -4.6810 0.8322
| 69> H 8.2165 -2.9090 2.5475
| 70> H 6.6099 -3.7345 2.6611
| 71> H 7.8037 -4.3087 1.4739
| 72> H 7.0716 -0.7705 -3.2407
| 73> H 7.9812 -2.2766 -2.9203
| 74> H 8.6554 -0.6903 -2.3696
| 75> *
| 76> 
| 77>                          ****END OF INPUT****
================================================================================

                       ****************************
                       * Single Point Calculation *
                       ****************************

---------------------------------
CARTESIAN COORDINATES (ANGSTROEM)
---------------------------------
  C      3.439900    1.750200   -1.546500
  C      4.374400    0.727900   -0.987400
  O      5.389800    0.221500   -1.661900
  C      5.975700   -0.662400   -0.888300
  C      5.351400   -0.746900    0.317600
  C      4.307600    0.162600    0.286500
  C      3.240500    0.386700    1.319600
  C      2.107500   -0.573200    1.097300
  O      2.282900   -1.799800    1.324200
  N      0.879400   -0.145300    0.497000
  C      0.114000    0.812500    0.935900
  S      0.320100    1.642400    2.388100
  C     -1.081200    2.548700    2.196300
  C     -1.681000    2.183600    0.991700
  C     -2.928500    2.830300    0.535100
  C     -4.074200    2.779700    1.331100
  C     -5.248000    3.406000    0.912900
  C     -5.306900    4.114500   -0.295100
  O     -6.551800    4.710700   -0.587200
  C     -6.890400    5.613000   -1.635200
  F     -8.182600    6.057500   -1.428600
  F     -6.846700    4.968800   -2.857800
  F     -6.047800    6.710400   -1.622300
  C     -4.135800    4.174200   -1.104900
  Cl    -4.029400    4.969300   -2.670600
  C     -2.962200    3.540900   -0.670400
  N     -1.016200    1.205900    0.293900
  C     -1.486700    0.561400   -0.941400
  O     -1.878600   -0.781200   -0.669200
  C     -3.066800   -1.109900   -0.009000
  O     -3.915200   -0.217600    0.270000
  C     -3.353500   -2.553600    0.318800
  N     -3.704700   -2.688300    1.737600
  C     -4.482200   -3.124000   -0.583400
  C     -4.115500   -3.024300   -2.076000
  C     -4.783700   -4.589700   -0.228500
  C      5.802600   -1.650300    1.272400
  O      5.233800   -1.729000    2.395700
  N      6.881400   -2.446800    0.964400
  C      7.405400   -3.394000    1.963700
  C      7.522100   -2.311400   -0.255800
  O      8.549400   -3.002500   -0.505700
  N      7.051800   -1.430400   -1.203800
  C      7.724300   -1.280900   -2.500300
  H      3.719900    1.985700   -2.595200
  H      2.401600    1.358200   -1.531200
  H      3.494600    2.678400   -0.941700
  H      3.653000    0.253000    2.340500
  H      2.886500    1.434700    1.246600
  H     -1.446700    3.297000    2.886300
  H     -4.062800    2.245800    2.273900
  H     -6.127000    3.348800    1.544400
  H     -2.067100    3.598800   -1.278700
  H     -0.660300    0.546900   -1.684700
  H     -2.328400    1.105900   -1.411100
  H     -2.425400   -3.142800    0.137700
  H     -4.548900   -2.106700    1.948900
  H     -2.913900   -2.321600    2.317000
  H     -5.412100   -2.534600   -0.415700
  H     -3.144700   -3.531000   -2.270500
  H     -4.898900   -3.501200   -2.705300
  H     -4.038300   -1.961500   -2.387800
  H     -3.885600   -5.227500   -0.386300
  H     -5.612300   -4.973200   -0.861700
  H     -5.106100   -4.681000    0.832200
  H      8.216500   -2.909000    2.547500
  H      6.609900   -3.734500    2.661100
  H      7.803700   -4.308700    1.473900
  H      7.071600   -0.770500   -3.240700
  H      7.981200   -2.276600   -2.920300
  H      8.655400   -0.690300   -2.369600

----------------------------
CARTESIAN COORDINATES (A.U.)
----------------------------
  NO LB      ZA    FRAG     MASS         X           Y           Z
   0 C     6.0000    0    12.011    6.500469    3.307399   -2.922461
   1 C     6.0000    0    12.011    8.266418    1.375532   -1.865916
   2 O     8.0000    0    15.999   10.185246    0.418574   -3.140536
   3 C     6.0000    0    12.011   11.292436   -1.251755   -1.678644
   4 C     6.0000    0    12.011   10.112680   -1.411436    0.600177
   5 C     6.0000    0    12.011    8.140184    0.307269    0.541407
   6 C     6.0000    0    12.011    6.123658    0.730757    2.493683
   7 C     6.0000    0    12.011    3.982598   -1.083191    2.073596
   8 O     8.0000    0    15.999    4.314056   -3.401129    2.502375
   9 N     7.0000    0    14.007    1.661825   -0.274577    0.939194
  10 C     6.0000    0    12.011    0.215429    1.535402    1.768595
  11 S    16.0000    0    32.060    0.604901    3.103686    4.512855
  12 C     6.0000    0    12.011   -2.043172    4.816345    4.150406
  13 C     6.0000    0    12.011   -3.176630    4.126406    1.874041
  14 C     6.0000    0    12.011   -5.534063    5.348492    1.011192
  15 C     6.0000    0    12.011   -7.699122    5.252872    2.515414
  16 C     6.0000    0    12.011   -9.917283    6.436407    1.725131
  17 C     6.0000    0    12.011  -10.028588    7.775278   -0.557658
  18 O     8.0000    0    15.999  -12.381108    8.901933   -1.109647
  19 C     6.0000    0    12.011  -13.020969   10.607033   -3.090080
  20 F     9.0000    0    18.998  -15.462873   11.447016   -2.699663
  21 F     9.0000    0    18.998  -12.938388    9.389671   -5.400459
  22 F     9.0000    0    18.998  -11.428686   12.680818   -3.065703
  23 C     6.0000    0    12.011   -7.815529    7.888095   -2.087958
  24 Cl   17.0000    0    35.453   -7.614462    9.390616   -5.046703
  25 C     6.0000    0    12.011   -5.597747    6.691331   -1.266872
  26 N     7.0000    0    14.007   -1.920340    2.278821    0.555391
  27 C     6.0000    0    12.011   -2.809456    1.060892   -1.778988
  28 O     8.0000    0    15.999   -3.550040   -1.476254   -1.264605
  29 C     6.0000    0    12.011   -5.795412   -2.097407   -0.017008
  30 O     8.0000    0    15.999   -7.398656   -0.411204    0.510226
  31 C     6.0000    0    12.011   -6.337197   -4.825605    0.602445
  32 N     7.0000    0    14.007   -7.000868   -5.080151    3.283588
  33 C     6.0000    0    12.011   -8.470130   -5.903504   -1.102466
  34 C     6.0000    0    12.011   -7.777168   -5.715099   -3.923071
  35 C     6.0000    0    12.011   -9.039883   -8.673276   -0.431802
  36 C     6.0000    0    12.011   10.965325   -3.118615    2.404488
  37 O     8.0000    0    15.999    9.890449   -3.267336    4.527217
  38 N     7.0000    0    14.007   13.003961   -4.623782    1.822452
  39 C     6.0000    0    12.011   13.994178   -6.413730    3.710855
  40 C     6.0000    0    12.011   14.214709   -4.367913   -0.483392
  41 O     8.0000    0    15.999   16.156025   -5.673903   -0.955635
  42 N     7.0000    0    14.007   13.325971   -2.703064   -2.274852
  43 C     6.0000    0    12.011   14.596812   -2.420550   -4.724882
  44 H     1.0000    0     1.008    7.029592    3.752429   -4.904217
  45 H     1.0000    0     1.008    4.538366    2.566626   -2.893549
  46 H     1.0000    0     1.008    6.603837    5.061442   -1.779555
  47 H     1.0000    0     1.008    6.903170    0.478101    4.422904
  48 H     1.0000    0     1.008    5.454694    2.711190    2.355733
  49 H     1.0000    0     1.008   -2.733867    6.230427    5.454317
  50 H     1.0000    0     1.008   -7.677579    4.243947    4.297048
  51 H     1.0000    0     1.008  -11.578352    6.328315    2.918493
  52 H     1.0000    0     1.008   -3.906253    6.800746   -2.416393
  53 H     1.0000    0     1.008   -1.247786    1.033491   -3.183622
  54 H     1.0000    0     1.008   -4.400038    2.089848   -2.666593
  55 H     1.0000    0     1.008   -4.583342   -5.939031    0.260215
  56 H     1.0000    0     1.008   -8.596175   -3.981086    3.682887
  57 H     1.0000    0     1.008   -5.506473   -4.387188    4.378495
  58 H     1.0000    0     1.008  -10.227387   -4.789700   -0.785559
  59 H     1.0000    0     1.008   -5.942622   -6.672623   -4.290623
  60 H     1.0000    0     1.008   -9.257579   -6.616309   -5.112276
  61 H     1.0000    0     1.008   -7.631281   -3.706698   -4.512288
  62 H     1.0000    0     1.008   -7.342720   -9.878543   -0.730001
  63 H     1.0000    0     1.008  -10.605710   -9.397986   -1.628377
  64 H     1.0000    0     1.008   -9.649131   -8.845808    1.572630
  65 H     1.0000    0     1.008   15.526935   -5.497213    4.814077
  66 H     1.0000    0     1.008   12.490901   -7.057182    5.028750
  67 H     1.0000    0     1.008   14.746856   -8.142263    2.785267
  68 H     1.0000    0     1.008   13.363387   -1.456034   -6.124035
  69 H     1.0000    0     1.008   15.082282   -4.302151   -5.518567
  70 H     1.0000    0     1.008   16.356336   -1.304478   -4.477895

--------------------------------
INTERNAL COORDINATES (ANGSTROEM)
--------------------------------
 C      0   0   0     0.000000000000     0.00000000     0.00000000
 C      1   0   0     1.493646661697     0.00000000     0.00000000
 O      2   1   0     1.320010746168   123.54377267     0.00000000
 C      3   2   1     1.312636651934   107.48978375   181.45148918
 C      4   3   2     1.360546048467   111.06139369   359.78214002
 C      5   4   3     1.384801754765   106.56911010   359.51315570
 C      6   5   4     1.502071512945   128.17178887   174.52644316
 C      7   6   5     1.501504012649   109.80741058   274.43548905
 O      8   7   6     1.259681042963   119.39102915    69.53505466
 N      8   7   6     1.432371498599   121.20050163   256.35195783
 C     10   8   7     1.302248520828   125.61974400   302.96038936
 S     11  10   8     1.685258454956   125.50238733   353.18878492
 C     12  11  10     1.679823984827    93.74282616   183.63051190
 C     13  12  11     1.394316753826   108.43446121   359.80894688
 C     14  13  12     1.477484585368   121.03700551   181.01351693
 C     15  14  13     1.395996006441   120.05784537   301.57597697
 C     16  15  14     1.394614416246   120.23157530   179.03619772
 C     17  16  15     1.401679514012   121.38575242   359.00990549
 O     18  17  16     1.410869540390   115.41066777   180.68846823
 C     19  18  17     1.423762357277   129.05332336   171.84781849
 F     20  19  18     1.382043649817   108.43042315   187.28924389
 F     20  19  18     1.382625795362   110.37055145    68.98935405
 F     20  19  18     1.383628537578   110.54554480   305.78695560
 C     18  17  16     1.425066784400   118.44908456     0.58578534
 Cl    24  18  17     1.759238886564   125.05585655   177.99499526
 C     15  14  13     1.399756514541   120.57615312   119.13792337
 N     11  10   8     1.358042561925   122.87958796   177.49376938
 C     27  11  10     1.470617757951   122.43883677     1.29597346
 O     28  27  11     1.424869541397   109.90586232    66.45472332
 C     29  28  27     1.398473085190   123.04815541    74.74372539
 O     30  29  28     1.262466969865   120.60904067     6.62030563
 C     30  29  28     1.507952061572   119.28723068   184.14626503
 N     32  30  29     1.467814351340   110.08853002   128.79088810
 C     32  30  29     1.553475036813   111.31059744   251.95705160
 C     34  32  30     1.540215484924   111.47267195    58.65900328
 C     34  32  30     1.537898810065   110.99936276   180.87667945
 C      5   4   3     1.389732362723   120.02271210   178.59971154
 O     37   5   4     1.261558567804   120.39200212   179.58631680
 N     37   5   4     1.375894505404   118.49478364   359.84394988
 C     39  37   5     1.473215642735   119.94964860   178.61644010
 C     39  37   5     1.384816843485   120.22531963     2.08428847
 O     41  39  37     1.263097189451   119.80974089   176.69948303
 N      4   3   2     1.359174550968   126.66103582   178.94383613
 C     43   4   3     1.468168501910   120.67061929     2.83480407
 H      1   2   3     1.110689848698   109.92709333     1.26346762
 H      1   2   3     1.109939178514   109.77856869   121.01846279
 H      1   2   3     1.109202582940   109.74236582   241.43858991
 H      7   6   5     1.109174805880   110.53981911    35.81281581
 H      7   6   5     1.108579721987   108.82064725   153.11135647
 H     13  12  11     1.081500411465   125.61772706   180.52255862
 H     16  15  14     1.083536344568   120.35566343   358.42749804
 H     17  16  15     1.083838129058   118.95862808   179.64724593
 H     26  15  14     1.083782870320   119.38126315     1.10436554
 H     28  27  11     1.111594395452   109.24135761   307.32549014
 H     28  27  11     1.107048883293   112.58702618   188.93195805
 H     32  30  29     1.114146965171   108.21541833    11.04874193
 H     33  32  30     1.046699522308   109.70135049    59.36595250
 H     33  32  30     1.046679459051   108.79300544   301.86571670
 H     34  32  30     1.113655988176   108.95939341   299.45655337
 H     35  34  32     1.112217505707   110.35226536    55.62200839
 H     35  34  32     1.112280387312   110.66130332   175.96750816
 H     35  34  32     1.110280559138   110.52802794   294.92388712
 H     36  34  32     1.112777286792   110.81198908   298.83759395
 H     36  34  32     1.111122158001   110.09831249   178.35347669
 H     36  34  32     1.112367717978   110.79927511    59.70027027
 H     40  39  37     1.110824311041   109.60203281   267.56888286
 H     40  39  37     1.111362794051   111.59508978    28.49013017
 H     40  39  37     1.111405875457   110.95823257   146.85850525
 H     44  43   4     1.111178478013   111.47673295   340.97948568
 H     44  43   4     1.110772749036   110.39948498   221.94812774
 H     44  43   4     1.110332409686   109.53169466   101.78098237

---------------------------
INTERNAL COORDINATES (A.U.)
---------------------------
 C      0   0   0     0.000000000000     0.00000000     0.00000000
 C      1   0   0     2.822583131454     0.00000000     0.00000000
 O      2   1   0     2.494458804091   123.54377267     0.00000000
 C      3   2   1     2.480523785502   107.48978375   181.45148918
 C      4   3   2     2.571059424192   111.06139369   359.78214002
 C      5   4   3     2.616896066279   106.56911010   359.51315570
 C      6   5   4     2.838503793030   128.17178887   174.52644316
 C      7   6   5     2.837431372890   109.80741058   274.43548905
 O      8   7   6     2.380452187292   119.39102915    69.53505466
 N      8   7   6     2.706789854387   121.20050163   256.35195783
 C     10   8   7     2.460893062670   125.61974400   302.96038936
 S     11  10   8     3.184676944742   125.50238733   353.18878492
 C     12  11  10     3.174407284515    93.74282616   183.63051190
 C     13  12  11     2.634876808669   108.43446121   359.80894688
 C     14  13  12     2.792041233436   121.03700551   181.01351693
 C     15  14  13     2.638050136222   120.05784537   301.57597697
 C     16  15  14     2.635439309123   120.23157530   179.03619772
 C     17  16  15     2.648790409010   121.38575242   359.00990549
 O     18  17  16     2.666157042028   115.41066777   180.68846823
 C     19  18  17     2.690520935040   129.05332336   171.84781849
 F     20  19  18     2.611684003279   108.43042315   187.28924389
 F     20  19  18     2.612784098929   110.37055145    68.98935405
 F     20  19  18     2.614679007100   110.54554480   305.78695560
 C     18  17  16     2.692985945064   118.44908456     0.58578534
 Cl    24  18  17     3.324479699751   125.05585655   177.99499526
 C     15  14  13     2.645156466655   120.57615312   119.13792337
 N     11  10   8     2.566328520247   122.87958796   177.49376938
 C     27  11  10     2.779064810208   122.43883677     1.29597346
 O     28  27  11     2.692613209806   109.90586232    66.45472332
 C     29  28  27     2.642731136668   123.04815541    74.74372539
 O     30  29  28     2.385716826166   120.60904067     6.62030563
 C     30  29  28     2.849616419454   119.28723068   184.14626503
 N     32  30  29     2.773767139472   110.08853002   128.79088810
 C     32  30  29     2.935642375459   111.31059744   251.95705160
 C     34  32  30     2.910585453731   111.47267195    58.65900328
 C     34  32  30     2.906207572707   110.99936276   180.87667945
 C      5   4   3     2.626213564994   120.02271210   178.59971154
 O     37   5   4     2.384000195052   120.39200212   179.58631680
 N     37   5   4     2.600063804380   118.49478364   359.84394988
 C     39  37   5     2.783974100979   119.94964860   178.61644010
 C     39  37   5     2.616924579828   120.22531963     2.08428847
 O     41  39  37     2.386907768589   119.80974089   176.69948303
 N      4   3   2     2.568467669526   126.66103582   178.94383613
 C     43   4   3     2.774436387059   120.67061929     2.83480407
 H      1   2   3     2.098899633765   109.92709333     1.26346762
 H      1   2   3     2.097481072701   109.77856869   121.01846279
 H      1   2   3     2.096089108794   109.74236582   241.43858991
 H      7   6   5     2.096036617759   110.53981911    35.81281581
 H      7   6   5     2.094912072173   108.82064725   153.11135647
 H     13  12  11     2.043739591393   125.61772706   180.52255862
 H     16  15  14     2.047586947384   120.35566343   358.42749804
 H     17  16  15     2.048157237421   118.95862808   179.64724593
 H     26  15  14     2.048052813541   119.38126315     1.10436554
 H     28  27  11     2.100608979406   109.24135761   307.32549014
 H     28  27  11     2.092019206287   112.58702618   188.93195805
 H     32  30  29     2.105432637113   108.21541833    11.04874193
 H     33  32  30     1.977975441669   109.70135049    59.36595250
 H     33  32  30     1.977937527608   108.79300544   301.86571670
 H     34  32  30     2.104504825054   108.95939341   299.45655337
 H     35  34  32     2.101786487138   110.35226536    55.62200839
 H     35  34  32     2.101905316152   110.66130332   175.96750816
 H     35  34  32     2.098126188588   110.52802794   294.92388712
 H     36  34  32     2.102844320085   110.81198908   298.83759395
 H     36  34  32     2.099716579953   110.09831249   178.35347669
 H     36  34  32     2.102070347194   110.79927511    59.70027027
 H     40  39  37     2.099153730769   109.60203281   267.56888286
 H     40  39  37     2.100171316185   111.59508978    28.49013017
 H     40  39  37     2.100252728244   110.95823257   146.85850525
 H     44  43   4     2.099823009353   111.47673295   340.97948568
 H     44  43   4     2.099056292700   110.39948498   221.94812774
 H     44  43   4     2.098224171924   109.53169466   101.78098237

---------------------
BASIS SET INFORMATION
---------------------
There are 7 groups of distinct atoms

 Group   1 Type C   : 10s4p1d contracted to 3s2p1d pattern {631/31/1}
 Group   2 Type O   : 10s4p1d contracted to 3s2p1d pattern {631/31/1}
 Group   3 Type N   : 10s4p1d contracted to 3s2p1d pattern {631/31/1}
 Group   4 Type S   : 16s10p1d contracted to 4s3p1d pattern {6631/631/1}
 Group   5 Type F   : 10s4p1d contracted to 3s2p1d pattern {631/31/1}
 Group   6 Type Cl  : 16s10p1d contracted to 4s3p1d pattern {6631/631/1}
 Group   7 Type H   : 4s contracted to 2s pattern {31}

Atom   0C    basis set group =>   1
Atom   1C    basis set group =>   1
Atom   2O    basis set group =>   2
Atom   3C    basis set group =>   1
Atom   4C    basis set group =>   1
Atom   5C    basis set group =>   1
Atom   6C    basis set group =>   1
Atom   7C    basis set group =>   1
Atom   8O    basis set group =>   2
Atom   9N    basis set group =>   3
Atom  10C    basis set group =>   1
Atom  11S    basis set group =>   4
Atom  12C    basis set group =>   1
Atom  13C    basis set group =>   1
Atom  14C    basis set group =>   1
Atom  15C    basis set group =>   1
Atom  16C    basis set group =>   1
Atom  17C    basis set group =>   1
Atom  18O    basis set group =>   2
Atom  19C    basis set group =>   1
Atom  20F    basis set group =>   5
Atom  21F    basis set group =>   5
Atom  22F    basis set group =>   5
Atom  23C    basis set group =>   1
Atom  24Cl   basis set group =>   6
Atom  25C    basis set group =>   1
Atom  26N    basis set group =>   3
Atom  27C    basis set group =>   1
Atom  28O    basis set group =>   2
Atom  29C    basis set group =>   1
Atom  30O    basis set group =>   2
Atom  31C    basis set group =>   1
Atom  32N    basis set group =>   3
Atom  33C    basis set group =>   1
Atom  34C    basis set group =>   1
Atom  35C    basis set group =>   1
Atom  36C    basis set group =>   1
Atom  37O    basis set group =>   2
Atom  38N    basis set group =>   3
Atom  39C    basis set group =>   1
Atom  40C    basis set group =>   1
Atom  41O    basis set group =>   2
Atom  42N    basis set group =>   3
Atom  43C    basis set group =>   1
Atom  44H    basis set group =>   7
Atom  45H    basis set group =>   7
Atom  46H    basis set group =>   7
Atom  47H    basis set group =>   7
Atom  48H    basis set group =>   7
Atom  49H    basis set group =>   7
Atom  50H    basis set group =>   7
Atom  51H    basis set group =>   7
Atom  52H    basis set group =>   7
Atom  53H    basis set group =>   7
Atom  54H    basis set group =>   7
Atom  55H    basis set group =>   7
Atom  56H    basis set group =>   7
Atom  57H    basis set group =>   7
Atom  58H    basis set group =>   7
Atom  59H    basis set group =>   7
Atom  60H    basis set group =>   7
Atom  61H    basis set group =>   7
Atom  62H    basis set group =>   7
Atom  63H    basis set group =>   7
Atom  64H    basis set group =>   7
Atom  65H    basis set group =>   7
Atom  66H    basis set group =>   7
Atom  67H    basis set group =>   7
Atom  68H    basis set group =>   7
Atom  69H    basis set group =>   7
Atom  70H    basis set group =>   7
---------------------------------
AUXILIARY/J BASIS SET INFORMATION
---------------------------------
There are 7 groups of distinct atoms

 Group   1 Type C   : 12s5p4d2f1g contracted to 6s4p3d1f1g pattern {711111/2111/211/2/1}
 Group   2 Type O   : 12s5p4d2f1g contracted to 6s4p3d1f1g pattern {711111/2111/211/2/1}
 Group   3 Type N   : 12s5p4d2f1g contracted to 6s4p3d1f1g pattern {711111/2111/211/2/1}
 Group   4 Type S   : 14s5p5d2f1g contracted to 8s4p3d1f1g pattern {71111111/2111/311/2/1}
 Group   5 Type F   : 12s5p4d2f1g contracted to 6s4p3d1f1g pattern {711111/2111/211/2/1}
 Group   6 Type Cl  : 14s5p5d2f1g contracted to 8s4p3d1f1g pattern {71111111/2111/311/2/1}
 Group   7 Type H   : 5s2p1d contracted to 3s1p1d pattern {311/2/1}

Atom   0C    basis set group =>   1
Atom   1C    basis set group =>   1
Atom   2O    basis set group =>   2
Atom   3C    basis set group =>   1
Atom   4C    basis set group =>   1
Atom   5C    basis set group =>   1
Atom   6C    basis set group =>   1
Atom   7C    basis set group =>   1
Atom   8O    basis set group =>   2
Atom   9N    basis set group =>   3
Atom  10C    basis set group =>   1
Atom  11S    basis set group =>   4
Atom  12C    basis set group =>   1
Atom  13C    basis set group =>   1
Atom  14C    basis set group =>   1
Atom  15C    basis set group =>   1
Atom  16C    basis set group =>   1
Atom  17C    basis set group =>   1
Atom  18O    basis set group =>   2
Atom  19C    basis set group =>   1
Atom  20F    basis set group =>   5
Atom  21F    basis set group =>   5
Atom  22F    basis set group =>   5
Atom  23C    basis set group =>   1
Atom  24Cl   basis set group =>   6
Atom  25C    basis set group =>   1
Atom  26N    basis set group =>   3
Atom  27C    basis set group =>   1
Atom  28O    basis set group =>   2
Atom  29C    basis set group =>   1
Atom  30O    basis set group =>   2
Atom  31C    basis set group =>   1
Atom  32N    basis set group =>   3
Atom  33C    basis set group =>   1
Atom  34C    basis set group =>   1
Atom  35C    basis set group =>   1
Atom  36C    basis set group =>   1
Atom  37O    basis set group =>   2
Atom  38N    basis set group =>   3
Atom  39C    basis set group =>   1
Atom  40C    basis set group =>   1
Atom  41O    basis set group =>   2
Atom  42N    basis set group =>   3
Atom  43C    basis set group =>   1
Atom  44H    basis set group =>   7
Atom  45H    basis set group =>   7
Atom  46H    basis set group =>   7
Atom  47H    basis set group =>   7
Atom  48H    basis set group =>   7
Atom  49H    basis set group =>   7
Atom  50H    basis set group =>   7
Atom  51H    basis set group =>   7
Atom  52H    basis set group =>   7
Atom  53H    basis set group =>   7
Atom  54H    basis set group =>   7
Atom  55H    basis set group =>   7
Atom  56H    basis set group =>   7
Atom  57H    basis set group =>   7
Atom  58H    basis set group =>   7
Atom  59H    basis set group =>   7
Atom  60H    basis set group =>   7
Atom  61H    basis set group =>   7
Atom  62H    basis set group =>   7
Atom  63H    basis set group =>   7
Atom  64H    basis set group =>   7
Atom  65H    basis set group =>   7
Atom  66H    basis set group =>   7
Atom  67H    basis set group =>   7
Atom  68H    basis set group =>   7
Atom  69H    basis set group =>   7
Atom  70H    basis set group =>   7
------------------------------------------------------------------------------
                             ORCA STARTUP CALCULATIONS
                           -- RI-GTO INTEGRALS CHOSEN --
------------------------------------------------------------------------------
------------------------------------------------------------------------------
                   ___                                                        
                  /   \      - P O W E R E D   B Y -                         
                 /     \                                                     
                 |  |  |   _    _      __       _____    __    __             
                 |  |  |  | |  | |    /  \     |  _  \  |  |  /  |          
                  \  \/   | |  | |   /    \    | | | |  |  | /  /          
                 / \  \   | |__| |  /  /\  \   | |_| |  |  |/  /          
                |  |  |   |  __  | /  /__\  \  |    /   |      \           
                |  |  |   | |  | | |   __   |  |    \   |  |\   \          
                \     /   | |  | | |  |  |  |  | |\  \  |  | \   \       
                 \___/    |_|  |_| |__|  |__|  |_| \__\ |__|  \__/        
                                                                              
                      - O R C A' S   B I G   F R I E N D -                    
                                      &                                       
                       - I N T E G R A L  F E E D E R -                       
                                                                              
 v1 FN, 2020, v2 2021, v3 2022-2024                                           
------------------------------------------------------------------------------


----------------------
SHARK INTEGRAL PACKAGE
----------------------

Number of atoms                             ...     71
Number of basis functions                   ...    678
Number of shells                            ...    322
Maximum angular momentum                    ...      2
Integral batch strategy                     ... SHARK/LIBINT Hybrid
RI-J (if used) integral strategy            ... SPLIT-RIJ (Revised 2003 algorithm where possible)
Printlevel                                  ...      1
Contraction scheme used                     ... SEGMENTED contraction
Prescreening option                         ... SCHWARTZ
   Thresh                                   ... 1.000e-10
   Tcut                                     ... 1.000e-11
   Tpresel                                  ... 1.000e-11 
Coulomb Range Separation                    ... NOT USED
Exchange Range Separation                   ... NOT USED
Multipole approximations                    ... NOT USED
Finite Nucleus Model                        ... NOT USED
CABS basis                                  ... NOT available
Auxiliary Coulomb fitting basis             ... AVAILABLE
   # of basis functions in Aux-J            ...   2457
   # of shells in Aux-J                     ...    799
   Maximum angular momentum in Aux-J        ...      4
Auxiliary J/K fitting basis                 ... NOT available
Auxiliary Correlation fitting basis         ... NOT available
Auxiliary 'external' fitting basis          ... NOT available

Checking pre-screening integrals            ... done (  0.0 sec) Dimension = 322
Check shell pair data                       ... done (  0.0 sec)
Shell pair information
Shell pair cut-off parameter TPreSel        ...   1.0e-11
Total number of shell pairs                 ...     52003
Shell pairs after pre-screening             ...     21750
Total number of primitive shell pairs       ...    315093
Primitive shell pairs kept                  ...     66514
          la=0 lb=0:   6936 shell pairs
          la=1 lb=0:   7712 shell pairs
          la=1 lb=1:   2177 shell pairs
          la=2 lb=0:   2897 shell pairs
          la=2 lb=1:   1695 shell pairs
          la=2 lb=2:    333 shell pairs

Calculating one electron integrals          ... done (  0.4 sec)
Calculating RI/J V-Matrix + Cholesky decomp.... done (  1.0 sec)
Calculating Nuclear repulsion               ... done (  0.0 sec) ENN=   5722.846536121761 Eh

Diagonalization of the overlap matrix:
Smallest eigenvalue                        ... 3.862e-04
Time for diagonalization                   ...    0.093 sec
Threshold for overlap eigenvalues          ... 1.000e-07
Number of eigenvalues below threshold      ... 0
Time for construction of square roots      ...    0.059 sec
Total time needed                          ...    0.164 sec

-------------------
DFT GRID GENERATION
-------------------

General Integration Accuracy     IntAcc      ... 4.388
Radial Grid Type                 RadialGrid  ... OptM3 with GC (2021)
Angular Grid (max. ang.)         AngularGrid ... 4 (Lebedev-302)
Angular grid pruning method      GridPruning ... 4 (adaptive)
Weight generation scheme         WeightScheme... mBecke (2022)
Basis function cutoff            BFCut       ... 1.0000e-10
Integration weight cutoff        WCut        ... 1.0000e-14
Partially contracted basis set               ... off
Rotationally invariant grid construction     ... off
Angular grids for H and He will be reduced by one unit

Total number of grid points                  ...   351676
Total number of batches                      ...     5533
Average number of points per batch           ...       63
Average number of grid points per atom       ...     4953

--------------------
COSX GRID GENERATION
--------------------

GRIDX 1
-------
General Integration Accuracy     IntAcc      ... 3.816
Radial Grid Type                 RadialGrid  ... OptM3 with GC (2021)
Angular Grid (max. ang.)         AngularGrid ... 1 (Lebedev-50)
Angular grid pruning method      GridPruning ... 4 (adaptive)
Weight generation scheme         WeightScheme... mBecke (2022)
Basis function cutoff            BFCut       ... 1.0000e-10
Integration weight cutoff        WCut        ... 1.0000e-14
Partially contracted basis set               ... on
Rotationally invariant grid construction     ... off
Angular grids for H and He will be reduced by one unit

Total number of grid points                  ...    46609
Total number of batches                      ...      408
Average number of points per batch           ...      114
Average number of grid points per atom       ...      656
UseSFitting                                  ... on

GRIDX 2
-------
General Integration Accuracy     IntAcc      ... 4.020
Radial Grid Type                 RadialGrid  ... OptM3 with GC (2021)
Angular Grid (max. ang.)         AngularGrid ... 2 (Lebedev-110)
Angular grid pruning method      GridPruning ... 4 (adaptive)
Weight generation scheme         WeightScheme... mBecke (2022)
Basis function cutoff            BFCut       ... 1.0000e-10
Integration weight cutoff        WCut        ... 1.0000e-14
Partially contracted basis set               ... on
Rotationally invariant grid construction     ... off
Angular grids for H and He will be reduced by one unit

Total number of grid points                  ...    97091
Total number of batches                      ...      796
Average number of points per batch           ...      121
Average number of grid points per atom       ...     1367
UseSFitting                                  ... on

GRIDX 3
-------
General Integration Accuracy     IntAcc      ... 4.338
Radial Grid Type                 RadialGrid  ... OptM3 with GC (2021)
Angular Grid (max. ang.)         AngularGrid ... 3 (Lebedev-194)
Angular grid pruning method      GridPruning ... 4 (adaptive)
Weight generation scheme         WeightScheme... mBecke (2022)
Basis function cutoff            BFCut       ... 1.0000e-10
Integration weight cutoff        WCut        ... 1.0000e-14
Partially contracted basis set               ... on
Rotationally invariant grid construction     ... off
Angular grids for H and He will be reduced by one unit

Total number of grid points                  ...   213247
Total number of batches                      ...     1703
Average number of points per batch           ...      125
Average number of grid points per atom       ...     3003
UseSFitting                                  ... on
Initializing property integral containers    ... done (  0.0 sec)

SHARK setup successfully completed in  21.3 seconds

Maximum memory used throughout the entire STARTUP-calculation: 151.8 MB
-------------------------------------------------------------------------------
                                 ORCA GUESS
                   Start orbitals & Density for SCF / CASSCF
-------------------------------------------------------------------------------

------------
SCF SETTINGS
------------
Hamiltonian:
 Density Functional     Method          .... DFT(GTOs)
 Exchange Functional    Exchange        .... B88
   X-Alpha parameter    XAlpha          ....  0.666667
   Becke's b parameter  XBeta           ....  0.004200
 Correlation Functional Correlation     .... LYP
 LDA part of GGA corr.  LDAOpt          .... VWN-5
 Gradients option       PostSCFGGA      .... off
 Hybrid DFT is turned on
   Fraction HF Exchange ScalHFX         ....  0.200000
   Scaling of DF-GGA-X  ScalDFX         ....  0.720000
   Scaling of DF-GGA-C  ScalDFC         ....  0.810000
   Scaling of DF-LDA-C  ScalLDAC        ....  1.000000
   Perturbative correction              ....  0.000000
   NL short-range parameter             ....  4.800000
 RI-approximation to the Coulomb term is turned on
   Number of AuxJ basis functions       .... 2457
   RIJ-COSX (HFX calculated with COS-X)).... on


General Settings:
 Integral files         IntName         .... /home/nmrbox/aojoawo/Documents/ERDOS/inputs/CHEMBL3987098
 Hartree-Fock type      HFTyp           .... RHF
 Total Charge           Charge          ....    0
 Multiplicity           Mult            ....    1
 Number of Electrons    NEL             ....  340
 Basis Dimension        Dim             ....  678
 Nuclear Repulsion      ENuc            ....   5722.8465361218 Eh

Convergence Acceleration:
 AO-DIIS                CNVDIIS         .... on
   Start iteration      DIISMaxIt       ....    12
   Startup error        DIISStart       ....  0.200000
   # of expansion vecs  DIISMaxEq       ....     5
   Bias factor          DIISBfac        ....   1.050
   Max. coefficient     DIISMaxC        ....  10.000
 MO-DIIS                CNVKDIIS        .... off
 Trust-Rad. Augm. Hess. CNVTRAH         .... auto
   Auto Start mean grad. ratio tolernc. ....  1.125000
   Auto Start start iteration           ....    50
   Auto Start num. interpolation iter.  ....    10
   Max. Number of Micro iterations      ....    24
   Max. Number of Macro iterations      .... Maxiter - #DIIS iter
   Number of Davidson start vectors     ....     2
   Converg. threshold    (grad. norm)   ....   5.000e-05
   Grad. Scal. Fac. for Micro threshold ....   0.100
   Minimum threshold for Micro iter.    ....   1.000e-02
   NR start threshold (gradient norm)   ....   1.000e-04
   Initial trust radius                 ....   0.400
   Minimum AH scaling param. (alpha)    ....   1.000
   Maximum AH scaling param. (alpha)    .... 1000.000
   Quad. conv. algorithm                .... NR
   White noise on init. David. guess    .... on
   Maximum white noise                  ....   0.010
   Pseudo random numbers                .... off
   Inactive MOs                         .... canonical
   Orbital update algorithm             .... Taylor
   Preconditioner                       .... Diag
   Full preconditioner red. dimension   ....   250
 SOSCF                  CNVSOSCF        .... on
   Start iteration      SOSCFMaxIt      ....   150
   Startup grad/error   SOSCFStart      ....  0.003300
   Hessian update       SOSCFHessUp     .... L-BFGS
 Level Shifting         CNVShift        .... on
   Level shift para.    LevelShift      ....    0.2500
   Turn off err/grad.   ShiftErr        ....    0.0010
 Zerner damping         CNVZerner       .... off
 Static damping         CNVDamp         .... on
   Fraction old density DampFac         ....    0.7000
   Max. Damping (<1)    DampMax         ....    0.9800
   Min. Damping (>=0)   DampMin         ....    0.0000
   Turn off err/grad.   DampErr         ....    0.1000

SCF Procedure:
 Maximum # iterations   MaxIter         ....   125
 SCF integral mode      SCFMode         .... Direct
   Integral package                     .... SHARK and LIBINT hybrid scheme
 Reset frequency        DirectResetFreq ....    20
 Integral Threshold     Thresh          ....  1.000e-10 Eh
 Primitive CutOff       TCut            ....  1.000e-11 Eh

Convergence Tolerance:
 Convergence Check Mode ConvCheckMode   .... Total+1el-Energy
 Convergence forced     ConvForced      .... 0
 Energy Change          TolE            ....  1.000e-06 Eh
 1-El. energy change                    ....  1.000e-03 Eh
 Orbital Gradient       TolG            ....  5.000e-05
 Orbital Rotation angle TolX            ....  5.000e-05
 DIIS Error             TolErr          ....  1.000e-06

------------------------------
INITIAL GUESS: MODEL POTENTIAL
------------------------------
Loading Hartree-Fock densities                     ... done
Calculating cut-offs                               ... done
Initializing the effective Hamiltonian             ... done
Setting up the integral package (SHARK)            ... done
Starting the Coulomb interaction                   ... done (   6.9 sec)
Making the grid                                    ... done (   2.4 sec)
Mapping shells                                     ... done
Starting the XC term evaluation                    ... done (   1.6 sec)
  promolecular density results
     # of electrons  =    339.980035453
     EX              =   -319.897787573
     EC              =    -12.102647752
     EX+EC           =   -332.000435325
Transforming the Hamiltonian                       ... done (   0.0 sec)
Diagonalizing the Hamiltonian                      ... done (   0.1 sec)
Back transforming the eigenvectors                 ... done (   0.0 sec)
Now organizing SCF variables                       ... done
                      ------------------
                      INITIAL GUESS DONE (  11.2 sec)
                      ------------------
             **** ENERGY FILE WAS UPDATED (/home/nmrbox/aojoawo/Documents/ERDOS/inputs/CHEMBL3987098.en.tmp) ****
Finished Guess after  11.6 sec
Maximum memory used throughout the entire GUESS-calculation: 82.9 MB

-------------------------------------------------------------------------------------------
                                      ORCA LEAN-SCF
                              memory conserving SCF solver
-------------------------------------------------------------------------------------------

----------------------------------------D-I-I-S--------------------------------------------
Iteration    Energy (Eh)           Delta-E    RMSDP     MaxDP     DIISErr   Damp  Time(sec)
-------------------------------------------------------------------------------------------
               ***  Starting incremental Fock matrix formation  ***
    1    -3000.7197876963500676     0.00e+00  2.11e-03  1.24e-01  2.92e-01  0.700  96.7
    2    -3001.3468469114714026    -6.27e-01  1.29e-03  6.32e-02  1.08e-01  0.700  42.5
                               ***Turning on AO-DIIS***
    3    -3001.5524573450684329    -2.06e-01  5.02e-04  2.10e-02  3.55e-02  0.700  41.1
    4    -3001.6871436670417097    -1.35e-01  8.92e-04  5.97e-02  1.71e-02  0.000  37.3
    5    -3001.9964235230045233    -3.09e-01  2.16e-04  1.10e-02  9.23e-03  0.000  40.0
    6    -3001.9990792632661396    -2.66e-03  7.89e-05  4.82e-03  4.43e-03  0.000  33.3
                              *** Initializing SOSCF ***
---------------------------------------S-O-S-C-F--------------------------------------
Iteration    Energy (Eh)           Delta-E    RMSDP     MaxDP     MaxGrad    Time(sec)
--------------------------------------------------------------------------------------
    7    -3001.9992985238759502    -2.19e-04  2.76e-05  1.34e-03  2.37e-03    30.0
               *** Restarting incremental Fock matrix formation ***
    8    -3001.9993217904220728    -2.33e-05  2.53e-05  1.12e-03  1.99e-04    96.7
    9    -3001.9993234070689141    -1.62e-06  1.34e-05  6.85e-04  3.49e-04    48.0
   10    -3001.9993302665106967    -6.86e-06  7.83e-06  3.65e-04  1.02e-04    42.5
   11    -3001.9993305251437050    -2.59e-07  3.01e-06  1.69e-04  4.63e-05    39.1
                 **** Energy Check signals convergence ****

               *****************************************************
               *                     SUCCESS                       *
               *           SCF CONVERGED AFTER  11 CYCLES          *
               *****************************************************

Recomputing exchange energy using gridx3       ... done (  167.569 sec)
Old exchange energy                            :    -64.601859790 Eh
New exchange energy                            :    -64.601931568 Eh
Exchange energy change after final integration :     -0.000071778 Eh
Total energy after final integration           :  -3001.999402303 Eh
             **** ENERGY FILE WAS UPDATED (/home/nmrbox/aojoawo/Documents/ERDOS/inputs/CHEMBL3987098.en.tmp) ****

----------------
TOTAL SCF ENERGY
----------------

Total Energy       :      -3001.99940230296170 Eh          -81688.55670 eV

Components:
Nuclear Repulsion  :       5722.84653612176135 Eh          155726.57123 eV
Electronic Energy  :      -8724.84586664690505 Eh         -237415.12598 eV
One Electron Energy:     -15515.46063967122973 Eh         -422197.14809 eV
Two Electron Energy:       6790.61477302432468 Eh          184782.02211 eV

Virial components:
Potential Energy   :      -5989.41188676660295 Eh         -162980.18319 eV
Kinetic Energy     :       2987.41248446364125 Eh           81291.62649 eV
Virial Ratio       :          2.00488279335886

DFT components:
N(Alpha)           :      170.000160829969 electrons
N(Beta)            :      170.000160829969 electrons
N(Total)           :      340.000321659937 electrons
E(X)               :     -256.818256774763 Eh       
E(C)               :      -14.198068882502 Eh       
E(XC)              :     -271.016325657265 Eh       

---------------
SCF CONVERGENCE
---------------

  Last Energy change         ...    2.5863e-07  Tolerance :   1.0000e-06
  Last MAX-Density change    ...    1.6920e-04  Tolerance :   1.0000e-05
  Last RMS-Density change    ...    3.0133e-06  Tolerance :   1.0000e-06
  Last DIIS Error            ...    2.3728e-03  Tolerance :   1.0000e-06
  Last Orbital Gradient      ...    4.6263e-05  Tolerance :   5.0000e-05
  Last Orbital Rotation      ...    8.4873e-05  Tolerance :   5.0000e-05


----------------
ORBITAL ENERGIES
----------------

  NO   OCC          E(Eh)            E(eV) 
   0   2.0000    -101.544818     -2763.1750 
   1   2.0000     -88.906808     -2419.2772 
   2   2.0000     -24.744236      -673.3249 
   3   2.0000     -24.741512      -673.2508 
   4   2.0000     -24.739894      -673.2067 
   5   2.0000     -19.240747      -523.5673 
   6   2.0000     -19.227673      -523.2116 
   7   2.0000     -19.203973      -522.5667 
   8   2.0000     -19.146415      -521.0004 
   9   2.0000     -19.103904      -519.8437 
  10   2.0000     -19.101741      -519.7848 
  11   2.0000     -19.089917      -519.4630 
  12   2.0000     -14.417717      -392.3260 
  13   2.0000     -14.402956      -391.9244 
  14   2.0000     -14.382672      -391.3724 
  15   2.0000     -14.322999      -389.7486 
  16   2.0000     -14.317706      -389.6046 
  17   2.0000     -10.510968      -286.0180 
  18   2.0000     -10.328945      -281.0649 
  19   2.0000     -10.319836      -280.8170 
  20   2.0000     -10.310801      -280.5712 
  21   2.0000     -10.301528      -280.3188 
  22   2.0000     -10.299500      -280.2636 
  23   2.0000     -10.286416      -279.9076 
  24   2.0000     -10.278562      -279.6939 
  25   2.0000     -10.277047      -279.6527 
  26   2.0000     -10.272512      -279.5293 
  27   2.0000     -10.262852      -279.2664 
  28   2.0000     -10.240138      -278.6483 
  29   2.0000     -10.232749      -278.4473 
  30   2.0000     -10.231518      -278.4138 
  31   2.0000     -10.229038      -278.3463 
  32   2.0000     -10.227546      -278.3057 
  33   2.0000     -10.224493      -278.2226 
  34   2.0000     -10.218884      -278.0700 
  35   2.0000     -10.216496      -278.0050 
  36   2.0000     -10.207291      -277.7545 
  37   2.0000     -10.197326      -277.4834 
  38   2.0000     -10.195302      -277.4283 
  39   2.0000     -10.188137      -277.2333 
  40   2.0000     -10.187023      -277.2030 
  41   2.0000     -10.174939      -276.8742 
  42   2.0000     -10.174112      -276.8517 
  43   2.0000     -10.166059      -276.6325 
  44   2.0000      -9.476834      -257.8778 
  45   2.0000      -7.986073      -217.3121 
  46   2.0000      -7.240271      -197.0178 
  47   2.0000      -7.230277      -196.7459 
  48   2.0000      -7.229759      -196.7317 
  49   2.0000      -5.949518      -161.8946 
  50   2.0000      -5.945270      -161.7790 
  51   2.0000      -5.941797      -161.6845 
  52   2.0000      -1.307501       -35.5789 
  53   2.0000      -1.228107       -33.4185 
  54   2.0000      -1.226426       -33.3727 
  55   2.0000      -1.170498       -31.8509 
  56   2.0000      -1.103592       -30.0303 
  57   2.0000      -1.095218       -29.8024 
  58   2.0000      -1.056521       -28.7494 
  59   2.0000      -1.042099       -28.3569 
  60   2.0000      -1.008357       -27.4388 
  61   2.0000      -1.002701       -27.2849 
  62   2.0000      -0.994515       -27.0621 
  63   2.0000      -0.965744       -26.2792 
  64   2.0000      -0.924240       -25.1498 
  65   2.0000      -0.913072       -24.8460 
  66   2.0000      -0.901720       -24.5370 
  67   2.0000      -0.893598       -24.3160 
  68   2.0000      -0.866730       -23.5849 
  69   2.0000      -0.859255       -23.3815 
  70   2.0000      -0.839638       -22.8477 
  71   2.0000      -0.809653       -22.0318 
  72   2.0000      -0.797842       -21.7104 
  73   2.0000      -0.792578       -21.5671 
  74   2.0000      -0.763309       -20.7707 
  75   2.0000      -0.757792       -20.6206 
  76   2.0000      -0.756594       -20.5880 
  77   2.0000      -0.747303       -20.3352 
  78   2.0000      -0.729015       -19.8375 
  79   2.0000      -0.714711       -19.4483 
  80   2.0000      -0.705831       -19.2066 
  81   2.0000      -0.698885       -19.0176 
  82   2.0000      -0.691512       -18.8170 
  83   2.0000      -0.675426       -18.3793 
  84   2.0000      -0.656375       -17.8609 
  85   2.0000      -0.650741       -17.7076 
  86   2.0000      -0.648141       -17.6368 
  87   2.0000      -0.640259       -17.4223 
  88   2.0000      -0.619625       -16.8608 
  89   2.0000      -0.617160       -16.7938 
  90   2.0000      -0.602802       -16.4031 
  91   2.0000      -0.600146       -16.3308 
  92   2.0000      -0.599860       -16.3230 
  93   2.0000      -0.595673       -16.2091 
  94   2.0000      -0.583542       -15.8790 
  95   2.0000      -0.574125       -15.6227 
  96   2.0000      -0.564690       -15.3660 
  97   2.0000      -0.555126       -15.1057 
  98   2.0000      -0.531579       -14.4650 
  99   2.0000      -0.525446       -14.2981 
 100   2.0000      -0.521297       -14.1852 
 101   2.0000      -0.519197       -14.1281 
 102   2.0000      -0.517303       -14.0765 
 103   2.0000      -0.503473       -13.7002 
 104   2.0000      -0.495329       -13.4786 
 105   2.0000      -0.489327       -13.3153 
 106   2.0000      -0.483880       -13.1670 
 107   2.0000      -0.481719       -13.1082 
 108   2.0000      -0.479742       -13.0544 
 109   2.0000      -0.476614       -12.9693 
 110   2.0000      -0.475703       -12.9445 
 111   2.0000      -0.471557       -12.8317 
 112   2.0000      -0.468564       -12.7503 
 113   2.0000      -0.465585       -12.6692 
 114   2.0000      -0.461824       -12.5669 
 115   2.0000      -0.461561       -12.5597 
 116   2.0000      -0.459753       -12.5105 
 117   2.0000      -0.453455       -12.3391 
 118   2.0000      -0.452389       -12.3101 
 119   2.0000      -0.450472       -12.2580 
 120   2.0000      -0.443291       -12.0626 
 121   2.0000      -0.440126       -11.9764 
 122   2.0000      -0.437501       -11.9050 
 123   2.0000      -0.436165       -11.8687 
 124   2.0000      -0.428919       -11.6715 
 125   2.0000      -0.426413       -11.6033 
 126   2.0000      -0.424554       -11.5527 
 127   2.0000      -0.420916       -11.4537 
 128   2.0000      -0.418670       -11.3926 
 129   2.0000      -0.417210       -11.3529 
 130   2.0000      -0.416059       -11.3216 
 131   2.0000      -0.408433       -11.1140 
 132   2.0000      -0.406139       -11.0516 
 133   2.0000      -0.404579       -11.0092 
 134   2.0000      -0.397852       -10.8261 
 135   2.0000      -0.394762       -10.7420 
 136   2.0000      -0.391054       -10.6411 
 137   2.0000      -0.388301       -10.5662 
 138   2.0000      -0.388191       -10.5632 
 139   2.0000      -0.384113       -10.4523 
 140   2.0000      -0.383011       -10.4223 
 141   2.0000      -0.378171       -10.2905 
 142   2.0000      -0.376609       -10.2480 
 143   2.0000      -0.375385       -10.2147 
 144   2.0000      -0.373976       -10.1764 
 145   2.0000      -0.367459        -9.9991 
 146   2.0000      -0.363728        -9.8976 
 147   2.0000      -0.352790        -9.5999 
 148   2.0000      -0.347073        -9.4443 
 149   2.0000      -0.342569        -9.3218 
 150   2.0000      -0.338981        -9.2241 
 151   2.0000      -0.331374        -9.0172 
 152   2.0000      -0.329689        -8.9713 
 153   2.0000      -0.328091        -8.9278 
 154   2.0000      -0.323997        -8.8164 
 155   2.0000      -0.316611        -8.6154 
 156   2.0000      -0.315748        -8.5919 
 157   2.0000      -0.311124        -8.4661 
 158   2.0000      -0.283859        -7.7242 
 159   2.0000      -0.275785        -7.5045 
 160   2.0000      -0.272078        -7.4036 
 161   2.0000      -0.264866        -7.2074 
 162   2.0000      -0.263710        -7.1759 
 163   2.0000      -0.258979        -7.0472 
 164   2.0000      -0.251474        -6.8430 
 165   2.0000      -0.247810        -6.7433 
 166   2.0000      -0.233736        -6.3603 
 167   2.0000      -0.225048        -6.1239 
 168   2.0000      -0.207422        -5.6442 
 169   2.0000      -0.193470        -5.2646 
 170   0.0000      -0.045855        -1.2478 
 171   0.0000      -0.038185        -1.0391 
 172   0.0000      -0.028382        -0.7723 
 173   0.0000      -0.024381        -0.6634 
 174   0.0000      -0.005643        -0.1536 
 175   0.0000      -0.004221        -0.1149 
 176   0.0000       0.004231         0.1151 
 177   0.0000       0.007019         0.1910 
 178   0.0000       0.018201         0.4953 
 179   0.0000       0.036047         0.9809 
 180   0.0000       0.053685         1.4609 
*Only the first 10 virtual orbitals were printed.

                    ********************************
                    * MULLIKEN POPULATION ANALYSIS *
                    ********************************

-----------------------
MULLIKEN ATOMIC CHARGES
-----------------------
   0 C :   -0.538725
   1 C :    0.255163
   2 O :   -0.409133
   3 C :    0.476350
   4 C :    0.045357
   5 C :    0.028293
   6 C :   -0.414339
   7 C :    0.461332
   8 O :   -0.421813
   9 N :   -0.455273
  10 C :    0.239012
  11 S :    0.272750
  12 C :   -0.388439
  13 C :    0.230455
  14 C :    0.099375
  15 C :   -0.117880
  16 C :   -0.169632
  17 C :    0.358178
  18 O :   -0.545454
  19 C :    1.083785
  20 F :   -0.279566
  21 F :   -0.279202
  22 F :   -0.282652
  23 C :   -0.127327
  24 Cl:    0.013381
  25 C :   -0.170695
  26 N :   -0.401682
  27 C :    0.070974
  28 O :   -0.454366
  29 C :    0.575204
  30 O :   -0.474677
  31 C :   -0.031540
  32 N :   -0.696066
  33 C :   -0.075696
  34 C :   -0.450051
  35 C :   -0.431668
  36 C :    0.512446
  37 O :   -0.494022
  38 N :   -0.483538
  39 C :   -0.313106
  40 C :    0.674971
  41 O :   -0.510494
  42 N :   -0.503100
  43 C :   -0.326062
  44 H :    0.162658
  45 H :    0.178214
  46 H :    0.171799
  47 H :    0.209990
  48 H :    0.138204
  49 H :    0.194301
  50 H :    0.155046
  51 H :    0.167207
  52 H :    0.162421
  53 H :    0.196896
  54 H :    0.191997
  55 H :    0.165525
  56 H :    0.307419
  57 H :    0.307505
  58 H :    0.135444
  59 H :    0.148781
  60 H :    0.148056
  61 H :    0.142934
  62 H :    0.140220
  63 H :    0.136883
  64 H :    0.165649
  65 H :    0.171540
  66 H :    0.200898
  67 H :    0.187847
  68 H :    0.178953
  69 H :    0.200059
  70 H :    0.182727
Sum of atomic charges:    0.0000000

--------------------------------
MULLIKEN REDUCED ORBITAL CHARGES
--------------------------------
  0 C s       :     3.315365  s :     3.315365
      pz      :     1.072925  p :     3.188455
      px      :     1.070788
      py      :     1.044743
      dz2     :     0.007911  d :     0.034904
      dxz     :     0.003498
      dyz     :     0.007026
      dx2y2   :     0.009530
      dxy     :     0.006939

  1 C s       :     3.065373  s :     3.065373
      pz      :     0.881611  p :     2.607430
      px      :     0.781626
      py      :     0.944193
      dz2     :     0.013873  d :     0.072034
      dxz     :     0.017992
      dyz     :     0.014620
      dx2y2   :     0.012887
      dxy     :     0.012662

  2 O s       :     3.829992  s :     3.829992
      pz      :     1.621669  p :     4.538393
      px      :     1.430810
      py      :     1.485914
      dz2     :     0.007017  d :     0.040748
      dxz     :     0.010126
      dyz     :     0.009033
      dx2y2   :     0.010520
      dxy     :     0.004052

  3 C s       :     2.947121  s :     2.947121
      pz      :     0.889559  p :     2.481636
      px      :     0.802536
      py      :     0.789542
      dz2     :     0.018154  d :     0.094893
      dxz     :     0.019175
      dyz     :     0.019927
      dx2y2   :     0.019991
      dxy     :     0.017645

  4 C s       :     3.118604  s :     3.118604
      pz      :     0.822481  p :     2.793448
      px      :     0.985787
      py      :     0.985181
      dz2     :     0.009023  d :     0.042590
      dxz     :     0.009950
      dyz     :     0.008481
      dx2y2   :     0.008353
      dxy     :     0.006784

  5 C s       :     3.158330  s :     3.158330
      pz      :     0.844435  p :     2.769485
      px      :     0.945094
      py      :     0.979956
      dz2     :     0.011759  d :     0.043892
      dxz     :     0.008892
      dyz     :     0.007151
      dx2y2   :     0.008076
      dxy     :     0.008014

  6 C s       :     3.266626  s :     3.266626
      pz      :     1.093593  p :     3.108058
      px      :     1.008982
      py      :     1.005484
      dz2     :     0.010660  d :     0.039654
      dxz     :     0.008633
      dyz     :     0.003037
      dx2y2   :     0.008082
      dxy     :     0.009242

  7 C s       :     3.043043  s :     3.043043
      pz      :     0.779899  p :     2.395518
      px      :     0.811917
      py      :     0.803703
      dz2     :     0.008256  d :     0.100106
      dxz     :     0.010480
      dyz     :     0.017373
      dx2y2   :     0.027423
      dxy     :     0.036574

  8 O s       :     3.889083  s :     3.889083
      pz      :     1.401857  p :     4.507259
      px      :     1.747812
      py      :     1.357590
      dz2     :     0.002793  d :     0.025471
      dxz     :     0.000385
      dyz     :     0.008920
      dx2y2   :     0.007168
      dxy     :     0.006204

  9 N s       :     3.691451  s :     3.691451
      pz      :     1.401009  p :     3.732395
      px      :     1.121831
      py      :     1.209555
      dz2     :     0.004862  d :     0.031427
      dxz     :     0.007511
      dyz     :     0.005575
      dx2y2   :     0.008512
      dxy     :     0.004967

 10 C s       :     3.018946  s :     3.018946
      pz      :     0.883242  p :     2.654079
      px      :     0.869615
      py      :     0.901221
      dz2     :     0.015362  d :     0.087963
      dxz     :     0.016709
      dyz     :     0.017312
      dx2y2   :     0.024475
      dxy     :     0.014105

 11 S s       :     5.809456  s :     5.809456
      pz      :     3.243456  p :     9.814819
      px      :     3.279513
      py      :     3.291851
      dz2     :     0.026177  d :     0.102975
      dxz     :     0.013523
      dyz     :     0.021420
      dx2y2   :     0.019850
      dxy     :     0.022004

 12 C s       :     3.265432  s :     3.265432
      pz      :     1.054726  p :     3.088006
      px      :     0.956747
      py      :     1.076533
      dz2     :     0.007406  d :     0.035001
      dxz     :     0.005963
      dyz     :     0.008457
      dx2y2   :     0.005998
      dxy     :     0.007177

 13 C s       :     3.038242  s :     3.038242
      pz      :     0.877584  p :     2.672135
      px      :     0.921149
      py      :     0.873401
      dz2     :     0.012229  d :     0.059168
      dxz     :     0.014123
      dyz     :     0.010204
      dx2y2   :     0.011516
      dxy     :     0.011097

 14 C s       :     3.111660  s :     3.111660
      pz      :     0.890688  p :     2.746865
      px      :     0.902756
      py      :     0.953421
      dz2     :     0.009544  d :     0.042100
      dxz     :     0.010126
      dyz     :     0.006736
      dx2y2   :     0.007941
      dxy     :     0.007753

 15 C s       :     3.189485  s :     3.189485
      pz      :     0.980238  p :     2.891667
      px      :     0.941889
      py      :     0.969540
      dz2     :     0.007857  d :     0.036727
      dxz     :     0.008856
      dyz     :     0.006055
      dx2y2   :     0.006810
      dxy     :     0.007149

 16 C s       :     3.202040  s :     3.202040
      pz      :     0.945843  p :     2.933135
      px      :     0.995934
      py      :     0.991358
      dz2     :     0.007087  d :     0.034456
      dxz     :     0.009945
      dyz     :     0.005513
      dx2y2   :     0.007514
      dxy     :     0.004397

 17 C s       :     3.086666  s :     3.086666
      pz      :     0.888922  p :     2.490927
      px      :     0.682427
      py      :     0.919579
      dz2     :     0.012241  d :     0.064229
      dxz     :     0.016704
      dyz     :     0.007121
      dx2y2   :     0.013377
      dxy     :     0.014785

 18 O s       :     3.883728  s :     3.883728
      pz      :     1.565825  p :     4.636618
      px      :     1.494267
      py      :     1.576526
      dz2     :     0.005251  d :     0.025108
      dxz     :     0.003542
      dyz     :     0.005866
      dx2y2   :     0.006205
      dxy     :     0.004245

 19 C s       :     2.716050  s :     2.716050
      pz      :     0.699093  p :     2.034631
      px      :     0.643410
      py      :     0.692128
      dz2     :     0.036526  d :     0.165534
      dxz     :     0.024746
      dyz     :     0.037755
      dx2y2   :     0.030917
      dxy     :     0.035589

 20 F s       :     3.979342  s :     3.979342
      pz      :     1.901577  p :     5.284074
      px      :     1.520771
      py      :     1.861727
      dz2     :     0.002332  d :     0.016149
      dxz     :     0.003275
      dyz     :     0.000664
      dx2y2   :     0.005304
      dxy     :     0.004574

 21 F s       :     3.981829  s :     3.981829
      pz      :     1.564395  p :     5.280882
      px      :     1.907882
      py      :     1.808605
      dz2     :     0.005632  d :     0.016492
      dxz     :     0.002944
      dyz     :     0.005696
      dx2y2   :     0.001234
      dxy     :     0.000986

 22 F s       :     3.981883  s :     3.981883
      pz      :     1.908444  p :     5.284297
      px      :     1.743752
      py      :     1.632101
      dz2     :     0.002348  d :     0.016472
      dxz     :     0.001405
      dyz     :     0.002409
      dx2y2   :     0.003878
      dxy     :     0.006432

 23 C s       :     3.173320  s :     3.173320
      pz      :     0.851147  p :     2.907299
      px      :     1.021574
      py      :     1.034578
      dz2     :     0.011047  d :     0.046709
      dxz     :     0.012367
      dyz     :     0.008052
      dx2y2   :     0.007581
      dxy     :     0.007662

 24 Cls       :     5.931238  s :     5.931238
      pz      :     3.302505  p :    11.024945
      px      :     3.938068
      py      :     3.784373
      dz2     :     0.012521  d :     0.030435
      dxz     :     0.003534
      dyz     :     0.011218
      dx2y2   :     0.001989
      dxy     :     0.001173

 25 C s       :     3.205880  s :     3.205880
      pz      :     0.976732  p :     2.929003
      px      :     0.973078
      py      :     0.979193
      dz2     :     0.006898  d :     0.035812
      dxz     :     0.011389
      dyz     :     0.004987
      dx2y2   :     0.007372
      dxy     :     0.005166

 26 N s       :     3.560789  s :     3.560789
      pz      :     1.221396  p :     3.800262
      px      :     1.238194
      py      :     1.340672
      dz2     :     0.007420  d :     0.040631
      dxz     :     0.010398
      dyz     :     0.007704
      dx2y2   :     0.008993
      dxy     :     0.006117

 27 C s       :     3.159351  s :     3.159351
      pz      :     0.887982  p :     2.692590
      px      :     1.064968
      py      :     0.739640
      dz2     :     0.013600  d :     0.077085
      dxz     :     0.015122
      dyz     :     0.017528
      dx2y2   :     0.014721
      dxy     :     0.016114

 28 O s       :     3.862710  s :     3.862710
      pz      :     1.651353  p :     4.566631
      px      :     1.502325
      py      :     1.412952
      dz2     :     0.003668  d :     0.025026
      dxz     :     0.005301
      dyz     :     0.002823
      dx2y2   :     0.009134
      dxy     :     0.004100

 29 C s       :     3.039172  s :     3.039172
      pz      :     0.747168  p :     2.277322
      px      :     0.672543
      py      :     0.857611
      dz2     :     0.011658  d :     0.108302
      dxz     :     0.020034
      dyz     :     0.012702
      dx2y2   :     0.038006
      dxy     :     0.025903

 30 O s       :     3.893612  s :     3.893612
      pz      :     1.481083  p :     4.555602
      px      :     1.511015
      py      :     1.563504
      dz2     :     0.003013  d :     0.025463
      dxz     :     0.004040
      dyz     :     0.004853
      dx2y2   :     0.006333
      dxy     :     0.007225

 31 C s       :     3.206750  s :     3.206750
      pz      :     0.834915  p :     2.765930
      px      :     1.041065
      py      :     0.889951
      dz2     :     0.016481  d :     0.058860
      dxz     :     0.009769
      dyz     :     0.013101
      dx2y2   :     0.009484
      dxy     :     0.010025

 32 N s       :     3.673173  s :     3.673173
      pz      :     1.108073  p :     3.990152
      px      :     1.184640
      py      :     1.697438
      dz2     :     0.007128  d :     0.032741
      dxz     :     0.007309
      dyz     :     0.005794
      dx2y2   :     0.001299
      dxy     :     0.011212

 33 C s       :     3.218522  s :     3.218522
      pz      :     0.901403  p :     2.813255
      px      :     0.954425
      py      :     0.957427
      dz2     :     0.010620  d :     0.043920
      dxz     :     0.007884
      dyz     :     0.007100
      dx2y2   :     0.007197
      dxy     :     0.011118

 34 C s       :     3.310878  s :     3.310878
      pz      :     0.976612  p :     3.105062
      px      :     1.063554
      py      :     1.064896
      dz2     :     0.008039  d :     0.034111
      dxz     :     0.007097
      dyz     :     0.005757
      dx2y2   :     0.007343
      dxy     :     0.005875

 35 C s       :     3.304521  s :     3.304521
      pz      :     1.077869  p :     3.093095
      px      :     1.054527
      py      :     0.960700
      dz2     :     0.008784  d :     0.034051
      dxz     :     0.006619
      dyz     :     0.003961
      dx2y2   :     0.005315
      dxy     :     0.009372

 36 C s       :     2.956415  s :     2.956415
      pz      :     0.805543  p :     2.422666
      px      :     0.757572
      py      :     0.859551
      dz2     :     0.026507  d :     0.108474
      dxz     :     0.024226
      dyz     :     0.026597
      dx2y2   :     0.016525
      dxy     :     0.014619

 37 O s       :     3.887560  s :     3.887560
      pz      :     1.396043  p :     4.580999
      px      :     1.562932
      py      :     1.622024
      dz2     :     0.008786  d :     0.025462
      dxz     :     0.007556
      dyz     :     0.005714
      dx2y2   :     0.001684
      dxy     :     0.001723

 38 N s       :     3.609204  s :     3.609204
      pz      :     1.179620  p :     3.836927
      px      :     1.297504
      py      :     1.359803
      dz2     :     0.009324  d :     0.037407
      dxz     :     0.008340
      dyz     :     0.006622
      dx2y2   :     0.006091
      dxy     :     0.007031

 39 C s       :     3.267066  s :     3.267066
      pz      :     0.954592  p :     3.000768
      px      :     1.066486
      py      :     0.979690
      dz2     :     0.003441  d :     0.045272
      dxz     :     0.013315
      dyz     :     0.013235
      dx2y2   :     0.007094
      dxy     :     0.008187

 40 C s       :     2.848388  s :     2.848388
      pz      :     0.776724  p :     2.354571
      px      :     0.771343
      py      :     0.806505
      dz2     :     0.022036  d :     0.122069
      dxz     :     0.033899
      dyz     :     0.021965
      dx2y2   :     0.025587
      dxy     :     0.018582

 41 O s       :     3.885724  s :     3.885724
      pz      :     1.726115  p :     4.599233
[...]
      px      :     0.941591
      py      :     0.909095
      dz2     :     0.052312  d :     0.283128
      dxz     :     0.079707
      dyz     :     0.051086
      dx2y2   :     0.055168
      dxy     :     0.044855

 41 O s       :     3.585682  s :     3.585682
      pz      :     1.726836  p :     4.682251
      px      :     1.436218
      py      :     1.519197
      dz2     :     0.006707  d :     0.050356
      dxz     :     0.007955
      dyz     :     0.004416
      dx2y2   :     0.013571
      dxy     :     0.017706

 42 N s       :     3.060598  s :     3.060598
      pz      :     1.218845  p :     3.861699
      px      :     1.295497
      py      :     1.347358
      dz2     :     0.022094  d :     0.103470
      dxz     :     0.022593
      dyz     :     0.022085
      dx2y2   :     0.019356
      dxy     :     0.017342

 43 C s       :     2.970327  s :     2.970327
      pz      :     0.944767  p :     3.197420
      px      :     1.092471
      py      :     1.160182
      dz2     :     0.023753  d :     0.091586
      dxz     :     0.024330
      dyz     :     0.016728
      dx2y2   :     0.009545
      dxy     :     0.017230

 44 H s       :     0.858491  s :     0.858491

 45 H s       :     0.855867  s :     0.855867

 46 H s       :     0.857861  s :     0.857861

 47 H s       :     0.828660  s :     0.828660

 48 H s       :     0.872316  s :     0.872316

 49 H s       :     0.831883  s :     0.831883

 50 H s       :     0.851804  s :     0.851804

 51 H s       :     0.844440  s :     0.844440

 52 H s       :     0.851813  s :     0.851813

 53 H s       :     0.847486  s :     0.847486

 54 H s       :     0.851194  s :     0.851194

 55 H s       :     0.859157  s :     0.859157

 56 H s       :     0.768167  s :     0.768167

 57 H s       :     0.767120  s :     0.767120

 58 H s       :     0.876483  s :     0.876483

 59 H s       :     0.873699  s :     0.873699

 60 H s       :     0.871877  s :     0.871877

 61 H s       :     0.877991  s :     0.877991

 62 H s       :     0.876594  s :     0.876594

 63 H s       :     0.878009  s :     0.878009

 64 H s       :     0.865355  s :     0.865355

 65 H s       :     0.863049  s :     0.863049

 66 H s       :     0.844233  s :     0.844233

 67 H s       :     0.851549  s :     0.851549

 68 H s       :     0.856850  s :     0.856850

 69 H s       :     0.845687  s :     0.845687

 70 H s       :     0.859143  s :     0.859143



                      *****************************
                      * MAYER POPULATION ANALYSIS *
                      *****************************

  NA   - Mulliken gross atomic population
  ZA   - Total nuclear charge
  QA   - Mulliken gross atomic charge
  VA   - Mayer's total valence
  BVA  - Mayer's bonded valence
  FA   - Mayer's free valence

  ATOM       NA         ZA         QA         VA         BVA        FA
  0 C      6.5387     6.0000    -0.5387     3.8364     3.8364     0.0000
  1 C      5.7448     6.0000     0.2552     3.7155     3.7155     0.0000
  2 O      8.4091     8.0000    -0.4091     2.2299     2.2299     0.0000
  3 C      5.5236     6.0000     0.4764     3.6079     3.6079    -0.0000
  4 C      5.9546     6.0000     0.0454     3.9246     3.9246    -0.0000
  5 C      5.9717     6.0000     0.0283     3.9916     3.9916    -0.0000
  6 C      6.4143     6.0000    -0.4143     3.7660     3.7660     0.0000
  7 C      5.5387     6.0000     0.4613     3.9779     3.9779    -0.0000
  8 O      8.4218     8.0000    -0.4218     2.0663     2.0663    -0.0000
  9 N      7.4553     7.0000    -0.4553     2.9089     2.9089    -0.0000
 10 C      5.7610     6.0000     0.2390     3.9040     3.9040     0.0000
 11 S     15.7272    16.0000     0.2728     2.3694     2.3694    -0.0000
 12 C      6.3884     6.0000    -0.3884     3.8109     3.8109     0.0000
 13 C      5.7695     6.0000     0.2305     3.8799     3.8799    -0.0000
 14 C      5.9006     6.0000     0.0994     3.9644     3.9644    -0.0000
 15 C      6.1179     6.0000    -0.1179     3.9545     3.9545     0.0000
 16 C      6.1696     6.0000    -0.1696     3.9073     3.9073    -0.0000
 17 C      5.6418     6.0000     0.3582     3.7755     3.7755     0.0000
 18 O      8.5455     8.0000    -0.5455     1.9652     1.9652     0.0000
 19 C      4.9162     6.0000     1.0838     3.9963     3.9963     0.0000
 20 F      9.2796     9.0000    -0.2796     1.0864     1.0864    -0.0000
 21 F      9.2792     9.0000    -0.2792     1.0762     1.0762     0.0000
 22 F      9.2827     9.0000    -0.2827     1.0718     1.0718    -0.0000
 23 C      6.1273     6.0000    -0.1273     3.9037     3.9037    -0.0000
 24 Cl    16.9866    17.0000     0.0134     1.1727     1.1727    -0.0000
 25 C      6.1707     6.0000    -0.1707     3.9027     3.9027     0.0000
 26 N      7.4017     7.0000    -0.4017     3.2079     3.2079     0.0000
 27 C      5.9290     6.0000     0.0710     3.7719     3.7719    -0.0000
 28 O      8.4544     8.0000    -0.4544     2.0000     2.0000    -0.0000
 29 C      5.4248     6.0000     0.5752     3.8082     3.8082     0.0000
 30 O      8.4747     8.0000    -0.4747     2.0275     2.0275     0.0000
 31 C      6.0315     6.0000    -0.0315     3.8197     3.8197     0.0000
 32 N      7.6961     7.0000    -0.6961     2.7917     2.7917     0.0000
 33 C      6.0757     6.0000    -0.0757     3.8993     3.8993    -0.0000
 34 C      6.4501     6.0000    -0.4501     3.8375     3.8375     0.0000
 35 C      6.4317     6.0000    -0.4317     3.8366     3.8366    -0.0000
 36 C      5.4876     6.0000     0.5124     3.8721     3.8721    -0.0000
 37 O      8.4940     8.0000    -0.4940     2.0456     2.0456     0.0000
 38 N      7.4835     7.0000    -0.4835     3.0494     3.0494    -0.0000
 39 C      6.3131     6.0000    -0.3131     3.7757     3.7757    -0.0000
 40 C      5.3250     6.0000     0.6750     3.9594     3.9594     0.0000
 41 O      8.5105     8.0000    -0.5105     2.0299     2.0299    -0.0000
 42 N      7.5031     7.0000    -0.5031     3.0720     3.0720     0.0000
 43 C      6.3261     6.0000    -0.3261     3.7819     3.7819     0.0000
 44 H      0.8373     1.0000     0.1627     0.9360     0.9360    -0.0000
 45 H      0.8218     1.0000     0.1782     0.9370     0.9370     0.0000
 46 H      0.8282     1.0000     0.1718     0.9275     0.9275    -0.0000
 47 H      0.7900     1.0000     0.2100     0.9350     0.9350    -0.0000
 48 H      0.8618     1.0000     0.1382     0.9346     0.9346     0.0000
 49 H      0.8057     1.0000     0.1943     0.9345     0.9345     0.0000
 50 H      0.8450     1.0000     0.1550     0.9394     0.9394     0.0000
 51 H      0.8328     1.0000     0.1672     0.9336     0.9336    -0.0000
 52 H      0.8376     1.0000     0.1624     0.9364     0.9364     0.0000
 53 H      0.8031     1.0000     0.1969     0.9275     0.9275    -0.0000
 54 H      0.8080     1.0000     0.1920     0.9380     0.9380    -0.0000
 55 H      0.8345     1.0000     0.1655     0.9313     0.9313    -0.0000
 56 H      0.6926     1.0000     0.3074     0.8746     0.8746     0.0000
 57 H      0.6925     1.0000     0.3075     0.8631     0.8631     0.0000
 58 H      0.8646     1.0000     0.1354     0.9373     0.9373    -0.0000
 59 H      0.8512     1.0000     0.1488     0.9383     0.9383     0.0000
 60 H      0.8519     1.0000     0.1481     0.9390     0.9390    -0.0000
 61 H      0.8571     1.0000     0.1429     0.9390     0.9390     0.0000
 62 H      0.8598     1.0000     0.1402     0.9413     0.9413    -0.0000
 63 H      0.8631     1.0000     0.1369     0.9377     0.9377    -0.0000
 64 H      0.8344     1.0000     0.1656     0.9410     0.9410    -0.0000
 65 H      0.8285     1.0000     0.1715     0.9290     0.9290     0.0000
 66 H      0.7991     1.0000     0.2009     0.9348     0.9348    -0.0000
 67 H      0.8122     1.0000     0.1878     0.9349     0.9349    -0.0000
 68 H      0.8210     1.0000     0.1790     0.9329     0.9329    -0.0000
 69 H      0.7999     1.0000     0.2001     0.9305     0.9305     0.0000
 70 H      0.8173     1.0000     0.1827     0.9244     0.9244    -0.0000

  Mayer bond orders larger than 0.100000
B(  0-C ,  1-C ) :   1.0320 B(  0-C , 44-H ) :   0.9390 B(  0-C , 45-H ) :   0.9214 
B(  0-C , 46-H ) :   0.9320 B(  1-C ,  2-O ) :   0.9838 B(  1-C ,  5-C ) :   1.5437 
B(  2-O ,  3-C ) :   1.0677 B(  3-C ,  4-C ) :   1.3732 B(  3-C , 42-N ) :   0.9700 
B(  4-C ,  5-C ) :   1.2991 B(  4-C , 36-C ) :   1.0780 B(  5-C ,  6-C ) :   1.0159 
B(  6-C ,  7-C ) :   0.9279 B(  6-C , 47-H ) :   0.8887 B(  6-C , 48-H ) :   0.9091 
B(  7-C ,  8-O ) :   1.9006 B(  7-C ,  9-N ) :   1.0588 B(  9-N , 10-C ) :   1.5505 
B( 10-C , 11-S ) :   1.0821 B( 10-C , 26-N ) :   1.0829 B( 11-S , 12-C ) :   1.0279 
B( 12-C , 13-C ) :   1.6705 B( 12-C , 49-H ) :   0.9098 B( 13-C , 14-C ) :   0.9912 
B( 13-C , 26-N ) :   1.0626 B( 14-C , 15-C ) :   1.4213 B( 14-C , 25-C ) :   1.4032 
B( 15-C , 16-C ) :   1.4335 B( 15-C , 50-H ) :   0.9184 B( 16-C , 17-C ) :   1.4050 
B( 16-C , 51-H ) :   0.9133 B( 17-C , 18-O ) :   0.8398 B( 17-C , 23-C ) :   1.3244 
B( 18-O , 19-C ) :   0.9729 B( 19-C , 20-F ) :   1.0052 B( 19-C , 21-F ) :   0.9785 
B( 19-C , 22-F ) :   0.9742 B( 23-C , 24-Cl) :   1.0463 B( 23-C , 25-C ) :   1.3860 
B( 25-C , 52-H ) :   0.9175 B( 26-N , 27-C ) :   0.9326 B( 27-C , 28-O ) :   0.9013 
B( 27-C , 53-H ) :   0.9145 B( 27-C , 54-H ) :   0.9011 B( 28-O , 29-C ) :   0.9826 
B( 29-C , 30-O ) :   1.8177 B( 29-C , 31-C ) :   0.9183 B( 31-C , 32-N ) :   1.0187 
B( 31-C , 33-C ) :   0.9760 B( 31-C , 55-H ) :   0.9068 B( 32-N , 56-H ) :   0.8443 
B( 32-N , 57-H ) :   0.8557 B( 33-C , 34-C ) :   1.0044 B( 33-C , 35-C ) :   1.0083 
B( 33-C , 58-H ) :   0.9227 B( 34-C , 59-H ) :   0.9448 B( 34-C , 60-H ) :   0.9475 
B( 34-C , 61-H ) :   0.9431 B( 35-C , 62-H ) :   0.9482 B( 35-C , 63-H ) :   0.9452 
B( 35-C , 64-H ) :   0.9388 B( 36-C , 37-O ) :   1.7844 B( 36-C , 38-N ) :   0.9578 
B( 38-N , 39-C ) :   0.9207 B( 38-N , 40-C ) :   1.0493 B( 39-C , 65-H ) :   0.9421 
B( 39-C , 66-H ) :   0.9215 B( 39-C , 67-H ) :   0.9295 B( 40-C , 41-O ) :   1.7885 
B( 40-C , 42-N ) :   1.0461 B( 42-N , 43-C ) :   0.9304 B( 43-C , 68-H ) :   0.9315 
B( 43-C , 69-H ) :   0.9282 B( 43-C , 70-H ) :   0.9355 

-------
TIMINGS
-------

Total SCF time: 0 days 0 hours 11 min 55 sec 

Total time                  ....     715.624 sec
Sum of individual times     ....     715.259 sec  ( 99.9%)

SCF preparation             ....       0.484 sec  (  0.1%)
Fock matrix formation       ....     710.735 sec  ( 99.3%)
  Startup                   ....       0.121 sec  (  0.0% of F)
  Split-RI-J                ....     109.527 sec  ( 15.4% of F)
  Chain of spheres X        ....     547.638 sec  ( 77.1% of F)
  XC integration            ....      52.364 sec  (  7.4% of F)
    XC Preparation          ....       0.000 sec  (  0.0% of XC)
    Basis function eval.    ....      20.009 sec  ( 38.2% of XC)
    Density eval.           ....      13.001 sec  ( 24.8% of XC)
    XC-Functional eval.     ....       2.469 sec  (  4.7% of XC)
    XC-Potential eval.      ....      14.905 sec  ( 28.5% of XC)
Diagonalization             ....       0.000 sec  (  0.0%)
Density matrix formation    ....       0.521 sec  (  0.1%)
Total Energy calculation    ....       0.100 sec  (  0.0%)
Population analysis         ....       0.122 sec  (  0.0%)
Orbital Transformation      ....       0.442 sec  (  0.1%)
Orbital Orthonormalization  ....       0.000 sec  (  0.0%)
DIIS solution               ....       1.987 sec  (  0.3%)
SOSCF solution              ....       0.868 sec  (  0.1%)
Finished LeanSCF after 715.7 sec

Maximum memory used throughout the entire LEANSCF-calculation: 119.6 MB

-------------------------   --------------------
FINAL SINGLE POINT ENERGY     -3001.999402302962
-------------------------   --------------------


------------------------------------------------------------------------------
                              ORCA PROPERTY CALCULATIONS
------------------------------------------------------------------------------

GBWName                                 ... /home/nmrbox/aojoawo/Documents/ERDOS/inputs/CHEMBL3987098.gbw
Number of atoms                         ...     71
Number of basis functions               ...    678
Max core memory                         ...   1024 MB

Electric properties:
Dipole moment                           ... YES
Quadrupole moment                       ...  NO
Static polarizability (Dipole/Dipole)   ...  NO
Static polarizability (Dipole/Quad.)    ...  NO
Static polarizability (Quad./Quad.)     ...  NO
Static polarizability (Velocity)        ...  NO

Atomic electric properties:
Dipole moment                           ...  NO
Quadrupole moment                       ...  NO
Static polarizability                   ...  NO

Choice of electric origin               ... Center of mass
Position of electric origin             ...    -0.634114     1.571018    -0.278572

General magnetic properties:
Magnetizability                         ...  NO

EPR properties:
g-Tensor (aka g-matrix)                 ...  NO
Zero-Field splitting spin-orbit         ...  NO
Zero-field splitting spin-spin          ...  NO
Hyperfine couplings                     ...  NO (   0 nuclei)
Quadrupole couplings                    ...  NO (   0 nuclei)
Contact density                         ...  NO (   0 nuclei)

NMR properties:
Chemical shifts                         ...  NO (   0 nuclei)
Spin-rotation constants                 ...  NO (   0 nuclei)
Spin-spin couplings                     ...  NO (   0 nuclei,    0 pairs)

Choice of magnetic origin               ... GIAO
Position of magnetic origin             ...     0.000000     0.000000     0.000000

Properties with geometric perturbations:
SCF Hessian                             ...  NO
IR spectrum                             ...  NO
VCD spectrum                            ...  NO
X-ray spectroscopy properties:
SCF XES/XAS/RIXS spectra                ...  NO


-------------
DIPOLE MOMENT
-------------

Method             : SCF
Type of density    : Electron Density
Multiplicity       :   1
Irrep              :   0
Energy             : -3001.9994023029616983 Eh
Relativity type    : 
Basis              : AO
                                X                 Y                 Z
Electronic contribution:    -36.874855760      68.156235345      -8.494797819
Nuclear contribution   :     35.848600634     -66.096200305       7.658169455
                        -----------------------------------------
Total Dipole Moment    :     -1.026255125       2.060035040      -0.836628364
                        -----------------------------------------
Magnitude (a.u.)       :      2.448855032
Magnitude (Debye)      :      6.224494824



--------------------
Rotational spectrum 
--------------------
 
Rotational constants in cm-1:             0.003671             0.000855             0.000772 
Rotational constants in MHz :           110.054924            25.619748            23.147682 

Dipole components along the rotational axes: 
x,y,z [a.u.] :    -1.872961     1.544513     0.321541 
x,y,z [Debye]:    -4.760688     3.925840     0.817291 

 

Dipole moment calculation done in   0.0 sec 

Maximum memory used throughout the entire PROP-calculation: 59.8 MB

--------------------------------
SUGGESTED CITATIONS FOR THIS RUN
--------------------------------

Below you find a list of papers that are relevant to this ORCA run
We neither can nor want to force you to cite these papers, but we appreciate if you do
You receive ORCA, which is the product of decades of hard work by many enthusiastic individuals, for free
The only thing we kindly ask in return is that you cite our papers,
We deeply appreciate it, if you show your appreciation for ORCA by not just citing the generic ORCA reference.

Please note that relegating all ORCA citations to the supporting information does *not* help us.
SI sections are not indexed - citations you put there will not count into any citation statistics
But we need these citations in order to attract the funding resources that allow us to do what we are doing

Therefore, if you are a happy ORCA user, please consider citing a few of the papers listed below in the main body of your paper

In addition to the list printed below, the program has created the file /home/nmrbox/aojoawo/Documents/ERDOS/inputs/CHEMBL3987098.bibtex that contains the list in bibtex format
You can import this file easily into all common literature databanks and citation aid programs


List of essential papers. We consider these as the minimum necessary citations

  1. Neese,F.
     Software update: the ORCA program system, version 5.0
     WIRES Comput. Molec. Sci., 2022 12(1)e1606
     doi.org/10.1002/wcms.1606

List of papers to cite with high priority. The work reported in these papers was absolutely
necessary for this run to complete.
Our perspective: the developers of density functionals and basis sets usually get cited in chemistry papers
Good! But without the algorithms to do something with them, the functionals or basis sets would not do anything.
Hence, in our opinion, the algorithm design and method developments papers are equally worthy of getting cited

  1. Neese,F.
     An improvement of the resolution of the identity approximation for the formation of the Coulomb matrix
     J. Comp. Chem., 2003 24(14)1740-1747
     doi.org/10.1002/jcc.10318
  2. Neese,F.; Wennmohs,F.; Hansen,A.; Becker,U.
     Efficient, approximate and parallel Hartree-Fock and hybrid DFT calculations. A 'chain-of-spheres' algorithm for the Hartree-Fock exchange
     Chem. Phys., 2009 356(1-3)98-109
     doi.org/10.1016/j.chemphys.2008.10.036
  3. Helmich-Paris,B.; de Souza,B.; Neese,F.; Izsák,R.
     An improved chain of spheres for exchange algorithm
     J. Chem. Phys., 2021 155 104109
     doi.org/doi: 10.1063/5.0058766.
  4. Neese,F.
     The SHARK Integral Generation and Digestion System
     J. Comp. Chem., 2022  1-16
     doi.org/10.1002/jcc.26942

List of suggested additional citations. These are papers that are important in the 'surrounding' of 
of this run, or papers that preceded the highly important papers. If you like your results we are grateful for a citation.

  1. Izsak,R.; Neese,F.
     An overlap fitted chain of spheres exchange method
     J. Chem. Phys., 2011 135 144105
     doi.org/10.1063/1.3646921
  2. Izsak,R.; Hansen,A.; Neese,F.
     The resolution of identity and chain of spheres approximations for the LPNO-CCSD singles Fock term
     Molec. Phys., 2012 110 2413-2417
     doi.org/10.1080/00268976.2012.687466
  3. Neese,F.
     The ORCA program system
     WIRES Comput. Molec. Sci., 2012 2(1)73-78
     doi.org/10.1002/wcms.81
  4. Izsak,R.; Neese,F.; Klopper,W.
     Robust fitting techniques in the chain of spheres approximation to the Fock exchange: The role of the complementary space
     J. Chem. Phys., 2013 139 
     doi.org/10.1063/1.4819264
  5. Neese,F.
     Software update: the ORCA program system, version 4.0
     WIRES Comput. Molec. Sci., 2018 8(1)1-6
     doi.org/10.1002/wcms.1327
  6. Neese,F.; Wennmohs,F.; Becker,U.; Riplinger,C.
     The ORCA quantum chemistry program package
     J. Chem. Phys., 2020 152 Art. No. L224108
     doi.org/10.1063/5.0004608

List of optional additional citations

  1. Neese,F.
     Approximate second-order SCF convergence for spin unrestricted wavefunctions
     Chem. Phys. Lett., 2000 325(1-3)93-98
     doi.org/10.1016/s0009-2614(00)00662-x

Timings for individual modules:

Sum of individual times          ...      749.110 sec (=  12.485 min)
Startup calculation              ...       21.472 sec (=   0.358 min)   2.9 %
SCF iterations                   ...      727.429 sec (=  12.124 min)  97.1 %
Property calculations            ...        0.209 sec (=   0.003 min)   0.0 %
                             ****ORCA TERMINATED NORMALLY****
TOTAL RUN TIME: 0 days 0 hours 12 minutes 29 seconds 793 msec
