
                                 *****************
                                 * O   R   C   A *
                                 *****************

                                            #,                                       
                                            ###                                      
                                            ####                                     
                                            #####                                    
                                            ######                                   
                                           ########,                                 
                                     ,,################,,,,,                         
                               ,,#################################,,                 
                          ,,##########################################,,             
                       ,#########################################, ''#####,          
                    ,#############################################,,   '####,        
                  ,##################################################,,,,####,       
                ,###########''''           ''''###############################       
              ,#####''   ,,,,##########,,,,          '''####'''          '####       
            ,##' ,,,,###########################,,,                        '##       
           ' ,,###''''                  '''############,,,                           
         ,,##''                                '''############,,,,        ,,,,,,###''
      ,#''                                            '''#######################'''  
     '                                                          ''''####''''         
             ,#######,   #######,   ,#######,      ##                                
            ,#'     '#,  ##    ##  ,#'     '#,    #''#        ,####,   ,####,        
            ##       ##  ##   ,#'  ##            #'  '#       #'       #'  '#        
            ##       ##  #######   ##           ,######,      #####,   #    #        
            '#,     ,#'  ##    ##  '#,     ,#' ,#      #,     #,   #   #,  ,#        
             '#######'   ##     ##  '#######'  #'      '#     '####' # '####'        



                #########################################################
                #                        -***-                          #
                #          Department of theory and spectroscopy        #
                #                                                       #
                #                      Frank Neese                      #
                #                                                       #
                #     Directorship, Architecture, Infrastructure        #
                #                    SHARK, DRIVERS                     #
                #        Core code/Algorithms in most modules           #
                #                                                       #
                #        Max Planck Institute fuer Kohlenforschung      #
                #                Kaiser Wilhelm Platz 1                 #
                #                 D-45470 Muelheim/Ruhr                 #
                #                      Germany                          #
                #                                                       #
                #                  All rights reserved                  #
                #                        -***-                          #
                #########################################################


                         Program Version 6.0.0  -   RELEASE  -


 With contributions from (in alphabetic order):
   Daniel Aravena         : Magnetic Suceptibility
   Michael Atanasov       : Ab Initio Ligand Field Theory (pilot matlab implementation)
   Alexander A. Auer      : GIAO ZORA, VPT2 properties, NMR spectrum
   Ute Becker             : All parallelization in ORCA, NUMFREQ, NUMCALC
   Giovanni Bistoni       : ED, misc. LED, open-shell LED, HFLD
   Martin Brehm           : Molecular dynamics
   Dmytro Bykov           : pre 5.0 version of the SCF Hessian
   Marcos Casanova-Páez   : Triplet and SCS-CIS(D). UHF-(DLPNO)-IP/EA/STEOM-CCSD. UHF-CVS-IP/STEOM-CCSD
   Vijay G. Chilkuri      : MRCI spin determinant printing, contributions to CSF-ICE
   Pauline Colinet        : FMM embedding
   Dipayan Datta          : RHF DLPNO-CCSD density
   Achintya Kumar Dutta   : EOM-CC, STEOM-CC
   Nicolas Foglia         : Exact transition moments, OPA infrastructure, MCD improvements
   Dmitry Ganyushin       : Spin-Orbit,Spin-Spin,Magnetic field MRCI
   Miquel Garcia          : C-PCM and meta-GGA Hessian, CCSD/C-PCM, Gaussian charge scheme
   Tiago L. C. Gouveia    : GS-ROHF, GS-ROCIS
   Yang Guo               : DLPNO-NEVPT2, F12-NEVPT2, CIM, IAO-localization
   Andreas Hansen         : Spin unrestricted coupled pair/coupled cluster methods
   Ingolf Harden          : AUTO-CI MPn and infrastructure 
   Benjamin Helmich-Paris : MC-RPA, TRAH-(SCF,CASSCF), AVAS, COSX integrals, SCF dyn. polar.
   Lee Huntington         : MR-EOM, pCC
   Robert Izsak           : Overlap fitted RIJCOSX, COSX-SCS-MP3, EOM
   Riya Kayal             : Wick's Theorem for AUTO-CI, AUTO-CI UHF-CCSDT
   Emily Kempfer          : AUTO-CI, RHF CISDT and CCSDT
   Christian Kollmar      : KDIIS, OOCD, Brueckner-CCSD(T), CCSD density, CASPT2, CASPT2-K, improved NEVPT2
   Axel Koslowski         : Symmetry handling
   Simone Kossmann        : Meta GGA functionals, TD-DFT gradient, OOMP2, (MP2 Hessian; deprecated post 5.0)
   Lucas Lang             : DCDCAS
   Marvin Lechner         : AUTO-CI (C++ implementation), FIC-MRCC
   Spencer Leger          : CASSCF response
   Dagmar Lenk            : GEPOL surface, SMD, ORCA-2-JSON
   Dimitrios Liakos       : Extrapolation schemes; Compound Job, initial MDCI parallelization
   Dimitrios Manganas     : Further ROCIS development; embedding schemes. LFT, Crystal Embedding
   Dimitrios Pantazis     : SARC Basis sets
   Anastasios Papadopoulos: AUTO-CI, single reference methods and gradients
   Taras Petrenko         : pre 6.0 DFT Hessian and TD-DFT gradient, (ASA, deprecated), ECA, 1-Electron XAS/XES, NRVS
   Peter Pinski           : DLPNO-MP2, DLPNO-MP2 Gradient
   Christoph Reimann      : Effective Core Potentials
   Marius Retegan         : Local ZFS, SOC
   Christoph Riplinger    : Optimizer, TS searches, QM/MM, DLPNO-CCSD(T), (RO)-DLPNO pert. Triples
   Michael Roemelt        : Original ROCIS implementation
   Masaaki Saitow         : Open-shell DLPNO-CCSD energy and density
   Barbara Sandhoefer     : DKH picture change effects
   Kantharuban Sivalingam : CASSCF convergence/infrastructure, NEVPT2 and variants, FIC-MRCI
   Bernardo de Souza      : ESD, SOC TD-DFT
   Georgi Stoychev        : AutoAux, RI-MP2 NMR, DLPNO-MP2 response, X2C
   Van Anh Tran           : RI-MP2 g-tensors
   Willem Van den Heuvel  : Paramagnetic NMR
   Zikuan Wang            : NOTCH, Electric field optimization 
   Frank Wennmohs         : Technical directorship and infrastructure
   Hang Xu                : AUTO-CI-Response properties 


 We gratefully acknowledge several colleagues who have allowed us to
 interface, adapt or use parts of their codes:
   Stefan Grimme, W. Hujo, H. Kruse, P. Pracht,  : VdW corrections, initial TS optimization,
                  C. Bannwarth, S. Ehlert,         DFT functionals, gCP, sTDA/sTD-DF
                  L. Wittmann, M. Mueller
   Ed Valeev, F. Pavosevic, A. Kumar             : LibInt (2-el integral package), F12 methods
   Garnet Chan, S. Sharma, J. Yang, R. Olivares  : DMRG
   Ulf Ekstrom                                   : XCFun DFT Library
   Mihaly Kallay                                 : mrcc  (arbitrary order and MRCC methods)
   Frank Weinhold                                : gennbo (NPA and NBO analysis)
   Simon Mueller                                 : openCOSMO-RS
   Christopher J. Cramer and Donald G. Truhlar   : smd solvation model
   Lars Goerigk                                  : TD-DFT with DH, B97 family of functionals
   V. Asgeirsson, H. Jonsson                     : NEB implementation
   FAccTs GmbH                                   : IRC, NEB, NEB-TS, DLPNO-Multilevel, CI-OPT
                                                   MM, QMMM, 2- and 3-layer-ONIOM, Crystal-QMMM,
                                                   LR-CPCM, SF, NACMEs, symmetry and pop. for TD-DFT,
                                                   nearIR, NL-DFT gradient (VV10), updates on ESD,
                                                   ML-optimized integration grids, MBIS, APM,
                                                   GOAT, DOCKER, SOLVATOR, interface openCOSMO-RS
   S Lehtola, MJT Oliveira, MAL Marques          : LibXC Library
   Liviu Ungur et al                             : ANISO software


 Your calculation uses the libint2 library for the computation of 2-el integrals
 For citations please refer to: http://libint.valeyev.net

 Your ORCA version has been built with support for libXC version: 6.2.2
 For citations please refer to: https://libxc.gitlab.io

 This ORCA versions uses:
   CBLAS   interface :  Fast vector & matrix operations
   LAPACKE interface :  Fast linear algebra routines
   SCALAPACK package :  Parallel linear algebra routines
   Shared memory     :  Shared parallel matrices
   BLAS/LAPACK       :  OpenBLAS 0.3.27  USE64BITINT DYNAMIC_ARCH NO_AFFINITY SkylakeX SINGLE_THREADED
        Core in use  :  SkylakeX
   Copyright (c) 2011-2014, The OpenBLAS Project


Warning: RI is on but no J-basis has been assigned. Assigning Def2/J (nothing to worry about!)
================================================================================

----- Orbital basis set information -----
Your calculation utilizes the basis: 6-31G*
   H-He, Li-Ne : W. J. Hehre, R. Ditchfield and J.A. Pople, J. Chem. Phys. 56, 2257 (1972).
                 Note: He and Ne are unpublished basis sets taken from the Gaussian program.
                 Note: Li and B from J. D. Dill and J. A. Pople, J. Chem. Phys. 62, 2921 (1975).
   Na - Ar     : M. M. Francl, W. J. Pietro, W. J. Hehre, J. S. Binkley, M. S. Gordon, 
                 D. J. DeFrees and J. A. Pople, J. Chem. Phys. 77, 3654 (1982).
   K - Zn      : V. A. Rassolov, J. A. Pople, M. A. Ratner, and T. L. Windus, J. Chem. Phys. 109, 1223 (1998).

----- AuxJ basis set information -----
Your calculation utilizes the auxiliary basis: def2/J
   F. Weigend, Phys. Chem. Chem. Phys. 8, 1057 (2006).

================================================================================
                                        WARNINGS
                       Please study these warnings very carefully!
================================================================================


================================================================================
                                       INPUT FILE
================================================================================
NAME = /home/nmrbox/aojoawo/Documents/ERDOS/inputs/CHEMBL3577881.inp
|  1> ! B3LYP 6-31G* SP
|  2> 
|  3> * xyz 0 1
|  4> C 2.4609 -1.8911 -1.0565
|  5> C 1.6063 -1.8263 0.2216
|  6> C 1.2902 -3.2312 0.6993
|  7> C 0.2811 -3.9988 0.0876
|  8> C 0.0152 -5.2985 0.5290
|  9> C 0.7575 -5.8492 1.5765
| 10> F 0.4982 -7.1101 2.0020
| 11> C 1.7704 -5.1017 2.1821
| 12> C 2.0399 -3.8015 1.7445
| 13> N 0.3689 -1.0132 0.0928
| 14> C -0.2396 -0.7269 -1.2231
| 15> C 0.3348 0.5055 -1.8926
| 16> C 0.0094 0.7481 -3.2355
| 17> C 0.4893 1.8848 -3.8875
| 18> C 1.2936 2.7992 -3.2057
| 19> C 1.6266 2.5855 -1.8573
| 20> C 2.4723 3.5561 -1.1273
| 21> O 2.9097 4.5860 -1.7085
| 22> O 2.7933 3.3412 0.2106
| 23> C 1.1419 1.4370 -1.2069
| 24> C -0.2936 -0.5950 1.3169
| 25> O -0.0247 -1.1892 2.3970
| 26> C -1.2712 0.5170 1.3732
| 27> C -2.0818 0.8109 2.4701
| 28> C -2.7679 1.9359 2.0728
| 29> C -3.7221 2.6814 2.7615
| 30> C -4.2616 3.8026 2.1095
| 31> C -3.8371 4.1421 0.8095
| 32> C -2.8706 3.3509 0.1698
| 33> N -2.3787 2.2760 0.8357
| 34> N -1.4663 1.4306 0.3930
| 35> H 2.7073 -0.8720 -1.4162
| 36> H 3.4205 -2.4053 -0.8341
| 37> H 1.9554 -2.4613 -1.8631
| 38> H 2.2513 -1.3221 0.9769
| 39> H -0.3023 -3.5973 -0.7283
| 40> H -0.7661 -5.8792 0.0557
| 41> H 2.3498 -5.5298 2.9901
| 42> H 2.8330 -3.2401 2.2225
| 43> H -1.3402 -0.6182 -1.1253
| 44> H -0.1108 -1.5955 -1.8993
| 45> H -0.6201 0.0542 -3.7792
| 46> H 0.2338 2.0596 -4.9247
| 47> H 1.6516 3.6744 -3.7332
| 48> H 3.3717 3.9992 0.7194
| 49> H 1.3932 1.2728 -0.1679
| 50> H -2.1525 0.2850 3.4134
| 51> H -4.0367 2.4095 3.7611
| 52> H -5.0059 4.4091 2.6087
| 53> H -4.2519 5.0070 0.3087
| 54> H -2.5257 3.5921 -0.8278
| 55> *
| 56> 
| 57>                          ****END OF INPUT****
================================================================================

                       ****************************
                       * Single Point Calculation *
                       ****************************

---------------------------------
CARTESIAN COORDINATES (ANGSTROEM)
---------------------------------
  C      2.460900   -1.891100   -1.056500
  C      1.606300   -1.826300    0.221600
  C      1.290200   -3.231200    0.699300
  C      0.281100   -3.998800    0.087600
  C      0.015200   -5.298500    0.529000
  C      0.757500   -5.849200    1.576500
  F      0.498200   -7.110100    2.002000
  C      1.770400   -5.101700    2.182100
  C      2.039900   -3.801500    1.744500
  N      0.368900   -1.013200    0.092800
  C     -0.239600   -0.726900   -1.223100
  C      0.334800    0.505500   -1.892600
  C      0.009400    0.748100   -3.235500
  C      0.489300    1.884800   -3.887500
  C      1.293600    2.799200   -3.205700
  C      1.626600    2.585500   -1.857300
  C      2.472300    3.556100   -1.127300
  O      2.909700    4.586000   -1.708500
  O      2.793300    3.341200    0.210600
  C      1.141900    1.437000   -1.206900
  C     -0.293600   -0.595000    1.316900
  O     -0.024700   -1.189200    2.397000
  C     -1.271200    0.517000    1.373200
  C     -2.081800    0.810900    2.470100
  C     -2.767900    1.935900    2.072800
  C     -3.722100    2.681400    2.761500
  C     -4.261600    3.802600    2.109500
  C     -3.837100    4.142100    0.809500
  C     -2.870600    3.350900    0.169800
  N     -2.378700    2.276000    0.835700
  N     -1.466300    1.430600    0.393000
  H      2.707300   -0.872000   -1.416200
  H      3.420500   -2.405300   -0.834100
  H      1.955400   -2.461300   -1.863100
  H      2.251300   -1.322100    0.976900
  H     -0.302300   -3.597300   -0.728300
  H     -0.766100   -5.879200    0.055700
  H      2.349800   -5.529800    2.990100
  H      2.833000   -3.240100    2.222500
  H     -1.340200   -0.618200   -1.125300
  H     -0.110800   -1.595500   -1.899300
  H     -0.620100    0.054200   -3.779200
  H      0.233800    2.059600   -4.924700
  H      1.651600    3.674400   -3.733200
  H      3.371700    3.999200    0.719400
  H      1.393200    1.272800   -0.167900
  H     -2.152500    0.285000    3.413400
  H     -4.036700    2.409500    3.761100
  H     -5.005900    4.409100    2.608700
  H     -4.251900    5.007000    0.308700
  H     -2.525700    3.592100   -0.827800

----------------------------
CARTESIAN COORDINATES (A.U.)
----------------------------
  NO LB      ZA    FRAG     MASS         X           Y           Z
   0 C     6.0000    0    12.011    4.650427   -3.573661   -1.996496
   1 C     6.0000    0    12.011    3.035467   -3.451207    0.418763
   2 C     6.0000    0    12.011    2.438125   -6.106083    1.321485
   3 C     6.0000    0    12.011    0.531202   -7.556637    0.165540
   4 C     6.0000    0    12.011    0.028724  -10.012714    0.999665
   5 C     6.0000    0    12.011    1.431468  -11.053386    2.979153
   6 F     9.0000    0    18.998    0.941462  -13.436142    3.783232
   7 C     6.0000    0    12.011    3.345571   -9.640816    4.123571
   8 C     6.0000    0    12.011    3.854852   -7.183794    3.296627
   9 N     7.0000    0    14.007    0.697120   -1.914671    0.175367
  10 C     6.0000    0    12.011   -0.452778   -1.373642   -2.311324
  11 C     6.0000    0    12.011    0.632680    0.955257   -3.576496
  12 C     6.0000    0    12.011    0.017763    1.413704   -6.114209
  13 C     6.0000    0    12.011    0.924643    3.561756   -7.346310
  14 C     6.0000    0    12.011    2.444550    5.289721   -6.057895
  15 C     6.0000    0    12.011    3.073829    4.885887   -3.509788
  16 C     6.0000    0    12.011    4.671970    6.720055   -2.130288
  17 O     8.0000    0    15.999    5.498536    8.666284   -3.228597
  18 O     8.0000    0    15.999    5.278572    6.313953    0.397976
  19 C     6.0000    0    12.011    2.157878    2.715536   -2.280710
  20 C     6.0000    0    12.011   -0.554824   -1.124387    2.488580
  21 O     8.0000    0    15.999   -0.046676   -2.247262    4.529674
  22 C     6.0000    0    12.011   -2.402220    0.976988    2.594972
  23 C     6.0000    0    12.011   -3.934032    1.532379    4.667813
  24 C     6.0000    0    12.011   -5.230573    3.658321    3.917024
  25 C     6.0000    0    12.011   -7.033750    5.067112    5.218479
  26 C     6.0000    0    12.011   -8.053257    7.185873    3.986377
  27 C     6.0000    0    12.011   -7.251068    7.827435    1.529733
  28 C     6.0000    0    12.011   -5.424648    6.332283    0.320875
  29 N     7.0000    0    14.007   -4.495092    4.301017    1.579244
  30 N     7.0000    0    14.007   -2.770905    2.703442    0.742662
  31 H     1.0000    0     1.008    5.116056   -1.647841   -2.676230
  32 H     1.0000    0     1.008    6.463808   -4.545358   -1.576221
  33 H     1.0000    0     1.008    3.695170   -4.651183   -3.520749
  34 H     1.0000    0     1.008    4.254340   -2.498407    1.846073
  35 H     1.0000    0     1.008   -0.571264   -6.797912   -1.376288
  36 H     1.0000    0     1.008   -1.447719  -11.110078    0.105258
  37 H     1.0000    0     1.008    4.440478  -10.449808    5.650470
  38 H     1.0000    0     1.008    5.353594   -6.122902    4.199916
  39 H     1.0000    0     1.008   -2.532611   -1.168229   -2.126509
  40 H     1.0000    0     1.008   -0.209382   -3.015058   -3.589157
  41 H     1.0000    0     1.008   -1.171819    0.102423   -7.141653
  42 H     1.0000    0     1.008    0.441818    3.892080   -9.306334
  43 H     1.0000    0     1.008    3.121072    6.943610   -7.054726
  44 H     1.0000    0     1.008    6.371590    7.557393    1.359469
  45 H     1.0000    0     1.008    2.632766    2.405243   -0.317285
  46 H     1.0000    0     1.008   -4.067636    0.538572    6.450391
  47 H     1.0000    0     1.008   -7.628257    4.553295    7.107449
  48 H     1.0000    0     1.008   -9.459780    8.331991    4.929729
  49 H     1.0000    0     1.008   -8.034927    9.461859    0.583358
  50 H     1.0000    0     1.008   -4.772881    6.788085   -1.564315

--------------------------------
INTERNAL COORDINATES (ANGSTROEM)
--------------------------------
 C      0   0   0     0.000000000000     0.00000000     0.00000000
 C      1   0   0     1.538856656742     0.00000000     0.00000000
 C      2   1   0     1.517188356797   109.76835183     0.00000000
 C      3   2   1     1.407717819735   121.16176114   281.51724153
 C      4   3   2     1.398126196021   120.40020229   179.13816141
 C      5   4   3     1.396973883077   120.14104134   359.53926451
 F      6   5   4     1.355785952870   120.02136989   180.04419370
 C      6   5   4     1.396951688499   119.96071249   359.81161914
 C      8   6   5     1.398085852156   120.11308080     0.20274866
 N      2   1   3     1.486230066309   114.42042831   234.28126889
 C     10   2   1     1.477779668963   121.73471997    21.56480828
 C     11  10   2     1.515577569773   113.25570833   272.93955756
 C     12  11  10     1.402897120248   118.39602122   169.09611112
 C     13  12  11     1.395526746429   120.55184770   178.57659939
 C     14  13  12     1.395663673669   120.23824974   359.59605257
 C     15  14  13     1.405254158507   120.37625482   359.93054958
 C     16  15  14     1.479923258146   120.59665773   180.37412576
 O     17  16  15     1.260875176217   120.43545924   359.72051066
 O     17  16  15     1.392551406592   120.29321598   179.70162604
 C     16  15  14     1.406060631694   119.10305263     0.18565200
 C     10   2   1     1.453347274398   117.64276616   196.59758429
 O     21  10   2     1.261743579338   119.23208668   342.15230848
 C     21  10   2     1.481693439953   123.27903012   161.43195385
 C     23  21  10     1.395220118834   124.84001380   169.26710329
 C     24  23  21     1.376301384145   103.58347568   177.84033766
 C     25  24  23     1.393045433574   129.50861444   180.03989038
 C     26  25  24     1.404725485638   117.43538591   179.66972663
 C     27  26  25     1.409063696218   120.31991909   359.90418982
 C     28  27  26     1.403330246236   119.48560277     0.00000000
 N     25  24  23     1.340731539123   109.20791781   359.69648313
 N     30  25  24     1.320287169520   110.33870375   359.97020031
 H      1   2   3     1.108450206369   110.74776640   180.38104151
 H      1   2   3     1.111168556071   109.44167172   298.55433955
 H      1   2   3     1.109622390726   111.86271625    57.61246566
 H      2   1   3     1.113876442879   105.10949717   117.14108061
 H      4   3   2     1.080393733784   120.83697738   359.06253778
 H      5   4   3     1.082430168648   119.86377878   179.68987103
 H      8   6   5     1.082514651171   120.00367397   180.34843995
 H      9   8   6     1.082894994909   119.02197370   180.36649249
 H     11  10   2     1.110270638178   110.40843536   149.64543660
 H     11  10   2     1.108287796558   110.09660914    35.10989436
 H     13  12  11     1.083225345900   120.29679524   358.66860925
 H     14  13  12     1.082413566988   119.87160264   179.81682661
 H     15  14  13     1.082772039720   118.82395335   180.13085732
 H     19  17  16     1.013108089001   120.92267869   179.98064751
 H     20  16  15     1.081496338413   119.22938484   180.27648956
 H     24  23  21     1.082305035561   128.37514965   358.17885459
 H     26  25  24     1.082637025969   121.40655045   359.71823499
 H     27  26  25     1.082139260909   119.82714478   179.98104561
 H     28  27  26     1.082086729426   120.27053869   180.11191913
 H     29  28  27     1.082746142916   120.91637834   180.17253461

---------------------------
INTERNAL COORDINATES (A.U.)
---------------------------
 C      0   0   0     0.000000000000     0.00000000     0.00000000
 C      1   0   0     2.908017640605     0.00000000     0.00000000
 C      2   1   0     2.867070487920   109.76835183     0.00000000
 C      3   2   1     2.660201153140   121.16176114   281.51724153
 C      4   3   2     2.642075611141   120.40020229   179.13816141
 C      5   4   3     2.639898055257   120.14104134   359.53926451
 F      6   5   4     2.562064147142   120.02136989   180.04419370
 C      6   5   4     2.639856113582   119.96071249   359.81161914
 C      8   6   5     2.641999372286   120.11308080     0.20274866
 N      2   1   3     2.808567797323   114.42042831   234.28126889
 C     10   2   1     2.792598860617   121.73471997    21.56480828
 C     11  10   2     2.864026541586   113.25570833   272.93955756
 C     12  11  10     2.651091351335   118.39602122   169.09611112
 C     13  12  11     2.637163363314   120.55184770   178.57659939
 C     14  13  12     2.637422118297   120.23824974   359.59605257
 C     15  14  13     2.655545508131   120.37625482   359.93054958
 C     16  15  14     2.796649657115   120.59665773   180.37412576
 O     17  16  15     2.382708772110   120.43545924   359.72051066
 O     17  16  15     2.631540785865   120.29321598   179.70162604
 C     16  15  14     2.657069521590   119.10305263     0.18565200
 C     10   2   1     2.746428326093   117.64276616   196.59758429
 O     21  10   2     2.384349816182   119.23208668   342.15230848
 C     21  10   2     2.799994815939   123.27903012   161.43195385
 C     23  21  10     2.636583921134   124.84001380   169.26710329
 C     24  23  21     2.600832693771   103.58347568   177.84033766
 C     25  24  23     2.632474361564   129.50861444   180.03989038
 C     26  25  24     2.654546461195   117.43538591   179.66972663
 C     27  26  25     2.662744491103   120.31991909   359.90418982
 C     28  27  26     2.651909840834   119.48560277     0.00000000
 N     25  24  23     2.533615428054   109.20791781   359.69648313
 N     30  25  24     2.494981168523   110.33870375   359.97020031
 H      1   2   3     2.094667323126   110.74776640   180.38104151
 H      1   2   3     2.099804259598   109.44167172   298.55433955
 H      1   2   3     2.096882430539   111.86271625    57.61246566
 H      2   1   3     2.104921424067   105.10949717   117.14108061
 H      4   3   2     2.041648273657   120.83697738   359.06253778
 H      5   4   3     2.045496577839   119.86377878   179.68987103
 H      8   6   5     2.045656226671   120.00367397   180.34843995
 H      9   8   6     2.046374972173   119.02197370   180.36649249
 H     11  10   2     2.098107440690   110.40843536   149.64543660
 H     11  10   2     2.094360413062   110.09660914    35.10989436
 H     13  12  11     2.046999245073   120.29679524   358.66860925
 H     14  13  12     2.045465205248   119.87160264   179.81682661
 H     15  14  13     2.046142620539   118.82395335   180.13085732
 H     19  17  16     1.914496832273   120.92267869   179.98064751
 H     20  16  15     2.043731894439   119.22938484   180.27648956
 H     24  23  21     2.045260110574   128.37514965   358.17885459
 H     26  25  24     2.045887481525   121.40655045   359.71823499
 H     27  26  25     2.044946841881   119.82714478   179.98104561
 H     28  27  26     2.044847571766   120.27053869   180.11191913
 H     29  28  27     2.046093682671   120.91637834   180.17253461

---------------------
BASIS SET INFORMATION
---------------------
There are 5 groups of distinct atoms

 Group   1 Type C   : 10s4p1d contracted to 3s2p1d pattern {631/31/1}
 Group   2 Type F   : 10s4p1d contracted to 3s2p1d pattern {631/31/1}
 Group   3 Type N   : 10s4p1d contracted to 3s2p1d pattern {631/31/1}
 Group   4 Type O   : 10s4p1d contracted to 3s2p1d pattern {631/31/1}
 Group   5 Type H   : 4s contracted to 2s pattern {31}

Atom   0C    basis set group =>   1
Atom   1C    basis set group =>   1
Atom   2C    basis set group =>   1
Atom   3C    basis set group =>   1
Atom   4C    basis set group =>   1
Atom   5C    basis set group =>   1
Atom   6F    basis set group =>   2
Atom   7C    basis set group =>   1
Atom   8C    basis set group =>   1
Atom   9N    basis set group =>   3
Atom  10C    basis set group =>   1
Atom  11C    basis set group =>   1
Atom  12C    basis set group =>   1
Atom  13C    basis set group =>   1
Atom  14C    basis set group =>   1
Atom  15C    basis set group =>   1
Atom  16C    basis set group =>   1
Atom  17O    basis set group =>   4
Atom  18O    basis set group =>   4
Atom  19C    basis set group =>   1
Atom  20C    basis set group =>   1
Atom  21O    basis set group =>   4
Atom  22C    basis set group =>   1
Atom  23C    basis set group =>   1
Atom  24C    basis set group =>   1
Atom  25C    basis set group =>   1
Atom  26C    basis set group =>   1
Atom  27C    basis set group =>   1
Atom  28C    basis set group =>   1
Atom  29N    basis set group =>   3
Atom  30N    basis set group =>   3
Atom  31H    basis set group =>   5
Atom  32H    basis set group =>   5
Atom  33H    basis set group =>   5
Atom  34H    basis set group =>   5
Atom  35H    basis set group =>   5
Atom  36H    basis set group =>   5
Atom  37H    basis set group =>   5
Atom  38H    basis set group =>   5
Atom  39H    basis set group =>   5
Atom  40H    basis set group =>   5
Atom  41H    basis set group =>   5
Atom  42H    basis set group =>   5
Atom  43H    basis set group =>   5
Atom  44H    basis set group =>   5
Atom  45H    basis set group =>   5
Atom  46H    basis set group =>   5
Atom  47H    basis set group =>   5
Atom  48H    basis set group =>   5
Atom  49H    basis set group =>   5
Atom  50H    basis set group =>   5
---------------------------------
AUXILIARY/J BASIS SET INFORMATION
---------------------------------
There are 5 groups of distinct atoms

 Group   1 Type C   : 12s5p4d2f1g contracted to 6s4p3d1f1g pattern {711111/2111/211/2/1}
 Group   2 Type F   : 12s5p4d2f1g contracted to 6s4p3d1f1g pattern {711111/2111/211/2/1}
 Group   3 Type N   : 12s5p4d2f1g contracted to 6s4p3d1f1g pattern {711111/2111/211/2/1}
 Group   4 Type O   : 12s5p4d2f1g contracted to 6s4p3d1f1g pattern {711111/2111/211/2/1}
 Group   5 Type H   : 5s2p1d contracted to 3s1p1d pattern {311/2/1}

Atom   0C    basis set group =>   1
Atom   1C    basis set group =>   1
Atom   2C    basis set group =>   1
Atom   3C    basis set group =>   1
Atom   4C    basis set group =>   1
Atom   5C    basis set group =>   1
Atom   6F    basis set group =>   2
Atom   7C    basis set group =>   1
Atom   8C    basis set group =>   1
Atom   9N    basis set group =>   3
Atom  10C    basis set group =>   1
Atom  11C    basis set group =>   1
Atom  12C    basis set group =>   1
Atom  13C    basis set group =>   1
Atom  14C    basis set group =>   1
Atom  15C    basis set group =>   1
Atom  16C    basis set group =>   1
Atom  17O    basis set group =>   4
Atom  18O    basis set group =>   4
Atom  19C    basis set group =>   1
Atom  20C    basis set group =>   1
Atom  21O    basis set group =>   4
Atom  22C    basis set group =>   1
Atom  23C    basis set group =>   1
Atom  24C    basis set group =>   1
Atom  25C    basis set group =>   1
Atom  26C    basis set group =>   1
Atom  27C    basis set group =>   1
Atom  28C    basis set group =>   1
Atom  29N    basis set group =>   3
Atom  30N    basis set group =>   3
Atom  31H    basis set group =>   5
Atom  32H    basis set group =>   5
Atom  33H    basis set group =>   5
Atom  34H    basis set group =>   5
Atom  35H    basis set group =>   5
Atom  36H    basis set group =>   5
Atom  37H    basis set group =>   5
Atom  38H    basis set group =>   5
Atom  39H    basis set group =>   5
Atom  40H    basis set group =>   5
Atom  41H    basis set group =>   5
Atom  42H    basis set group =>   5
Atom  43H    basis set group =>   5
Atom  44H    basis set group =>   5
Atom  45H    basis set group =>   5
Atom  46H    basis set group =>   5
Atom  47H    basis set group =>   5
Atom  48H    basis set group =>   5
Atom  49H    basis set group =>   5
Atom  50H    basis set group =>   5
------------------------------------------------------------------------------
                             ORCA STARTUP CALCULATIONS
                           -- RI-GTO INTEGRALS CHOSEN --
------------------------------------------------------------------------------
------------------------------------------------------------------------------
                   ___                                                        
                  /   \      - P O W E R E D   B Y -                         
                 /     \                                                     
                 |  |  |   _    _      __       _____    __    __             
                 |  |  |  | |  | |    /  \     |  _  \  |  |  /  |          
                  \  \/   | |  | |   /    \    | | | |  |  | /  /          
                 / \  \   | |__| |  /  /\  \   | |_| |  |  |/  /          
                |  |  |   |  __  | /  /__\  \  |    /   |      \           
                |  |  |   | |  | | |   __   |  |    \   |  |\   \          
                \     /   | |  | | |  |  |  |  | |\  \  |  | \   \       
                 \___/    |_|  |_| |__|  |__|  |_| \__\ |__|  \__/        
                                                                              
                      - O R C A' S   B I G   F R I E N D -                    
                                      &                                       
                       - I N T E G R A L  F E E D E R -                       
                                                                              
 v1 FN, 2020, v2 2021, v3 2022-2024                                           
------------------------------------------------------------------------------


----------------------
SHARK INTEGRAL PACKAGE
----------------------

Number of atoms                             ...     51
Number of basis functions                   ...    474
Number of shells                            ...    226
Maximum angular momentum                    ...      2
Integral batch strategy                     ... SHARK/LIBINT Hybrid
RI-J (if used) integral strategy            ... SPLIT-RIJ (Revised 2003 algorithm where possible)
Printlevel                                  ...      1
Contraction scheme used                     ... SEGMENTED contraction
Prescreening option                         ... SCHWARTZ
   Thresh                                   ... 1.000e-10
   Tcut                                     ... 1.000e-11
   Tpresel                                  ... 1.000e-11 
Coulomb Range Separation                    ... NOT USED
Exchange Range Separation                   ... NOT USED
Multipole approximations                    ... NOT USED
Finite Nucleus Model                        ... NOT USED
CABS basis                                  ... NOT available
Auxiliary Coulomb fitting basis             ... AVAILABLE
   # of basis functions in Aux-J            ...   1739
   # of shells in Aux-J                     ...    565
   Maximum angular momentum in Aux-J        ...      4
Auxiliary J/K fitting basis                 ... NOT available
Auxiliary Correlation fitting basis         ... NOT available
Auxiliary 'external' fitting basis          ... NOT available

Checking pre-screening integrals            ... done (  0.0 sec) Dimension = 226
Check shell pair data                       ... done (  0.0 sec)
Shell pair information
Shell pair cut-off parameter TPreSel        ...   1.0e-11
Total number of shell pairs                 ...     25651
Shell pairs after pre-screening             ...     15526
Total number of primitive shell pairs       ...    149496
Primitive shell pairs kept                  ...     46610
          la=0 lb=0:   5065 shell pairs
          la=1 lb=0:   5473 shell pairs
          la=1 lb=1:   1469 shell pairs
          la=2 lb=0:   2102 shell pairs
          la=2 lb=1:   1204 shell pairs
          la=2 lb=2:    213 shell pairs

Calculating one electron integrals          ... done (  0.2 sec)
Calculating RI/J V-Matrix + Cholesky decomp.... done (  0.4 sec)
Calculating Nuclear repulsion               ... done (  0.0 sec) ENN=   2925.139492961791 Eh

Diagonalization of the overlap matrix:
Smallest eigenvalue                        ... 4.388e-04
Time for diagonalization                   ...    0.036 sec
Threshold for overlap eigenvalues          ... 1.000e-07
Number of eigenvalues below threshold      ... 0
Time for construction of square roots      ...    0.027 sec
Total time needed                          ...    0.072 sec

-------------------
DFT GRID GENERATION
-------------------

General Integration Accuracy     IntAcc      ... 4.388
Radial Grid Type                 RadialGrid  ... OptM3 with GC (2021)
Angular Grid (max. ang.)         AngularGrid ... 4 (Lebedev-302)
Angular grid pruning method      GridPruning ... 4 (adaptive)
Weight generation scheme         WeightScheme... mBecke (2022)
Basis function cutoff            BFCut       ... 1.0000e-10
Integration weight cutoff        WCut        ... 1.0000e-14
Partially contracted basis set               ... off
Rotationally invariant grid construction     ... off
Angular grids for H and He will be reduced by one unit

Total number of grid points                  ...   248710
Total number of batches                      ...     3911
Average number of points per batch           ...       63
Average number of grid points per atom       ...     4877

--------------------
COSX GRID GENERATION
--------------------

GRIDX 1
-------
General Integration Accuracy     IntAcc      ... 3.816
Radial Grid Type                 RadialGrid  ... OptM3 with GC (2021)
Angular Grid (max. ang.)         AngularGrid ... 1 (Lebedev-50)
Angular grid pruning method      GridPruning ... 4 (adaptive)
Weight generation scheme         WeightScheme... mBecke (2022)
Basis function cutoff            BFCut       ... 1.0000e-10
Integration weight cutoff        WCut        ... 1.0000e-14
Partially contracted basis set               ... on
Rotationally invariant grid construction     ... off
Angular grids for H and He will be reduced by one unit

Total number of grid points                  ...    31465
Total number of batches                      ...      272
Average number of points per batch           ...      115
Average number of grid points per atom       ...      617
UseSFitting                                  ... on

GRIDX 2
-------
General Integration Accuracy     IntAcc      ... 4.020
Radial Grid Type                 RadialGrid  ... OptM3 with GC (2021)
Angular Grid (max. ang.)         AngularGrid ... 2 (Lebedev-110)
Angular grid pruning method      GridPruning ... 4 (adaptive)
Weight generation scheme         WeightScheme... mBecke (2022)
Basis function cutoff            BFCut       ... 1.0000e-10
Integration weight cutoff        WCut        ... 1.0000e-14
Partially contracted basis set               ... on
Rotationally invariant grid construction     ... off
Angular grids for H and He will be reduced by one unit

Total number of grid points                  ...    68769
Total number of batches                      ...      564
Average number of points per batch           ...      121
Average number of grid points per atom       ...     1348
UseSFitting                                  ... on

GRIDX 3
-------
General Integration Accuracy     IntAcc      ... 4.338
Radial Grid Type                 RadialGrid  ... OptM3 with GC (2021)
Angular Grid (max. ang.)         AngularGrid ... 3 (Lebedev-194)
Angular grid pruning method      GridPruning ... 4 (adaptive)
Weight generation scheme         WeightScheme... mBecke (2022)
Basis function cutoff            BFCut       ... 1.0000e-10
Integration weight cutoff        WCut        ... 1.0000e-14
Partially contracted basis set               ... on
Rotationally invariant grid construction     ... off
Angular grids for H and He will be reduced by one unit

Total number of grid points                  ...   150488
Total number of batches                      ...     1202
Average number of points per batch           ...      125
Average number of grid points per atom       ...     2951
UseSFitting                                  ... on
Initializing property integral containers    ... done (  0.0 sec)

SHARK setup successfully completed in  13.2 seconds

Maximum memory used throughout the entire STARTUP-calculation: 107.7 MB
-------------------------------------------------------------------------------
                                 ORCA GUESS
                   Start orbitals & Density for SCF / CASSCF
-------------------------------------------------------------------------------

------------
SCF SETTINGS
------------
Hamiltonian:
 Density Functional     Method          .... DFT(GTOs)
 Exchange Functional    Exchange        .... B88
   X-Alpha parameter    XAlpha          ....  0.666667
   Becke's b parameter  XBeta           ....  0.004200
 Correlation Functional Correlation     .... LYP
 LDA part of GGA corr.  LDAOpt          .... VWN-5
 Gradients option       PostSCFGGA      .... off
 Hybrid DFT is turned on
   Fraction HF Exchange ScalHFX         ....  0.200000
   Scaling of DF-GGA-X  ScalDFX         ....  0.720000
   Scaling of DF-GGA-C  ScalDFC         ....  0.810000
   Scaling of DF-LDA-C  ScalLDAC        ....  1.000000
   Perturbative correction              ....  0.000000
   NL short-range parameter             ....  4.800000
 RI-approximation to the Coulomb term is turned on
   Number of AuxJ basis functions       .... 1739
   RIJ-COSX (HFX calculated with COS-X)).... on


General Settings:
 Integral files         IntName         .... /home/nmrbox/aojoawo/Documents/ERDOS/inputs/CHEMBL3577881
 Hartree-Fock type      HFTyp           .... RHF
 Total Charge           Charge          ....    0
 Multiplicity           Mult            ....    1
 Number of Electrons    NEL             ....  218
 Basis Dimension        Dim             ....  474
 Nuclear Repulsion      ENuc            ....   2925.1394929618 Eh

Convergence Acceleration:
 AO-DIIS                CNVDIIS         .... on
   Start iteration      DIISMaxIt       ....    12
   Startup error        DIISStart       ....  0.200000
   # of expansion vecs  DIISMaxEq       ....     5
   Bias factor          DIISBfac        ....   1.050
   Max. coefficient     DIISMaxC        ....  10.000
 MO-DIIS                CNVKDIIS        .... off
 Trust-Rad. Augm. Hess. CNVTRAH         .... auto
   Auto Start mean grad. ratio tolernc. ....  1.125000
   Auto Start start iteration           ....    50
   Auto Start num. interpolation iter.  ....    10
   Max. Number of Micro iterations      ....    24
   Max. Number of Macro iterations      .... Maxiter - #DIIS iter
   Number of Davidson start vectors     ....     2
   Converg. threshold    (grad. norm)   ....   5.000e-05
   Grad. Scal. Fac. for Micro threshold ....   0.100
   Minimum threshold for Micro iter.    ....   1.000e-02
   NR start threshold (gradient norm)   ....   1.000e-04
   Initial trust radius                 ....   0.400
   Minimum AH scaling param. (alpha)    ....   1.000
   Maximum AH scaling param. (alpha)    .... 1000.000
   Quad. conv. algorithm                .... NR
   White noise on init. David. guess    .... on
   Maximum white noise                  ....   0.010
   Pseudo random numbers                .... off
   Inactive MOs                         .... canonical
   Orbital update algorithm             .... Taylor
   Preconditioner                       .... Diag
   Full preconditioner red. dimension   ....   250
 SOSCF                  CNVSOSCF        .... on
   Start iteration      SOSCFMaxIt      ....   150
   Startup grad/error   SOSCFStart      ....  0.003300
   Hessian update       SOSCFHessUp     .... L-BFGS
 Level Shifting         CNVShift        .... on
   Level shift para.    LevelShift      ....    0.2500
   Turn off err/grad.   ShiftErr        ....    0.0010
 Zerner damping         CNVZerner       .... off
 Static damping         CNVDamp         .... on
   Fraction old density DampFac         ....    0.7000
   Max. Damping (<1)    DampMax         ....    0.9800
   Min. Damping (>=0)   DampMin         ....    0.0000
   Turn off err/grad.   DampErr         ....    0.1000

SCF Procedure:
 Maximum # iterations   MaxIter         ....   125
 SCF integral mode      SCFMode         .... Direct
   Integral package                     .... SHARK and LIBINT hybrid scheme
 Reset frequency        DirectResetFreq ....    20
 Integral Threshold     Thresh          ....  1.000e-10 Eh
 Primitive CutOff       TCut            ....  1.000e-11 Eh

Convergence Tolerance:
 Convergence Check Mode ConvCheckMode   .... Total+1el-Energy
 Convergence forced     ConvForced      .... 0
 Energy Change          TolE            ....  1.000e-06 Eh
 1-El. energy change                    ....  1.000e-03 Eh
 Orbital Gradient       TolG            ....  5.000e-05
 Orbital Rotation angle TolX            ....  5.000e-05
 DIIS Error             TolErr          ....  1.000e-06

------------------------------
INITIAL GUESS: MODEL POTENTIAL
------------------------------
Loading Hartree-Fock densities                     ... done
Calculating cut-offs                               ... done
Initializing the effective Hamiltonian             ... done
Setting up the integral package (SHARK)            ... done
Starting the Coulomb interaction                   ... done (   3.7 sec)
Making the grid                                    ... done (   1.5 sec)
Mapping shells                                     ... done
Starting the XC term evaluation                    ... done (   1.2 sec)
  promolecular density results
     # of electrons  =    217.987724387
     EX              =   -183.683620201
     EC              =     -7.495050007
     EX+EC           =   -191.178670208
Transforming the Hamiltonian                       ... done (   0.0 sec)
Diagonalizing the Hamiltonian                      ... done (   0.0 sec)
Back transforming the eigenvectors                 ... done (   0.0 sec)
Now organizing SCF variables                       ... done
                      ------------------
                      INITIAL GUESS DONE (   6.5 sec)
                      ------------------
             **** ENERGY FILE WAS UPDATED (/home/nmrbox/aojoawo/Documents/ERDOS/inputs/CHEMBL3577881.en.tmp) ****
Finished Guess after   6.8 sec
Maximum memory used throughout the entire GUESS-calculation: 58.7 MB

-------------------------------------------------------------------------------------------
                                      ORCA LEAN-SCF
                              memory conserving SCF solver
-------------------------------------------------------------------------------------------

----------------------------------------D-I-I-S--------------------------------------------
Iteration    Energy (Eh)           Delta-E    RMSDP     MaxDP     DIISErr   Damp  Time(sec)
-------------------------------------------------------------------------------------------
               ***  Starting incremental Fock matrix formation  ***
    1    -1414.7844864676831094     0.00e+00  2.10e-03  1.02e-01  2.72e-01  0.700  65.6
    2    -1415.1137074340963409    -3.29e-01  1.39e-03  5.52e-02  9.72e-02  0.700  28.6
                               ***Turning on AO-DIIS***
    3    -1415.2396234043594632    -1.26e-01  6.01e-04  1.57e-02  3.27e-02  0.700  27.9
    4    -1415.3182049321035265    -7.86e-02  9.97e-04  3.26e-02  1.62e-02  0.000  25.5
    5    -1415.4904316748502424    -1.72e-01  2.23e-04  7.95e-03  6.40e-03  0.000  27.0
                              *** Initializing SOSCF ***
---------------------------------------S-O-S-C-F--------------------------------------
Iteration    Energy (Eh)           Delta-E    RMSDP     MaxDP     MaxGrad    Time(sec)
--------------------------------------------------------------------------------------
    6    -1415.4917089481227777    -1.28e-03  7.14e-05  2.53e-03  2.81e-03    23.2
               *** Restarting incremental Fock matrix formation ***
    7    -1415.4917647548886634    -5.58e-05  6.07e-05  3.33e-03  4.65e-04    65.9
    8    -1415.4917116763522245     5.31e-05  3.90e-05  2.51e-03  1.14e-03    36.6
    9    -1415.4917816503634640    -7.00e-05  1.05e-05  5.55e-04  9.73e-05    33.6
   10    -1415.4917800569141946     1.59e-06  6.77e-06  3.64e-04  2.38e-04    26.1
   11    -1415.4917822411002817    -2.18e-06  2.41e-06  1.03e-04  2.65e-05    24.2
   12    -1415.4917823219188904    -8.08e-08  1.49e-06  8.33e-05  4.21e-05    19.4
                 **** Energy Check signals convergence ****

               *****************************************************
               *                     SUCCESS                       *
               *           SCF CONVERGED AFTER  12 CYCLES          *
               *****************************************************

Recomputing exchange energy using gridx3       ... done (  115.311 sec)
Old exchange energy                            :    -37.222112319 Eh
New exchange energy                            :    -37.222125328 Eh
Exchange energy change after final integration :     -0.000013009 Eh
Total energy after final integration           :  -1415.491795330 Eh
             **** ENERGY FILE WAS UPDATED (/home/nmrbox/aojoawo/Documents/ERDOS/inputs/CHEMBL3577881.en.tmp) ****

----------------
TOTAL SCF ENERGY
----------------

Total Energy       :      -1415.49179533047914 Eh          -38517.48994 eV

Components:
Nuclear Repulsion  :       2925.13949296179135 Eh           79597.09224 eV
Electronic Energy  :      -4340.63127528371024 Eh         -118114.58183 eV
One Electron Energy:      -7746.25000313242072 Eh         -210786.17875 eV
Two Electron Energy:       3405.61872784871048 Eh           92671.59692 eV

Virial components:
Potential Energy   :      -2822.21933265474354 Eh          -76796.49230 eV
Kinetic Energy     :       1406.72753732426440 Eh           38279.00236 eV
Virial Ratio       :          2.00623024556901

DFT components:
N(Alpha)           :      108.999946074929 electrons
N(Beta)            :      108.999946074929 electrons
N(Total)           :      217.999892149857 electrons
E(X)               :     -147.936741547268 Eh       
E(C)               :       -8.817551315302 Eh       
E(XC)              :     -156.754292862570 Eh       

---------------
SCF CONVERGENCE
---------------

  Last Energy change         ...    8.0819e-08  Tolerance :   1.0000e-06
  Last MAX-Density change    ...    8.3299e-05  Tolerance :   1.0000e-05
  Last RMS-Density change    ...    1.4908e-06  Tolerance :   1.0000e-06
  Last DIIS Error            ...    2.8094e-03  Tolerance :   1.0000e-06
  Last Orbital Gradient      ...    4.2079e-05  Tolerance :   5.0000e-05
  Last Orbital Rotation      ...    6.4465e-05  Tolerance :   5.0000e-05


----------------
ORBITAL ENERGIES
----------------

  NO   OCC          E(Eh)            E(eV) 
   0   2.0000     -24.686523      -671.7544 
   1   2.0000     -19.178904      -521.8845 
   2   2.0000     -19.117943      -520.2257 
   3   2.0000     -19.109687      -520.0010 
   4   2.0000     -14.444266      -393.0484 
   5   2.0000     -14.355325      -390.6282 
   6   2.0000     -14.347006      -390.4019 
   7   2.0000     -10.315502      -280.6991 
   8   2.0000     -10.289585      -279.9939 
   9   2.0000     -10.256155      -279.0842 
  10   2.0000     -10.245584      -278.7965 
  11   2.0000     -10.226750      -278.2840 
  12   2.0000     -10.225896      -278.2608 
  13   2.0000     -10.225025      -278.2371 
  14   2.0000     -10.219219      -278.0791 
  15   2.0000     -10.209320      -277.8097 
  16   2.0000     -10.206785      -277.7407 
  17   2.0000     -10.205409      -277.7033 
  18   2.0000     -10.202241      -277.6171 
  19   2.0000     -10.195448      -277.4323 
  20   2.0000     -10.190207      -277.2896 
  21   2.0000     -10.188644      -277.2471 
  22   2.0000     -10.187907      -277.2270 
  23   2.0000     -10.187602      -277.2188 
  24   2.0000     -10.182927      -277.0915 
  25   2.0000     -10.181711      -277.0584 
  26   2.0000     -10.179863      -277.0081 
  27   2.0000     -10.179551      -276.9997 
  28   2.0000     -10.178375      -276.9677 
  29   2.0000     -10.178308      -276.9658 
  30   2.0000     -10.174752      -276.8691 
  31   2.0000      -1.200207       -32.6593 
  32   2.0000      -1.092059       -29.7164 
  33   2.0000      -1.062974       -28.9250 
  34   2.0000      -1.009339       -27.4655 
  35   2.0000      -0.976429       -26.5700 
  36   2.0000      -0.918370       -24.9901 
  37   2.0000      -0.895333       -24.3633 
  38   2.0000      -0.858561       -23.3626 
  39   2.0000      -0.846884       -23.0449 
  40   2.0000      -0.833375       -22.6773 
  41   2.0000      -0.792131       -21.5550 
  42   2.0000      -0.783471       -21.3193 
  43   2.0000      -0.767089       -20.8735 
  44   2.0000      -0.754143       -20.5213 
  45   2.0000      -0.742842       -20.2138 
  46   2.0000      -0.738861       -20.1054 
  47   2.0000      -0.716732       -19.5033 
  48   2.0000      -0.689505       -18.7624 
  49   2.0000      -0.677514       -18.4361 
  50   2.0000      -0.655499       -17.8370 
  51   2.0000      -0.648856       -17.6563 
  52   2.0000      -0.621501       -16.9119 
  53   2.0000      -0.621103       -16.9011 
  54   2.0000      -0.611219       -16.6321 
  55   2.0000      -0.603654       -16.4263 
  56   2.0000      -0.581915       -15.8347 
  57   2.0000      -0.576485       -15.6870 
  58   2.0000      -0.544577       -14.8187 
  59   2.0000      -0.531321       -14.4580 
  60   2.0000      -0.529571       -14.4104 
  61   2.0000      -0.524485       -14.2720 
  62   2.0000      -0.517591       -14.0844 
  63   2.0000      -0.495530       -13.4841 
  64   2.0000      -0.492152       -13.3921 
  65   2.0000      -0.489335       -13.3155 
  66   2.0000      -0.485880       -13.2215 
  67   2.0000      -0.479845       -13.0573 
  68   2.0000      -0.478955       -13.0330 
  69   2.0000      -0.459789       -12.5115 
  70   2.0000      -0.448835       -12.2134 
  71   2.0000      -0.445146       -12.1130 
  72   2.0000      -0.443005       -12.0548 
  73   2.0000      -0.442609       -12.0440 
  74   2.0000      -0.438969       -11.9450 
  75   2.0000      -0.434133       -11.8134 
  76   2.0000      -0.433075       -11.7846 
  77   2.0000      -0.423764       -11.5312 
  78   2.0000      -0.421840       -11.4789 
  79   2.0000      -0.417249       -11.3539 
  80   2.0000      -0.412755       -11.2316 
  81   2.0000      -0.405303       -11.0288 
  82   2.0000      -0.397438       -10.8148 
  83   2.0000      -0.391355       -10.6493 
  84   2.0000      -0.388775       -10.5791 
  85   2.0000      -0.385491       -10.4898 
  86   2.0000      -0.382096       -10.3974 
  87   2.0000      -0.376106       -10.2344 
  88   2.0000      -0.372513       -10.1366 
  89   2.0000      -0.359051        -9.7703 
  90   2.0000      -0.353961        -9.6318 
  91   2.0000      -0.351589        -9.5672 
  92   2.0000      -0.350366        -9.5340 
  93   2.0000      -0.343118        -9.3367 
  94   2.0000      -0.336478        -9.1560 
  95   2.0000      -0.334826        -9.1111 
  96   2.0000      -0.329900        -8.9770 
  97   2.0000      -0.314055        -8.5459 
  98   2.0000      -0.299273        -8.1436 
  99   2.0000      -0.293976        -7.9995 
 100   2.0000      -0.262130        -7.1329 
 101   2.0000      -0.256280        -6.9737 
 102   2.0000      -0.254405        -6.9227 
 103   2.0000      -0.253424        -6.8960 
 104   2.0000      -0.246288        -6.7018 
 105   2.0000      -0.240282        -6.5384 
 106   2.0000      -0.231645        -6.3034 
 107   2.0000      -0.219359        -5.9691 
 108   2.0000      -0.211155        -5.7458 
 109   0.0000      -0.053004        -1.4423 
 110   0.0000      -0.046761        -1.2724 
 111   0.0000      -0.023728        -0.6457 
 112   0.0000      -0.002615        -0.0712 
 113   0.0000       0.002214         0.0603 
 114   0.0000       0.011785         0.3207 
 115   0.0000       0.013796         0.3754 
 116   0.0000       0.051483         1.4009 
 117   0.0000       0.055303         1.5049 
 118   0.0000       0.081130         2.2077 
 119   0.0000       0.085497         2.3265 
*Only the first 10 virtual orbitals were printed.

                    ********************************
                    * MULLIKEN POPULATION ANALYSIS *
                    ********************************

-----------------------
MULLIKEN ATOMIC CHARGES
-----------------------
   0 C :   -0.467170
   1 C :   -0.046190
   2 C :    0.197282
   3 C :   -0.164406
   4 C :   -0.207992
   5 C :    0.406878
   6 F :   -0.322523
   7 C :   -0.208296
   8 C :   -0.154861
   9 N :   -0.452348
  10 C :   -0.222002
  11 C :    0.165710
  12 C :   -0.164222
  13 C :   -0.133794
  14 C :   -0.157904
  15 C :    0.072767
  16 C :    0.518860
  17 O :   -0.458643
  18 O :   -0.625035
  19 C :   -0.174712
  20 C :    0.514506
  21 O :   -0.475234
  22 C :    0.203263
  23 C :   -0.294784
  24 C :    0.401580
  25 C :   -0.196115
  26 C :   -0.122248
  27 C :   -0.174234
  28 C :    0.046838
  29 N :   -0.259361
  30 N :   -0.355233
  31 H :    0.164202
  32 H :    0.160682
  33 H :    0.148110
  34 H :    0.154945
  35 H :    0.126019
  36 H :    0.137030
  37 H :    0.139306
  38 H :    0.132397
  39 H :    0.182357
  40 H :    0.156840
  41 H :    0.124044
  42 H :    0.134167
  43 H :    0.159479
  44 H :    0.426899
  45 H :    0.157779
  46 H :    0.162399
  47 H :    0.156584
  48 H :    0.142183
  49 H :    0.153104
  50 H :    0.191100
Sum of atomic charges:   -0.0000000

--------------------------------
MULLIKEN REDUCED ORBITAL CHARGES
--------------------------------
  0 C s       :     3.312751  s :     3.312751
      pz      :     0.987969  p :     3.120441
      px      :     1.042908
      py      :     1.089565
      dz2     :     0.006067  d :     0.033978
      dxz     :     0.007856
      dyz     :     0.007596
      dx2y2   :     0.005967
      dxy     :     0.006493

  1 C s       :     3.199716  s :     3.199716
      pz      :     1.000718  p :     2.788009
      px      :     0.861114
      py      :     0.926177
      dz2     :     0.009190  d :     0.058466
      dxz     :     0.011213
      dyz     :     0.008991
      dx2y2   :     0.014176
      dxy     :     0.014896

  2 C s       :     3.125629  s :     3.125629
      pz      :     0.896541  p :     2.637660
      px      :     0.887296
      py      :     0.853822
      dz2     :     0.007364  d :     0.039429
      dxz     :     0.006201
      dyz     :     0.009083
      dx2y2   :     0.008380
      dxy     :     0.008401

  3 C s       :     3.192437  s :     3.192437
      pz      :     0.989062  p :     2.935843
      px      :     0.988644
      py      :     0.958138
      dz2     :     0.004906  d :     0.036126
      dxz     :     0.006942
      dyz     :     0.008281
      dx2y2   :     0.007849
      dxy     :     0.008147

  4 C s       :     3.202163  s :     3.202163
      pz      :     0.985837  p :     2.971095
      px      :     0.994922
      py      :     0.990336
      dz2     :     0.006393  d :     0.034733
      dxz     :     0.005718
      dyz     :     0.007751
      dx2y2   :     0.005315
      dxy     :     0.009557

  5 C s       :     3.080656  s :     3.080656
      pz      :     0.901423  p :     2.440157
      px      :     0.923218
      py      :     0.615516
      dz2     :     0.012159  d :     0.072308
      dxz     :     0.007996
      dyz     :     0.017411
      dx2y2   :     0.018255
      dxy     :     0.016487

  6 F s       :     3.970479  s :     3.970479
      pz      :     1.875652  p :     5.335004
      px      :     1.902231
      py      :     1.557121
      dz2     :     0.002212  d :     0.017040
      dxz     :     0.000720
      dyz     :     0.004793
      dx2y2   :     0.005147
      dxy     :     0.004168

  7 C s       :     3.203676  s :     3.203676
      pz      :     0.996078  p :     2.969969
      px      :     0.985558
      py      :     0.988333
      dz2     :     0.004520  d :     0.034650
      dxz     :     0.006143
      dyz     :     0.008751
      dx2y2   :     0.006983
      dxy     :     0.008252

  8 C s       :     3.194748  s :     3.194748
      pz      :     0.983768  p :     2.923946
      px      :     0.979775
      py      :     0.960403
      dz2     :     0.006197  d :     0.036167
      dxz     :     0.006152
      dyz     :     0.008082
      dx2y2   :     0.006566
      dxy     :     0.009170

  9 N s       :     3.580924  s :     3.580924
      pz      :     1.087810  p :     3.839031
      px      :     1.241602
      py      :     1.509619
      dz2     :     0.008204  d :     0.032393
      dxz     :     0.009528
      dyz     :     0.005902
      dx2y2   :     0.004349
      dxy     :     0.004410

 10 C s       :     3.231945  s :     3.231945
      pz      :     0.858214  p :     2.935928
      px      :     1.054864
      py      :     1.022850
      dz2     :     0.010859  d :     0.054129
      dxz     :     0.008925
      dyz     :     0.017190
      dx2y2   :     0.013012
      dxy     :     0.004143

 11 C s       :     3.139634  s :     3.139634
      pz      :     0.855721  p :     2.655441
      px      :     0.906532
      py      :     0.893189
      dz2     :     0.009665  d :     0.039215
      dxz     :     0.007386
      dyz     :     0.009920
      dx2y2   :     0.006403
      dxy     :     0.005841

 12 C s       :     3.207552  s :     3.207552
      pz      :     0.969448  p :     2.920444
      px      :     0.979183
      py      :     0.971813
      dz2     :     0.008340  d :     0.036226
      dxz     :     0.007493
      dyz     :     0.010333
      dx2y2   :     0.003532
      dxy     :     0.006528

 13 C s       :     3.192007  s :     3.192007
      pz      :     0.983915  p :     2.905561
      px      :     0.978223
      py      :     0.943423
      dz2     :     0.010751  d :     0.036225
      dxz     :     0.005249
      dyz     :     0.008082
      dx2y2   :     0.006235
      dxy     :     0.005909

 14 C s       :     3.213293  s :     3.213293
      pz      :     0.980970  p :     2.908650
      px      :     0.955172
      py      :     0.972508
      dz2     :     0.008837  d :     0.035961
      dxz     :     0.006776
      dyz     :     0.010368
      dx2y2   :     0.005097
      dxy     :     0.004883

 15 C s       :     3.165965  s :     3.165965
      pz      :     0.865391  p :     2.722898
      px      :     0.973321
      py      :     0.884185
      dz2     :     0.008659  d :     0.038370
      dxz     :     0.007743
      dyz     :     0.010962
      dx2y2   :     0.004707
      dxy     :     0.006300

 16 C s       :     3.003140  s :     3.003140
      pz      :     0.691775  p :     2.367631
      px      :     0.834149
      py      :     0.841707
      dz2     :     0.034170  d :     0.110369
      dxz     :     0.017802
      dyz     :     0.027890
      dx2y2   :     0.014107
      dxy     :     0.016401

 17 O s       :     3.874401  s :     3.874401
      pz      :     1.670126  p :     4.558911
      px      :     1.489983
      py      :     1.398802
      dz2     :     0.003471  d :     0.025330
      dxz     :     0.003031
      dyz     :     0.006134
      dx2y2   :     0.006768
      dxy     :     0.005928

 18 O s       :     3.872629  s :     3.872629
      pz      :     1.381737  p :     4.731460
      px      :     1.673446
      py      :     1.676277
      dz2     :     0.005294  d :     0.020946
      dxz     :     0.003679
      dyz     :     0.005563
      dx2y2   :     0.001036
      dxy     :     0.005374

 19 C s       :     3.234283  s :     3.234283
      pz      :     0.992852  p :     2.904736
      px      :     0.957746
      py      :     0.954137
      dz2     :     0.010106  d :     0.035693
      dxz     :     0.005464
      dyz     :     0.008055
      dx2y2   :     0.006270
      dxy     :     0.005799

 20 C s       :     3.035758  s :     3.035758
      pz      :     0.697990  p :     2.351656
      px      :     0.830743
      py      :     0.822922
      dz2     :     0.030361  d :     0.098080
      dxz     :     0.023438
      dyz     :     0.025208
      dx2y2   :     0.008149
      dxy     :     0.010924

 21 O s       :     3.890263  s :     3.890263
      pz      :     1.459589  p :     4.559330
      px      :     1.560522
      py      :     1.539219
      dz2     :     0.007258  d :     0.025642
      dxz     :     0.006397
      dyz     :     0.007579
      dx2y2   :     0.002460
      dxy     :     0.001949

 22 C s       :     3.101061  s :     3.101061
      pz      :     0.858459  p :     2.638962
      px      :     0.945079
      py      :     0.835425
      dz2     :     0.013895  d :     0.056714
      dxz     :     0.010578
      dyz     :     0.014264
      dx2y2   :     0.007694
      dxy     :     0.010283

 23 C s       :     3.240527  s :     3.240527
      pz      :     1.009446  p :     3.018580
      px      :     1.019142
      py      :     0.989991
      dz2     :     0.008818  d :     0.035678
      dxz     :     0.006881
      dyz     :     0.008832
      dx2y2   :     0.006305
      dxy     :     0.004842

 24 C s       :     2.981281  s :     2.981281
      pz      :     0.717595  p :     2.555207
      px      :     0.923625
      py      :     0.913988
      dz2     :     0.017800  d :     0.061932
      dxz     :     0.012010
      dyz     :     0.011824
      dx2y2   :     0.010317
      dxy     :     0.009981

 25 C s       :     3.200339  s :     3.200339
      pz      :     1.001874  p :     2.959792
      px      :     0.988695
      py      :     0.969223
      dz2     :     0.008611  d :     0.035984
      dxz     :     0.006434
      dyz     :     0.008132
      dx2y2   :     0.006928
      dxy     :     0.005879

 26 C s       :     3.190015  s :     3.190015
      pz      :     0.930301  p :     2.896289
      px      :     0.990290
      py      :     0.975698
      dz2     :     0.008235  d :     0.035944
      dxz     :     0.007844
      dyz     :     0.008678
      dx2y2   :     0.004047
      dxy     :     0.007140

 27 C s       :     3.209363  s :     3.209363
      pz      :     0.944363  p :     2.929842
      px      :     0.979364
      py      :     1.006115
      dz2     :     0.007587  d :     0.035030
      dxz     :     0.006927
      dyz     :     0.009603
      dx2y2   :     0.005225
      dxy     :     0.005687

 28 C s       :     3.105934  s :     3.105934
      pz      :     0.957868  p :     2.798064
      px      :     0.968627
      py      :     0.871569
      dz2     :     0.010072  d :     0.049164
      dxz     :     0.008929
      dyz     :     0.011007
      dx2y2   :     0.011276
      dxy     :     0.007880

 29 N s       :     3.532651  s :     3.532651
      pz      :     1.195884  p :     3.654106
      px      :     1.258267
      py      :     1.199955
      dz2     :     0.014922  d :     0.072603
      dxz     :     0.013007
      dyz     :     0.015378
      dx2y2   :     0.017094
      dxy     :     0.012201

 30 N s       :     3.724664  s :     3.724664
      pz      :     1.429087  p :     3.577322
      px      :     1.127092
      py      :     1.021143
      dz2     :     0.009584  d :     0.053248
      dxz     :     0.010352
      dyz     :     0.013230
      dx2y2   :     0.010055
      dxy     :     0.010026

 31 H s       :     0.835798  s :     0.835798

 32 H s       :     0.839318  s :     0.839318

 33 H s       :     0.851890  s :     0.851890

 34 H s       :     0.845055  s :     0.845055

 35 H s       :     0.873981  s :     0.873981

 36 H s       :     0.862970  s :     0.862970

 37 H s       :     0.860694  s :     0.860694

 38 H s       :     0.867603  s :     0.867603

 39 H s       :     0.817643  s :     0.817643

 40 H s       :     0.843160  s :     0.843160

 41 H s       :     0.875956  s :     0.875956

 42 H s       :     0.865833  s :     0.865833

 43 H s       :     0.840521  s :     0.840521

 44 H s       :     0.573101  s :     0.573101

 45 H s       :     0.842221  s :     0.842221

 46 H s       :     0.837601  s :     0.837601

 47 H s       :     0.843416  s :     0.843416

 48 H s       :     0.857817  s :     0.857817

 49 H s       :     0.846896  s :     0.846896

 50 H s       :     0.808900  s :     0.808900



                     *******************************
                     * LOEWDIN POPULATION ANALYSIS *
                     *******************************

----------------------
LOEWDIN ATOMIC CHARGES
----------------------
   0 C :   -0.358355
   1 C :   -0.042954
   2 C :   -0.014471
   3 C :   -0.126810
   4 C :   -0.158128
   5 C :    0.110948
   6 F :   -0.108459
   7 C :   -0.156357
   8 C :   -0.116168
   9 N :   -0.099948
  10 C :   -0.152745
  11 C :   -0.020125
  12 C :   -0.119058
  13 C :   -0.131887
  14 C :   -0.099641
  15 C :   -0.061039
  16 C :    0.178418
  17 O :   -0.275320
  18 O :   -0.338154
  19 C :   -0.096192
  20 C :    0.143972
  21 O :   -0.271549
  22 C :   -0.034205
  23 C :   -0.178089
  24 C :    0.003371
  25 C :   -0.119980
  26 C :   -0.132028
  27 C :   -0.149103
  28 C :   -0.069525
  29 N :    0.135006
  30 N :   -0.154207
  31 H :    0.134638
  32 H :    0.138000
  33 H :    0.125010
  34 H :    0.134262
  35 H :    0.130257
  36 H :    0.139586
  37 H :    0.140927
  38 H :    0.134801
  39 H :    0.147491
  40 H :    0.129488
  41 H :    0.130056
  42 H :    0.134599
  43 H :    0.149547
  44 H :    0.344780
  45 H :    0.148658
  46 H :    0.156301
  47 H :    0.149014
  48 H :    0.138487
  49 H :    0.146685
  50 H :    0.160197

-------------------------------
LOEWDIN REDUCED ORBITAL CHARGES
-------------------------------
  0 C s       :     2.988204  s :     2.988204
      pz      :     1.069465  p :     3.304310
      px      :     1.100828
      py      :     1.134018
      dz2     :     0.012695  d :     0.065840
      dxz     :     0.016282
      dyz     :     0.014354
      dx2y2   :     0.010854
      dxy     :     0.011656

  1 C s       :     2.886389  s :     2.886389
      pz      :     1.072925  p :     3.028905
      px      :     0.949763
      py      :     1.006217
      dz2     :     0.020633  d :     0.127660
      dxz     :     0.025012
      dyz     :     0.018352
      dx2y2   :     0.031662
      dxy     :     0.032002

  2 C s       :     2.883056  s :     2.883056
      pz      :     1.009910  p :     3.033119
      px      :     1.013426
      py      :     1.009782
      dz2     :     0.017157  d :     0.098296
      dxz     :     0.016694
      dyz     :     0.022048
      dx2y2   :     0.021559
      dxy     :     0.020838

  3 C s       :     2.913787  s :     2.913787
      pz      :     1.041210  p :     3.128620
      px      :     1.037223
      py      :     1.050187
      dz2     :     0.011120  d :     0.084403
      dxz     :     0.013518
      dyz     :     0.019335
      dx2y2   :     0.019442
      dxy     :     0.020988

  4 C s       :     2.920430  s :     2.920430
      pz      :     1.041901  p :     3.155523
      px      :     1.048438
      py      :     1.065184
      dz2     :     0.014474  d :     0.082176
      dxz     :     0.012707
      dyz     :     0.020083
      dx2y2   :     0.013917
      dxy     :     0.020996

  5 C s       :     2.864902  s :     2.864902
      pz      :     1.012012  p :     2.845031
      px      :     1.032025
      py      :     0.800994
      dz2     :     0.028920  d :     0.179119
      dxz     :     0.019122
      dyz     :     0.044360
      dx2y2   :     0.044449
      dxy     :     0.042267

  6 F s       :     3.734538  s :     3.734538
      pz      :     1.870909  p :     5.339618
      px      :     1.895821
      py      :     1.572889
      dz2     :     0.004429  d :     0.034303
      dxz     :     0.001415
      dyz     :     0.009649
      dx2y2   :     0.010467
      dxy     :     0.008344

  7 C s       :     2.921112  s :     2.921112
      pz      :     1.049413  p :     3.153354
      px      :     1.041727
      py      :     1.062213
      dz2     :     0.010077  d :     0.081891
      dxz     :     0.012485
      dyz     :     0.020158
      dx2y2   :     0.017921
      dxy     :     0.021249

  8 C s       :     2.916595  s :     2.916595
      pz      :     1.027951  p :     3.115120
      px      :     1.036066
      py      :     1.051104
      dz2     :     0.013866  d :     0.084453
      dxz     :     0.012708
      dyz     :     0.020897
      dx2y2   :     0.016578
      dxy     :     0.020405

  9 N s       :     3.124381  s :     3.124381
      pz      :     1.141646  p :     3.895064
      px      :     1.279095
      py      :     1.474324
      dz2     :     0.022434  d :     0.080503
      dxz     :     0.025038
      dyz     :     0.014057
      dx2y2   :     0.008990
      dxy     :     0.009984

 10 C s       :     2.922294  s :     2.922294
      pz      :     0.950722  p :     3.116929
      px      :     1.091938
      py      :     1.074269
      dz2     :     0.023047  d :     0.113523
      dxz     :     0.019714
      dyz     :     0.037000
      dx2y2   :     0.025690
      dxy     :     0.008071

 11 C s       :     2.885624  s :     2.885624
      pz      :     1.045727  p :     3.035896
      px      :     0.980382
      py      :     1.009787
      dz2     :     0.025937  d :     0.098605
      dxz     :     0.018978
      dyz     :     0.026138
      dx2y2   :     0.013804
      dxy     :     0.013748

 12 C s       :     2.917907  s :     2.917907
      pz      :     1.059134  p :     3.116400
      px      :     1.008675
      py      :     1.048592
      dz2     :     0.021530  d :     0.084751
      dxz     :     0.016045
      dyz     :     0.026328
      dx2y2   :     0.007890
      dxy     :     0.012957

 13 C s       :     2.916069  s :     2.916069
      pz      :     1.066685  p :     3.130166
      px      :     1.015279
      py      :     1.048202
      dz2     :     0.023098  d :     0.085652
      dxz     :     0.011473
      dyz     :     0.020539
      dx2y2   :     0.014750
      dxy     :     0.015792

 14 C s       :     2.919073  s :     2.919073
      pz      :     1.050301  p :     3.096821
      px      :     0.992797
      py      :     1.053723
      dz2     :     0.022561  d :     0.083747
      dxz     :     0.016859
      dyz     :     0.024128
      dx2y2   :     0.009819
      dxy     :     0.010380

 15 C s       :     2.876652  s :     2.876652
      pz      :     1.050549  p :     3.084405
      px      :     1.008189
      py      :     1.025667
      dz2     :     0.024082  d :     0.099982
      dxz     :     0.018778
      dyz     :     0.030350
      dx2y2   :     0.010919
      dxy     :     0.015853

 16 C s       :     2.865346  s :     2.865346
      pz      :     0.874173  p :     2.703272
      px      :     0.867017
      py      :     0.962081
      dz2     :     0.080394  d :     0.252964
      dxz     :     0.038615
      dyz     :     0.067502
      dx2y2   :     0.029976
      dxy     :     0.036478

 17 O s       :     3.591752  s :     3.591752
      pz      :     1.684786  p :     4.634007
      px      :     1.492444
      py      :     1.456777
      dz2     :     0.006574  d :     0.049561
      dxz     :     0.005097
      dyz     :     0.014347
      dx2y2   :     0.011980
      dxy     :     0.011563

 18 O s       :     3.541095  s :     3.541095
      pz      :     1.409812  p :     4.755086
      px      :     1.667534
      py      :     1.677740
      dz2     :     0.013852  d :     0.041973
      dxz     :     0.007984
      dyz     :     0.011264
      dx2y2   :     0.001363
      dxy     :     0.007509

 19 C s       :     2.921413  s :     2.921413
      pz      :     1.079966  p :     3.092619
      px      :     0.987899
      py      :     1.024754
      dz2     :     0.021591  d :     0.082161
      dxz     :     0.011460
      dyz     :     0.019873
      dx2y2   :     0.014122
      dxy     :     0.015115

 20 C s       :     2.866938  s :     2.866938
      pz      :     0.939133  p :     2.762551
      px      :     0.896660
      py      :     0.926758
      dz2     :     0.074123  d :     0.226539
      dxz     :     0.053243
      dyz     :     0.058639
      dx2y2   :     0.016428
      dxy     :     0.024106

 21 O s       :     3.588882  s :     3.588882
      pz      :     1.520825  p :     4.632520
      px      :     1.557164
      py      :     1.554530
      dz2     :     0.015679  d :     0.050147
      dxz     :     0.010601
      dyz     :     0.016691
      dx2y2   :     0.003776
      dxy     :     0.003401

 22 C s       :     2.875155  s :     2.875155
      pz      :     1.016991  p :     3.019635
      px      :     1.011414
      py      :     0.991229
      dz2     :     0.034764  d :     0.139415
      dxz     :     0.026913
      dyz     :     0.037446
      dx2y2   :     0.016912
      dxy     :     0.023381

 23 C s       :     2.911081  s :     2.911081
      pz      :     1.076574  p :     3.182277
      px      :     1.053378
      py      :     1.052325
      dz2     :     0.020042  d :     0.084730
      dxz     :     0.017290
      dyz     :     0.019937
      dx2y2   :     0.014860
      dxy     :     0.012602

 24 C s       :     2.832583  s :     2.832583
      pz      :     0.949835  p :     3.010473
      px      :     1.025104
      py      :     1.035534
      dz2     :     0.045178  d :     0.153574
      dxz     :     0.031294
      dyz     :     0.030591
      dx2y2   :     0.022465
      dxy     :     0.024045

 25 C s       :     2.915216  s :     2.915216
      pz      :     1.067008  p :     3.120793
      px      :     1.017776
      py      :     1.036009
      dz2     :     0.018710  d :     0.083972
      dxz     :     0.014374
      dyz     :     0.019371
      dx2y2   :     0.016043
      dxy     :     0.015474

 26 C s       :     2.919922  s :     2.919922
      pz      :     1.052593  p :     3.128205
      px      :     1.031114
      py      :     1.044498
      dz2     :     0.020907  d :     0.083901
      dxz     :     0.017453
      dyz     :     0.022275
      dx2y2   :     0.008851
      dxy     :     0.014415

 27 C s       :     2.920745  s :     2.920745
      pz      :     1.058545  p :     3.145836
      px      :     1.033477
      py      :     1.053814
      dz2     :     0.019454  d :     0.082521
      dxz     :     0.018048
      dyz     :     0.021889
      dx2y2   :     0.010722
      dxy     :     0.012409

 28 C s       :     2.907499  s :     2.907499
      pz      :     1.056651  p :     3.049545
      px      :     1.025611
      py      :     0.967283
      dz2     :     0.021727  d :     0.112481
      dxz     :     0.018735
      dyz     :     0.026260
      dx2y2   :     0.025114
      dxy     :     0.020645

 29 N s       :     3.017487  s :     3.017487
      pz      :     1.207435  p :     3.672869
      px      :     1.249362
      py      :     1.216073
      dz2     :     0.038353  d :     0.174638
      dxz     :     0.033161
      dyz     :     0.038159
      dx2y2   :     0.035999
      dxy     :     0.028966

 30 N s       :     3.262184  s :     3.262184
      pz      :     1.470163  p :     3.775337
      px      :     1.201911
      py      :     1.103264
      dz2     :     0.017901  d :     0.116686
      dxz     :     0.018541
      dyz     :     0.029255
      dx2y2   :     0.023968
      dxy     :     0.027022

 31 H s       :     0.865362  s :     0.865362

 32 H s       :     0.862000  s :     0.862000

 33 H s       :     0.874990  s :     0.874990

 34 H s       :     0.865738  s :     0.865738

 35 H s       :     0.869743  s :     0.869743

 36 H s       :     0.860414  s :     0.860414

 37 H s       :     0.859073  s :     0.859073

 38 H s       :     0.865199  s :     0.865199

 39 H s       :     0.852509  s :     0.852509

 40 H s       :     0.870512  s :     0.870512

 41 H s       :     0.869944  s :     0.869944

 42 H s       :     0.865401  s :     0.865401

 43 H s       :     0.850453  s :     0.850453

 44 H s       :     0.655220  s :     0.655220

 45 H s       :     0.851342  s :     0.851342

 46 H s       :     0.843699  s :     0.843699

 47 H s       :     0.850986  s :     0.850986

 48 H s       :     0.861513  s :     0.861513

 49 H s       :     0.853315  s :     0.853315

 50 H s       :     0.839803  s :     0.839803



                      *****************************
                      * MAYER POPULATION ANALYSIS *
                      *****************************

  NA   - Mulliken gross atomic population
  ZA   - Total nuclear charge
  QA   - Mulliken gross atomic charge
  VA   - Mayer's total valence
  BVA  - Mayer's bonded valence
  FA   - Mayer's free valence

  ATOM       NA         ZA         QA         VA         BVA        FA
  0 C      6.4672     6.0000    -0.4672     3.8245     3.8245     0.0000
  1 C      6.0462     6.0000    -0.0462     3.8870     3.8870     0.0000
  2 C      5.8027     6.0000     0.1973     3.9025     3.9025     0.0000
  3 C      6.1644     6.0000    -0.1644     3.9170     3.9170    -0.0000
  4 C      6.2080     6.0000    -0.2080     3.8912     3.8912    -0.0000
  5 C      5.5931     6.0000     0.4069     3.8315     3.8315    -0.0000
  6 F      9.3225     9.0000    -0.3225     1.0391     1.0391    -0.0000
  7 C      6.2083     6.0000    -0.2083     3.8861     3.8861     0.0000
  8 C      6.1549     6.0000    -0.1549     3.9304     3.9304     0.0000
  9 N      7.4523     7.0000    -0.4523     3.0161     3.0161     0.0000
 10 C      6.2220     6.0000    -0.2220     3.8141     3.8141    -0.0000
 11 C      5.8343     6.0000     0.1657     3.8928     3.8928    -0.0000
 12 C      6.1642     6.0000    -0.1642     3.9153     3.9153     0.0000
 13 C      6.1338     6.0000    -0.1338     3.9185     3.9185    -0.0000
 14 C      6.1579     6.0000    -0.1579     3.9225     3.9225     0.0000
 15 C      5.9272     6.0000     0.0728     3.9069     3.9069     0.0000
 16 C      5.4811     6.0000     0.5189     3.9486     3.9486    -0.0000
 17 O      8.4586     8.0000    -0.4586     2.0575     2.0575    -0.0000
 18 O      8.6250     8.0000    -0.6250     1.8620     1.8620     0.0000
 19 C      6.1747     6.0000    -0.1747     3.8761     3.8761    -0.0000
 20 C      5.4855     6.0000     0.5145     3.8777     3.8777    -0.0000
 21 O      8.4752     8.0000    -0.4752     2.0598     2.0598     0.0000
 22 C      5.7967     6.0000     0.2033     3.8158     3.8158     0.0000
 23 C      6.2948     6.0000    -0.2948     3.8829     3.8829     0.0000
 24 C      5.5984     6.0000     0.4016     3.7826     3.7826     0.0000
 25 C      6.1961     6.0000    -0.1961     3.9052     3.9052     0.0000
 26 C      6.1222     6.0000    -0.1222     3.9168     3.9168    -0.0000
 27 C      6.1742     6.0000    -0.1742     3.9365     3.9365     0.0000
 28 C      5.9532     6.0000     0.0468     3.7974     3.7974    -0.0000
 29 N      7.2594     7.0000    -0.2594     3.5385     3.5385    -0.0000
 30 N      7.3552     7.0000    -0.3552     2.7974     2.7974     0.0000
 31 H      0.8358     1.0000     0.1642     0.9408     0.9408     0.0000
 32 H      0.8393     1.0000     0.1607     0.9368     0.9368     0.0000
 33 H      0.8519     1.0000     0.1481     0.9401     0.9401    -0.0000
 34 H      0.8451     1.0000     0.1549     0.9344     0.9344     0.0000
 35 H      0.8740     1.0000     0.1260     0.9406     0.9406     0.0000
 36 H      0.8630     1.0000     0.1370     0.9380     0.9380    -0.0000
 37 H      0.8607     1.0000     0.1393     0.9376     0.9376     0.0000
 38 H      0.8676     1.0000     0.1324     0.9397     0.9397    -0.0000
 39 H      0.8176     1.0000     0.1824     0.9342     0.9342    -0.0000
 40 H      0.8432     1.0000     0.1568     0.9318     0.9318    -0.0000
 41 H      0.8760     1.0000     0.1240     0.9385     0.9385    -0.0000
 42 H      0.8658     1.0000     0.1342     0.9368     0.9368    -0.0000
 43 H      0.8405     1.0000     0.1595     0.9432     0.9432     0.0000
 44 H      0.5731     1.0000     0.4269     0.8016     0.8016    -0.0000
 45 H      0.8422     1.0000     0.1578     0.9524     0.9524     0.0000
 46 H      0.8376     1.0000     0.1624     0.9476     0.9476     0.0000
 47 H      0.8434     1.0000     0.1566     0.9351     0.9351     0.0000
 48 H      0.8578     1.0000     0.1422     0.9362     0.9362    -0.0000
 49 H      0.8469     1.0000     0.1531     0.9383     0.9383     0.0000
 50 H      0.8089     1.0000     0.1911     0.9296     0.9296    -0.0000

  Mayer bond orders larger than 0.100000
B(  0-C ,  1-C ) :   1.0013 B(  0-C , 31-H ) :   0.9270 B(  0-C , 32-H ) :   0.9416 
B(  0-C , 33-H ) :   0.9395 B(  1-C ,  2-C ) :   0.9450 B(  1-C ,  9-N ) :   0.9306 
B(  1-C , 34-H ) :   0.9189 B(  2-C ,  3-C ) :   1.4223 B(  2-C ,  8-C ) :   1.4262 
B(  3-C ,  4-C ) :   1.4228 B(  3-C , 35-H ) :   0.9214 B(  4-C ,  5-C ) :   1.3945 
B(  4-C , 36-H ) :   0.9221 B(  5-C ,  6-F ) :   0.9129 B(  5-C ,  7-C ) :   1.3956 
B(  7-C ,  8-C ) :   1.4200 B(  7-C , 37-H ) :   0.9215 B(  8-C , 38-H ) :   0.9237 
B(  9-N , 10-C ) :   0.9534 B(  9-N , 20-C ) :   1.0259 B( 10-C , 11-C ) :   0.9458 
B( 10-C , 39-H ) :   0.9094 B( 10-C , 40-H ) :   0.9186 B( 11-C , 12-C ) :   1.4219 
B( 11-C , 19-C ) :   1.4032 B( 12-C , 13-C ) :   1.4221 B( 12-C , 41-H ) :   0.9271 
B( 13-C , 14-C ) :   1.4392 B( 13-C , 42-H ) :   0.9294 B( 14-C , 15-C ) :   1.3988 
B( 14-C , 43-H ) :   0.9137 B( 15-C , 16-C ) :   1.0122 B( 15-C , 19-C ) :   1.3657 
B( 16-C , 17-O ) :   1.8551 B( 16-C , 18-O ) :   1.0156 B( 18-O , 44-H ) :   0.7461 
B( 19-C , 45-H ) :   0.9015 B( 20-C , 21-O ) :   1.8006 B( 20-C , 22-C ) :   0.9808 
B( 22-C , 23-C ) :   1.3798 B( 22-C , 30-N ) :   1.3018 B( 23-C , 24-C ) :   1.3364 
B( 23-C , 46-H ) :   0.9285 B( 24-C , 25-C ) :   1.2790 B( 24-C , 29-N ) :   1.0252 
B( 25-C , 26-C ) :   1.5357 B( 25-C , 28-C ) :   0.1087 B( 25-C , 47-H ) :   0.9248 
B( 26-C , 27-C ) :   1.3101 B( 26-C , 48-H ) :   0.9289 B( 27-C , 28-C ) :   1.5604 
B( 27-C , 49-H ) :   0.9293 B( 28-C , 29-N ) :   1.1363 B( 28-C , 50-H ) :   0.9165 
B( 29-N , 30-N ) :   1.1912 

-------
TIMINGS
-------

Total SCF time: 0 days 0 hours 8 min 39 sec 

Total time                  ....     519.359 sec
Sum of individual times     ....     519.076 sec  ( 99.9%)

SCF preparation             ....       0.311 sec  (  0.1%)
Fock matrix formation       ....     516.896 sec  ( 99.5%)
  Startup                   ....       0.103 sec  (  0.0% of F)
  Split-RI-J                ....      65.465 sec  ( 12.7% of F)
  Chain of spheres X        ....     404.484 sec  ( 78.3% of F)
  XC integration            ....      46.158 sec  (  8.9% of F)
    XC Preparation          ....       0.000 sec  (  0.0% of XC)
    Basis function eval.    ....      18.099 sec  ( 39.2% of XC)
    Density eval.           ....      11.913 sec  ( 25.8% of XC)
    XC-Functional eval.     ....       2.302 sec  (  5.0% of XC)
    XC-Potential eval.      ....      11.971 sec  ( 25.9% of XC)
Diagonalization             ....       0.000 sec  (  0.0%)
Density matrix formation    ....       0.271 sec  (  0.1%)
Total Energy calculation    ....       0.059 sec  (  0.0%)
Population analysis         ....       0.070 sec  (  0.0%)
Orbital Transformation      ....       0.161 sec  (  0.0%)
Orbital Orthonormalization  ....       0.000 sec  (  0.0%)
DIIS solution               ....       0.768 sec  (  0.1%)
SOSCF solution              ....       0.541 sec  (  0.1%)
Finished LeanSCF after 519.4 sec

Maximum memory used throughout the entire LEANSCF-calculation: 81.4 MB

-------------------------   --------------------
FINAL SINGLE POINT ENERGY     -1415.491795330479
-------------------------   --------------------


------------------------------------------------------------------------------
                              ORCA PROPERTY CALCULATIONS
------------------------------------------------------------------------------

GBWName                                 ... /home/nmrbox/aojoawo/Documents/ERDOS/inputs/CHEMBL3577881.gbw
Number of atoms                         ...     51
Number of basis functions               ...    474
Max core memory                         ...   1024 MB

Electric properties:
Dipole moment                           ... YES
Quadrupole moment                       ...  NO
Static polarizability (Dipole/Dipole)   ...  NO
Static polarizability (Dipole/Quad.)    ...  NO
Static polarizability (Quad./Quad.)     ...  NO
Static polarizability (Velocity)        ...  NO

Atomic electric properties:
Dipole moment                           ...  NO
Quadrupole moment                       ...  NO
Static polarizability                   ...  NO

Choice of electric origin               ... Center of mass
Position of electric origin             ...     0.034276    -0.041148     0.379567

General magnetic properties:
Magnetizability                         ...  NO

EPR properties:
g-Tensor (aka g-matrix)                 ...  NO
Zero-Field splitting spin-orbit         ...  NO
Zero-field splitting spin-spin          ...  NO
Hyperfine couplings                     ...  NO (   0 nuclei)
Quadrupole couplings                    ...  NO (   0 nuclei)
Contact density                         ...  NO (   0 nuclei)

NMR properties:
Chemical shifts                         ...  NO (   0 nuclei)
Spin-rotation constants                 ...  NO (   0 nuclei)
Spin-spin couplings                     ...  NO (   0 nuclei,    0 pairs)

Choice of magnetic origin               ... GIAO
Position of magnetic origin             ...     0.000000     0.000000     0.000000

Properties with geometric perturbations:
SCF Hessian                             ...  NO
IR spectrum                             ...  NO
VCD spectrum                            ...  NO
X-ray spectroscopy properties:
SCF XES/XAS/RIXS spectra                ...  NO


-------------
DIPOLE MOMENT
-------------

Method             : SCF
Type of density    : Electron Density
Multiplicity       :   1
Irrep              :   0
Energy             : -1415.4917953304791354 Eh
Relativity type    : 
Basis              : AO
                                X                 Y                 Z
Electronic contribution:     -1.556166312      -5.398350217       8.999652510
Nuclear contribution   :      0.268757207       6.380902189      -9.409586203
                        -----------------------------------------
Total Dipole Moment    :     -1.287409105       0.982551972      -0.409933693
                        -----------------------------------------
Magnitude (a.u.)       :      1.670591576
Magnitude (Debye)      :      4.246306328



--------------------
Rotational spectrum 
--------------------
 
Rotational constants in cm-1:             0.006172             0.003116             0.002400 
Rotational constants in MHz :           185.033977            93.429422            71.943411 

Dipole components along the rotational axes: 
x,y,z [a.u.] :    -1.278853    -0.705327    -0.811126 
x,y,z [Debye]:    -3.250585    -1.792799    -2.061719 

 

Dipole moment calculation done in   0.0 sec 

Maximum memory used throughout the entire PROP-calculation: 39.4 MB

--------------------------------
SUGGESTED CITATIONS FOR THIS RUN
--------------------------------

Below you find a list of papers that are relevant to this ORCA run
We neither can nor want to force you to cite these papers, but we appreciate if you do
You receive ORCA, which is the product of decades of hard work by many enthusiastic individuals, for free
The only thing we kindly ask in return is that you cite our papers,
We deeply appreciate it, if you show your appreciation for ORCA by not just citing the generic ORCA reference.

Please note that relegating all ORCA citations to the supporting information does *not* help us.
SI sections are not indexed - citations you put there will not count into any citation statistics
But we need these citations in order to attract the funding resources that allow us to do what we are doing

Therefore, if you are a happy ORCA user, please consider citing a few of the papers listed below in the main body of your paper

In addition to the list printed below, the program has created the file /home/nmrbox/aojoawo/Documents/ERDOS/inputs/CHEMBL3577881.bibtex that contains the list in bibtex format
You can import this file easily into all common literature databanks and citation aid programs


List of essential papers. We consider these as the minimum necessary citations

  1. Neese,F.
     Software update: the ORCA program system, version 5.0
     WIRES Comput. Molec. Sci., 2022 12(1)e1606
     doi.org/10.1002/wcms.1606

List of papers to cite with high priority. The work reported in these papers was absolutely
necessary for this run to complete.
Our perspective: the developers of density functionals and basis sets usually get cited in chemistry papers
Good! But without the algorithms to do something with them, the functionals or basis sets would not do anything.
Hence, in our opinion, the algorithm design and method developments papers are equally worthy of getting cited

  1. Neese,F.
     An improvement of the resolution of the identity approximation for the formation of the Coulomb matrix
     J. Comp. Chem., 2003 24(14)1740-1747
     doi.org/10.1002/jcc.10318
  2. Neese,F.; Wennmohs,F.; Hansen,A.; Becker,U.
     Efficient, approximate and parallel Hartree-Fock and hybrid DFT calculations. A 'chain-of-spheres' algorithm for the Hartree-Fock exchange
     Chem. Phys., 2009 356(1-3)98-109
     doi.org/10.1016/j.chemphys.2008.10.036
  3. Helmich-Paris,B.; de Souza,B.; Neese,F.; Izsák,R.
     An improved chain of spheres for exchange algorithm
     J. Chem. Phys., 2021 155 104109
     doi.org/doi: 10.1063/5.0058766.
  4. Neese,F.
     The SHARK Integral Generation and Digestion System
     J. Comp. Chem., 2022  1-16
     doi.org/10.1002/jcc.26942

List of suggested additional citations. These are papers that are important in the 'surrounding' of 
of this run, or papers that preceded the highly important papers. If you like your results we are grateful for a citation.

  1. Izsak,R.; Neese,F.
     An overlap fitted chain of spheres exchange method
     J. Chem. Phys., 2011 135 144105
     doi.org/10.1063/1.3646921
  2. Izsak,R.; Hansen,A.; Neese,F.
     The resolution of identity and chain of spheres approximations for the LPNO-CCSD singles Fock term
     Molec. Phys., 2012 110 2413-2417
     doi.org/10.1080/00268976.2012.687466
  3. Neese,F.
     The ORCA program system
     WIRES Comput. Molec. Sci., 2012 2(1)73-78
     doi.org/10.1002/wcms.81
  4. Izsak,R.; Neese,F.; Klopper,W.
     Robust fitting techniques in the chain of spheres approximation to the Fock exchange: The role of the complementary space
     J. Chem. Phys., 2013 139 
     doi.org/10.1063/1.4819264
  5. Neese,F.
     Software update: the ORCA program system, version 4.0
     WIRES Comput. Molec. Sci., 2018 8(1)1-6
     doi.org/10.1002/wcms.1327
  6. Neese,F.; Wennmohs,F.; Becker,U.; Riplinger,C.
     The ORCA quantum chemistry program package
     J. Chem. Phys., 2020 152 Art. No. L224108
     doi.org/10.1063/5.0004608

List of optional additional citations

  1. Neese,F.
     Approximate second-order SCF convergence for spin unrestricted wavefunctions
     Chem. Phys. Lett., 2000 325(1-3)93-98
     doi.org/10.1016/s0009-2614(00)00662-x

Timings for individual modules:

Sum of individual times          ...      539.785 sec (=   8.996 min)
Startup calculation              ...       13.288 sec (=   0.221 min)   2.5 %
SCF iterations                   ...      526.315 sec (=   8.772 min)  97.5 %
Property calculations            ...        0.183 sec (=   0.003 min)   0.0 %
                             ****ORCA TERMINATED NORMALLY****
TOTAL RUN TIME: 0 days 0 hours 9 minutes 0 seconds 371 msec
