
                                 *****************
                                 * O   R   C   A *
                                 *****************

                                            #,                                       
                                            ###                                      
                                            ####                                     
                                            #####                                    
                                            ######                                   
                                           ########,                                 
                                     ,,################,,,,,                         
                               ,,#################################,,                 
                          ,,##########################################,,             
                       ,#########################################, ''#####,          
                    ,#############################################,,   '####,        
                  ,##################################################,,,,####,       
                ,###########''''           ''''###############################       
              ,#####''   ,,,,##########,,,,          '''####'''          '####       
            ,##' ,,,,###########################,,,                        '##       
           ' ,,###''''                  '''############,,,                           
         ,,##''                                '''############,,,,        ,,,,,,###''
      ,#''                                            '''#######################'''  
     '                                                          ''''####''''         
             ,#######,   #######,   ,#######,      ##                                
            ,#'     '#,  ##    ##  ,#'     '#,    #''#        ,####,   ,####,        
            ##       ##  ##   ,#'  ##            #'  '#       #'       #'  '#        
            ##       ##  #######   ##           ,######,      #####,   #    #        
            '#,     ,#'  ##    ##  '#,     ,#' ,#      #,     #,   #   #,  ,#        
             '#######'   ##     ##  '#######'  #'      '#     '####' # '####'        



                #########################################################
                #                        -***-                          #
                #          Department of theory and spectroscopy        #
                #                                                       #
                #                      Frank Neese                      #
                #                                                       #
                #     Directorship, Architecture, Infrastructure        #
                #                    SHARK, DRIVERS                     #
                #        Core code/Algorithms in most modules           #
                #                                                       #
                #        Max Planck Institute fuer Kohlenforschung      #
                #                Kaiser Wilhelm Platz 1                 #
                #                 D-45470 Muelheim/Ruhr                 #
                #                      Germany                          #
                #                                                       #
                #                  All rights reserved                  #
                #                        -***-                          #
                #########################################################


                         Program Version 6.0.0  -   RELEASE  -


 With contributions from (in alphabetic order):
   Daniel Aravena         : Magnetic Suceptibility
   Michael Atanasov       : Ab Initio Ligand Field Theory (pilot matlab implementation)
   Alexander A. Auer      : GIAO ZORA, VPT2 properties, NMR spectrum
   Ute Becker             : All parallelization in ORCA, NUMFREQ, NUMCALC
   Giovanni Bistoni       : ED, misc. LED, open-shell LED, HFLD
   Martin Brehm           : Molecular dynamics
   Dmytro Bykov           : pre 5.0 version of the SCF Hessian
   Marcos Casanova-Páez   : Triplet and SCS-CIS(D). UHF-(DLPNO)-IP/EA/STEOM-CCSD. UHF-CVS-IP/STEOM-CCSD
   Vijay G. Chilkuri      : MRCI spin determinant printing, contributions to CSF-ICE
   Pauline Colinet        : FMM embedding
   Dipayan Datta          : RHF DLPNO-CCSD density
   Achintya Kumar Dutta   : EOM-CC, STEOM-CC
   Nicolas Foglia         : Exact transition moments, OPA infrastructure, MCD improvements
   Dmitry Ganyushin       : Spin-Orbit,Spin-Spin,Magnetic field MRCI
   Miquel Garcia          : C-PCM and meta-GGA Hessian, CCSD/C-PCM, Gaussian charge scheme
   Tiago L. C. Gouveia    : GS-ROHF, GS-ROCIS
   Yang Guo               : DLPNO-NEVPT2, F12-NEVPT2, CIM, IAO-localization
   Andreas Hansen         : Spin unrestricted coupled pair/coupled cluster methods
   Ingolf Harden          : AUTO-CI MPn and infrastructure 
   Benjamin Helmich-Paris : MC-RPA, TRAH-(SCF,CASSCF), AVAS, COSX integrals, SCF dyn. polar.
   Lee Huntington         : MR-EOM, pCC
   Robert Izsak           : Overlap fitted RIJCOSX, COSX-SCS-MP3, EOM
   Riya Kayal             : Wick's Theorem for AUTO-CI, AUTO-CI UHF-CCSDT
   Emily Kempfer          : AUTO-CI, RHF CISDT and CCSDT
   Christian Kollmar      : KDIIS, OOCD, Brueckner-CCSD(T), CCSD density, CASPT2, CASPT2-K, improved NEVPT2
   Axel Koslowski         : Symmetry handling
   Simone Kossmann        : Meta GGA functionals, TD-DFT gradient, OOMP2, (MP2 Hessian; deprecated post 5.0)
   Lucas Lang             : DCDCAS
   Marvin Lechner         : AUTO-CI (C++ implementation), FIC-MRCC
   Spencer Leger          : CASSCF response
   Dagmar Lenk            : GEPOL surface, SMD, ORCA-2-JSON
   Dimitrios Liakos       : Extrapolation schemes; Compound Job, initial MDCI parallelization
   Dimitrios Manganas     : Further ROCIS development; embedding schemes. LFT, Crystal Embedding
   Dimitrios Pantazis     : SARC Basis sets
   Anastasios Papadopoulos: AUTO-CI, single reference methods and gradients
   Taras Petrenko         : pre 6.0 DFT Hessian and TD-DFT gradient, (ASA, deprecated), ECA, 1-Electron XAS/XES, NRVS
   Peter Pinski           : DLPNO-MP2, DLPNO-MP2 Gradient
   Christoph Reimann      : Effective Core Potentials
   Marius Retegan         : Local ZFS, SOC
   Christoph Riplinger    : Optimizer, TS searches, QM/MM, DLPNO-CCSD(T), (RO)-DLPNO pert. Triples
   Michael Roemelt        : Original ROCIS implementation
   Masaaki Saitow         : Open-shell DLPNO-CCSD energy and density
   Barbara Sandhoefer     : DKH picture change effects
   Kantharuban Sivalingam : CASSCF convergence/infrastructure, NEVPT2 and variants, FIC-MRCI
   Bernardo de Souza      : ESD, SOC TD-DFT
   Georgi Stoychev        : AutoAux, RI-MP2 NMR, DLPNO-MP2 response, X2C
   Van Anh Tran           : RI-MP2 g-tensors
   Willem Van den Heuvel  : Paramagnetic NMR
   Zikuan Wang            : NOTCH, Electric field optimization 
   Frank Wennmohs         : Technical directorship and infrastructure
   Hang Xu                : AUTO-CI-Response properties 


 We gratefully acknowledge several colleagues who have allowed us to
 interface, adapt or use parts of their codes:
   Stefan Grimme, W. Hujo, H. Kruse, P. Pracht,  : VdW corrections, initial TS optimization,
                  C. Bannwarth, S. Ehlert,         DFT functionals, gCP, sTDA/sTD-DF
                  L. Wittmann, M. Mueller
   Ed Valeev, F. Pavosevic, A. Kumar             : LibInt (2-el integral package), F12 methods
   Garnet Chan, S. Sharma, J. Yang, R. Olivares  : DMRG
   Ulf Ekstrom                                   : XCFun DFT Library
   Mihaly Kallay                                 : mrcc  (arbitrary order and MRCC methods)
   Frank Weinhold                                : gennbo (NPA and NBO analysis)
   Simon Mueller                                 : openCOSMO-RS
   Christopher J. Cramer and Donald G. Truhlar   : smd solvation model
   Lars Goerigk                                  : TD-DFT with DH, B97 family of functionals
   V. Asgeirsson, H. Jonsson                     : NEB implementation
   FAccTs GmbH                                   : IRC, NEB, NEB-TS, DLPNO-Multilevel, CI-OPT
                                                   MM, QMMM, 2- and 3-layer-ONIOM, Crystal-QMMM,
                                                   LR-CPCM, SF, NACMEs, symmetry and pop. for TD-DFT,
                                                   nearIR, NL-DFT gradient (VV10), updates on ESD,
                                                   ML-optimized integration grids, MBIS, APM,
                                                   GOAT, DOCKER, SOLVATOR, interface openCOSMO-RS
   S Lehtola, MJT Oliveira, MAL Marques          : LibXC Library
   Liviu Ungur et al                             : ANISO software


 Your calculation uses the libint2 library for the computation of 2-el integrals
 For citations please refer to: http://libint.valeyev.net

 Your ORCA version has been built with support for libXC version: 6.2.2
 For citations please refer to: https://libxc.gitlab.io

 This ORCA versions uses:
   CBLAS   interface :  Fast vector & matrix operations
   LAPACKE interface :  Fast linear algebra routines
   SCALAPACK package :  Parallel linear algebra routines
   Shared memory     :  Shared parallel matrices
   BLAS/LAPACK       :  OpenBLAS 0.3.27  USE64BITINT DYNAMIC_ARCH NO_AFFINITY SkylakeX SINGLE_THREADED
        Core in use  :  SkylakeX
   Copyright (c) 2011-2014, The OpenBLAS Project


Warning: RI is on but no J-basis has been assigned. Assigning Def2/J (nothing to worry about!)
================================================================================

----- Orbital basis set information -----
Your calculation utilizes the basis: 6-31G*
   H-He, Li-Ne : W. J. Hehre, R. Ditchfield and J.A. Pople, J. Chem. Phys. 56, 2257 (1972).
                 Note: He and Ne are unpublished basis sets taken from the Gaussian program.
                 Note: Li and B from J. D. Dill and J. A. Pople, J. Chem. Phys. 62, 2921 (1975).
   Na - Ar     : M. M. Francl, W. J. Pietro, W. J. Hehre, J. S. Binkley, M. S. Gordon, 
                 D. J. DeFrees and J. A. Pople, J. Chem. Phys. 77, 3654 (1982).
   K - Zn      : V. A. Rassolov, J. A. Pople, M. A. Ratner, and T. L. Windus, J. Chem. Phys. 109, 1223 (1998).

----- AuxJ basis set information -----
Your calculation utilizes the auxiliary basis: def2/J
   F. Weigend, Phys. Chem. Chem. Phys. 8, 1057 (2006).

================================================================================
                                        WARNINGS
                       Please study these warnings very carefully!
================================================================================


================================================================================
                                       INPUT FILE
================================================================================
NAME = /home/nmrbox/aojoawo/Documents/ERDOS/inputs/CHEMBL3682572.inp
|  1> ! B3LYP 6-31G* SP
|  2> 
|  3> * xyz 0 1
|  4> C -3.1726 -1.1623 -0.4942
|  5> C -2.3126 -1.5735 0.6813
|  6> C -1.0817 -0.9237 0.9379
|  7> N -0.5977 0.1167 0.0814
|  8> C 0.0617 -0.2136 -1.1824
|  9> C 1.5528 -0.1818 -1.0154
| 10> C 2.3504 0.6382 -1.8246
| 11> C 3.7342 0.6421 -1.6447
| 12> C 4.3224 -0.1678 -0.6599
| 13> C 5.7924 -0.1684 -0.4544
| 14> C 6.3324 -0.1911 0.8466
| 15> C 7.7176 -0.1865 1.0376
| 16> C 8.5771 -0.1656 -0.0634
| 17> C 8.0531 -0.1446 -1.3589
| 18> C 6.6689 -0.1443 -1.5568
| 19> C 3.4836 -0.9766 0.1259
| 20> N 2.1390 -0.9682 -0.0723
| 21> S -0.7126 1.7692 0.5996
| 22> O 0.5790 2.4855 0.3170
| 23> O -0.9684 1.8282 2.0807
| 24> C -2.0394 2.5430 -0.2565
| 25> C -3.3551 2.3628 0.1855
| 26> C -4.4191 2.9423 -0.5108
| 27> C -4.1806 3.7101 -1.6634
| 28> C -5.3088 4.3207 -2.4003
| 29> O -5.0966 5.0156 -3.4317
| 30> O -6.6177 4.1326 -1.9612
| 31> C -2.8561 3.8824 -2.1060
| 32> C -1.7945 3.2992 -1.4083
| 33> N -0.3310 -1.2816 2.0124
| 34> C -0.7035 -2.2671 2.8644
| 35> C -1.8986 -2.9605 2.6568
| 36> C -2.2809 -3.9903 3.5313
| 37> C -3.4757 -4.6806 3.3231
| 38> C -4.2967 -4.3484 2.2449
| 39> C -3.9277 -3.3268 1.3652
| 40> C -2.7218 -2.6149 1.5551
| 41> H -3.2696 -2.0133 -1.2013
| 42> H -4.1788 -0.8602 -0.1347
| 43> H -2.7587 -0.3026 -1.0572
| 44> H -0.2697 0.5026 -1.9652
| 45> H -0.2381 -1.2295 -1.5202
| 46> H 1.9071 1.2712 -2.5826
| 47> H 4.3419 1.2919 -2.2624
| 48> H 5.6843 -0.1927 1.7148
| 49> H 8.1245 -0.1970 2.0414
| 50> H 9.6489 -0.1643 0.0873
| 51> H 8.7196 -0.1321 -2.2112
| 52> H 6.2839 -0.1449 -2.5696
| 53> H 3.8964 -1.6276 0.8850
| 54> H -3.5583 1.7635 1.0635
| 55> H -5.4273 2.7853 -0.1478
| 56> H -7.3977 4.5446 -2.4600
| 57> H -2.6398 4.4629 -2.9938
| 58> H -0.7837 3.4322 -1.7723
| 59> H -0.0611 -2.5101 3.7020
| 60> H -1.6552 -4.2613 4.3738
| 61> H -3.7672 -5.4743 3.9998
| 62> H -5.2230 -4.8868 2.0878
| 63> H -4.5934 -3.1076 0.5415
| 64> *
| 65> 
| 66>                          ****END OF INPUT****
================================================================================

                       ****************************
                       * Single Point Calculation *
                       ****************************

---------------------------------
CARTESIAN COORDINATES (ANGSTROEM)
---------------------------------
  C     -3.172600   -1.162300   -0.494200
  C     -2.312600   -1.573500    0.681300
  C     -1.081700   -0.923700    0.937900
  N     -0.597700    0.116700    0.081400
  C      0.061700   -0.213600   -1.182400
  C      1.552800   -0.181800   -1.015400
  C      2.350400    0.638200   -1.824600
  C      3.734200    0.642100   -1.644700
  C      4.322400   -0.167800   -0.659900
  C      5.792400   -0.168400   -0.454400
  C      6.332400   -0.191100    0.846600
  C      7.717600   -0.186500    1.037600
  C      8.577100   -0.165600   -0.063400
  C      8.053100   -0.144600   -1.358900
  C      6.668900   -0.144300   -1.556800
  C      3.483600   -0.976600    0.125900
  N      2.139000   -0.968200   -0.072300
  S     -0.712600    1.769200    0.599600
  O      0.579000    2.485500    0.317000
  O     -0.968400    1.828200    2.080700
  C     -2.039400    2.543000   -0.256500
  C     -3.355100    2.362800    0.185500
  C     -4.419100    2.942300   -0.510800
  C     -4.180600    3.710100   -1.663400
  C     -5.308800    4.320700   -2.400300
  O     -5.096600    5.015600   -3.431700
  O     -6.617700    4.132600   -1.961200
  C     -2.856100    3.882400   -2.106000
  C     -1.794500    3.299200   -1.408300
  N     -0.331000   -1.281600    2.012400
  C     -0.703500   -2.267100    2.864400
  C     -1.898600   -2.960500    2.656800
  C     -2.280900   -3.990300    3.531300
  C     -3.475700   -4.680600    3.323100
  C     -4.296700   -4.348400    2.244900
  C     -3.927700   -3.326800    1.365200
  C     -2.721800   -2.614900    1.555100
  H     -3.269600   -2.013300   -1.201300
  H     -4.178800   -0.860200   -0.134700
  H     -2.758700   -0.302600   -1.057200
  H     -0.269700    0.502600   -1.965200
  H     -0.238100   -1.229500   -1.520200
  H      1.907100    1.271200   -2.582600
  H      4.341900    1.291900   -2.262400
  H      5.684300   -0.192700    1.714800
  H      8.124500   -0.197000    2.041400
  H      9.648900   -0.164300    0.087300
  H      8.719600   -0.132100   -2.211200
  H      6.283900   -0.144900   -2.569600
  H      3.896400   -1.627600    0.885000
  H     -3.558300    1.763500    1.063500
  H     -5.427300    2.785300   -0.147800
  H     -7.397700    4.544600   -2.460000
  H     -2.639800    4.462900   -2.993800
  H     -0.783700    3.432200   -1.772300
  H     -0.061100   -2.510100    3.702000
  H     -1.655200   -4.261300    4.373800
  H     -3.767200   -5.474300    3.999800
  H     -5.223000   -4.886800    2.087800
  H     -4.593400   -3.107600    0.541500

----------------------------
CARTESIAN COORDINATES (A.U.)
----------------------------
  NO LB      ZA    FRAG     MASS         X           Y           Z
   0 C     6.0000    0    12.011   -5.995345   -2.196429   -0.933903
   1 C     6.0000    0    12.011   -4.370181   -2.973484    1.287470
   2 C     6.0000    0    12.011   -2.044117   -1.745540    1.772374
   3 N     7.0000    0    14.007   -1.129489    0.220531    0.153824
   4 C     6.0000    0    12.011    0.116596   -0.403646   -2.234412
   5 C     6.0000    0    12.011    2.934367   -0.343552   -1.918828
   6 C     6.0000    0    12.011    4.441612    1.206023   -3.447994
   7 C     6.0000    0    12.011    7.056615    1.213393   -3.108033
   8 C     6.0000    0    12.011    8.168152   -0.317096   -1.247030
   9 C     6.0000    0    12.011   10.946050   -0.318230   -0.858692
  10 C     6.0000    0    12.011   11.966502   -0.361127    1.599842
  11 C     6.0000    0    12.011   14.584150   -0.352434    1.960780
  12 C     6.0000    0    12.011   16.208370   -0.312939   -0.119809
  13 C     6.0000    0    12.011   15.218154   -0.273254   -2.567949
  14 C     6.0000    0    12.011   12.602395   -0.272687   -2.941926
  15 C     6.0000    0    12.011    6.583050   -1.845507    0.237917
  16 N     7.0000    0    14.007    4.042124   -1.829633   -0.136627
  17 S    16.0000    0    32.060   -1.346619    3.343303    1.133080
  18 O     8.0000    0    15.999    1.094151    4.696914    0.599043
  19 O     8.0000    0    15.999   -1.830011    3.454797    3.931953
  20 C     6.0000    0    12.011   -3.853907    4.805574   -0.484715
  21 C     6.0000    0    12.011   -6.340220    4.465045    0.350544
  22 C     6.0000    0    12.011   -8.350889    5.560141   -0.965272
  23 C     6.0000    0    12.011   -7.900189    7.011073   -3.143370
  24 C     6.0000    0    12.011  -10.032178    8.164940   -4.535910
  25 O     8.0000    0    15.999   -9.631178    9.478110   -6.484973
  26 O     8.0000    0    15.999  -12.505641    7.809482   -3.706131
  27 C     6.0000    0    12.011   -5.397247    7.336673   -3.979763
  28 C     6.0000    0    12.011   -3.391114    6.234584   -2.661301
  29 N     7.0000    0    14.007   -0.625499   -2.421873    3.802885
  30 C     6.0000    0    12.011   -1.329422   -4.284198    5.412932
  31 C     6.0000    0    12.011   -3.587834   -5.594534    5.020624
  32 C     6.0000    0    12.011   -4.310276   -7.540574    6.673190
  33 C     6.0000    0    12.011   -6.568121   -8.845052    6.279749
  34 C     6.0000    0    12.011   -8.119586   -8.217285    4.242246
  35 C     6.0000    0    12.011   -7.422277   -6.286741    2.579854
  36 C     6.0000    0    12.011   -5.143457   -4.941445    2.938713
  37 H     1.0000    0     1.008   -6.178649   -3.804586   -2.270128
  38 H     1.0000    0     1.008   -7.896788   -1.625542   -0.254546
  39 H     1.0000    0     1.008   -5.213187   -0.571831   -1.997818
  40 H     1.0000    0     1.008   -0.509659    0.949776   -3.713690
  41 H     1.0000    0     1.008   -0.449944   -2.323418   -2.872762
  42 H     1.0000    0     1.008    3.603897    2.402220   -4.880407
  43 H     1.0000    0     1.008    8.205002    2.441337   -4.275316
  44 H     1.0000    0     1.008   10.741770   -0.364150    3.240502
  45 H     1.0000    0     1.008   15.353080   -0.372276    3.857687
  46 H     1.0000    0     1.008   18.233778   -0.310482    0.164973
  47 H     1.0000    0     1.008   16.477656   -0.249633   -4.178562
  48 H     1.0000    0     1.008   11.874850   -0.273821   -4.855840
  49 H     1.0000    0     1.008    7.363129   -3.075718    1.672408
  50 H     1.0000    0     1.008   -6.724213    3.332532    2.009724
  51 H     1.0000    0     1.008  -10.256111    5.263454   -0.279302
  52 H     1.0000    0     1.008  -13.979627    8.588049   -4.648726
  53 H     1.0000    0     1.008   -4.988499    8.433659   -5.657462
  54 H     1.0000    0     1.008   -1.480978    6.485918   -3.349162
  55 H     1.0000    0     1.008   -0.115462   -4.743402    6.995766
  56 H     1.0000    0     1.008   -3.127875   -8.052690    8.265284
  57 H     1.0000    0     1.008   -7.118976  -10.344928    7.558527
  58 H     1.0000    0     1.008   -9.870040   -9.234714    3.945370
  59 H     1.0000    0     1.008   -8.680268   -5.872513    1.023287

--------------------------------
INTERNAL COORDINATES (ANGSTROEM)
--------------------------------
 C      0   0   0     0.000000000000     0.00000000     0.00000000
 C      1   0   0     1.513435063027     0.00000000     0.00000000
 C      2   1   0     1.415343919336   120.68167053     0.00000000
 N      3   2   1     1.431880026399   121.27256761   358.54795920
 C      4   3   2     1.463248745087   120.32741965   280.18294918
 C      5   4   3     1.500759624324   110.29465436   262.22382123
 C      6   5   4     1.401203197256   120.91050734   236.42492948
 C      7   6   5     1.395450343079   119.44955660   180.11707947
 C      8   7   6     1.404189549171   120.27791809   359.92604779
 C      9   8   7     1.484294650667   120.80962437   180.27098818
 C     10   9   8     1.408799591851   120.49583418   138.88991600
 C     11  10   9     1.398313698710   120.38437215   180.24300418
 C     12  11  10     1.396917341864   120.12608422   359.70097037
 C     13  12  11     1.397618420743   120.00771621     0.21959259
 C     14  13  12     1.398275416361   120.15513273     0.00000000
 C      9   8   7     1.405426810617   118.29718168     0.23818079
 N     16   9   8     1.359155237638   120.35441027     0.08048477
 S      4   3   2     1.735652470975   119.39456102   103.89923611
 O     18   4   3     1.503721719601   109.91092583   135.24436434
 O     18   4   3     1.504184779208   110.03430180    16.18068949
 C     18   4   3     1.758428812890   108.87856978   256.16732384
 C     21  18   4     1.399607991546   119.92691579    81.05618545
 C     22  21  18     1.397408293950   120.33214227   181.83910920
 C     23  22  21     1.405306318921   120.39963134     0.11591813
 C     24  23  22     1.479421917507   120.30511740   179.89318893
 O     25  24  23     1.261626256068   120.41565777   179.66554206
 O     25  24  23     1.393344763510   120.24428788   359.62982311
 C     24  23  22     1.407082904452   118.98913059     0.17206266
 C     28  24  23     1.397820478459   120.45100114   359.94419967
 N      3   2   1     1.358746904320   120.19431857   178.60108424
 C     30   3   2     1.354942987730   122.47664156     0.85485551
 C     31  30   3     1.397199101775   120.17778535     0.03666680
 C     32  31  30     1.404062527098   120.28796872   179.42100967
 C     33  32  31     1.395495743455   120.19909553   179.92539157
 C     34  33  32     1.395318271937   120.08545688   359.91328379
 C     35  34  33     1.397748063851   120.33189139     0.18176990
 C     36  35  34     1.413173177640   120.59022510   359.88619105
 H      1   2   3     1.110675654726   109.62939723   117.31644540
 H      1   2   3     1.110379709829   109.71734301   237.72370859
 H      1   2   3     1.107865650700   113.15708602   357.10418159
 H      5   4   3     1.111550376726   109.17476133   139.81026151
 H      5   4   3     1.111774118245   110.31425736    22.35313706
 H      7   6   5     1.082482281610   120.89690235     0.43153428
 H      8   7   6     1.083094003307   118.98275510   181.07653707
 H     11  10   9     1.083423929032   120.71462538   359.03296303
 H     12  11  10     1.083186179749   119.91260575   179.56842421
 H     13  12  11     1.082343485221   119.97140300   180.13540852
 H     14  13  12     1.082032249981   119.95788122   180.22498295
 H     15  14  13     1.083507821845   118.94997703   181.03160922
 H     16   9   8     1.081867667508   120.72190025   179.01015083
 H     22  21  18     1.082282185939   120.26392486     1.12540390
 H     23  22  21     1.082998264080   118.79588898   179.89143046
 H     27  25  24     1.013383165441   120.86716338   180.14891750
 H     28  24  23     1.082568602907   120.77694442   179.61205491
 H     29  28  24     1.082544059150   119.34352548   179.17799350
 H     31  30   3     1.083189974104   119.10189415   179.77744666
 H     33  32  31     1.083857804327   120.68645429   359.84140805
 H     34  33  32     1.082984224262   119.98408555   180.00096561
 H     35  34  33     1.082860406516   119.80549457   180.01991964
 H     36  35  34     1.081520605444   117.70863419   179.73010789

---------------------------
INTERNAL COORDINATES (A.U.)
---------------------------
 C      0   0   0     0.000000000000     0.00000000     0.00000000
 C      1   0   0     2.859977790595     0.00000000     0.00000000
 C      2   1   0     2.674612392855   120.68167053     0.00000000
 N      3   2   1     2.705861106526   121.27256761   358.54795920
 C      4   3   2     2.765139394019   120.32741965   280.18294918
 C      5   4   3     2.836024682818   110.29465436   262.22382123
 C      6   5   4     2.647890300788   120.91050734   236.42492948
 C      7   6   5     2.637018981906   119.44955660   180.11707947
 C      8   7   6     2.653533688047   120.27791809   359.92604779
 C      9   8   7     2.804910391806   120.80962437   180.27098818
 C     10   9   8     2.662245406179   120.49583418   138.88991600
 C     11  10   9     2.642429939872   120.38437215   180.24300418
 C     12  11  10     2.639791207848   120.12608422   359.70097037
 C     13  12  11     2.641116054928   120.00771621     0.21959259
 C     14  13  12     2.642357596717   120.15513273     0.00000000
 C      9   8   7     2.655871773336   118.29718168     0.23818079
 N     16   9   8     2.568431172621   120.35441027     0.08048477
 S      4   3   2     3.279907833806   119.39456102   103.89923611
 O     18   4   3     2.841622231675   109.91092583   135.24436434
 O     18   4   3     2.842497287515   110.03430180    16.18068949
 C     18   4   3     3.322948882357   108.87856978   256.16732384
 C     21  18   4     2.644875798870   119.92691579    81.05618545
 C     22  21  18     2.640718972835   120.33214227   181.83910920
 C     23  22  21     2.655644077030   120.39963134     0.11591813
 C     24  23  22     2.795702260609   120.30511740   179.89318893
 O     25  24  23     2.384128107333   120.41565777   179.66554206
 O     25  24  23     2.633040013167   120.24428788   359.62982311
 C     24  23  22     2.659001337136   118.98913059     0.17206266
 C     28  24  23     2.641497888675   120.45100114   359.94419967
 N      3   2   1     2.567659534479   120.19431857   178.60108424
 C     30   3   2     2.560471173888   122.47664156     0.85485551
 C     31  30   3     2.640323656915   120.17778535     0.03666680
 C     32  31  30     2.653293651116   120.28796872   179.42100967
 C     33  32  31     2.637104776182   120.19909553   179.92539157
 C     34  33  32     2.636769403616   120.08545688   359.91328379
 C     35  34  33     2.641361044898   120.33189139     0.18176990
 C     36  35  34     2.670510285542   120.59022510   359.88619105
 H      1   2   3     2.098872811045   109.62939723   117.31644540
 H      1   2   3     2.098313556240   109.71734301   237.72370859
 H      1   2   3     2.093562673001   113.15708602   357.10418159
 H      5   4   3     2.100525796069   109.17476133   139.81026151
 H      5   4   3     2.100948606265   110.31425736    22.35313706
 H      7   6   5     2.045595057065   120.89690235     0.43153428
 H      8   7   6     2.046751043543   118.98275510   181.07653707
 H     11  10   9     2.047374512808   120.71462538   359.03296303
 H     12  11  10     2.046925231775   119.91260575   179.56842421
 H     13  12  11     2.045332769901   119.97140300   180.13540852
 H     14  13  12     2.044744620536   119.95788122   180.22498295
 H     15  14  13     2.047533047249   118.94997703   181.03160922
 H     16   9   8     2.044433604735   120.72190025   179.01015083
 H     22  21  18     2.045216931046   120.26392486     1.12540390
 H     23  22  21     2.046570122623   118.79588898   179.89143046
 H     27  25  24     1.915016651410   120.86716338   180.14891750
 H     28  24  23     2.045758180676   120.77694442   179.61205491
 H     29  28  24     2.045711799696   119.34352548   179.17799350
 H     31  30   3     2.046932402066   119.10189415   179.77744666
 H     33  32  31     2.048194418291   120.68645429   359.84140805
 H     34  33  32     2.046543591212   119.98408555   180.00096561
 H     35  34  33     2.046309609582   119.80549457   180.01991964
 H     36  35  34     2.043777752482   117.70863419   179.73010789

---------------------
BASIS SET INFORMATION
---------------------
There are 5 groups of distinct atoms

 Group   1 Type C   : 10s4p1d contracted to 3s2p1d pattern {631/31/1}
 Group   2 Type N   : 10s4p1d contracted to 3s2p1d pattern {631/31/1}
 Group   3 Type S   : 16s10p1d contracted to 4s3p1d pattern {6631/631/1}
 Group   4 Type O   : 10s4p1d contracted to 3s2p1d pattern {631/31/1}
 Group   5 Type H   : 4s contracted to 2s pattern {31}

Atom   0C    basis set group =>   1
Atom   1C    basis set group =>   1
Atom   2C    basis set group =>   1
Atom   3N    basis set group =>   2
Atom   4C    basis set group =>   1
Atom   5C    basis set group =>   1
Atom   6C    basis set group =>   1
Atom   7C    basis set group =>   1
Atom   8C    basis set group =>   1
Atom   9C    basis set group =>   1
Atom  10C    basis set group =>   1
Atom  11C    basis set group =>   1
Atom  12C    basis set group =>   1
Atom  13C    basis set group =>   1
Atom  14C    basis set group =>   1
Atom  15C    basis set group =>   1
Atom  16N    basis set group =>   2
Atom  17S    basis set group =>   3
Atom  18O    basis set group =>   4
Atom  19O    basis set group =>   4
Atom  20C    basis set group =>   1
Atom  21C    basis set group =>   1
Atom  22C    basis set group =>   1
Atom  23C    basis set group =>   1
Atom  24C    basis set group =>   1
Atom  25O    basis set group =>   4
Atom  26O    basis set group =>   4
Atom  27C    basis set group =>   1
Atom  28C    basis set group =>   1
Atom  29N    basis set group =>   2
Atom  30C    basis set group =>   1
Atom  31C    basis set group =>   1
Atom  32C    basis set group =>   1
Atom  33C    basis set group =>   1
Atom  34C    basis set group =>   1
Atom  35C    basis set group =>   1
Atom  36C    basis set group =>   1
Atom  37H    basis set group =>   5
Atom  38H    basis set group =>   5
Atom  39H    basis set group =>   5
Atom  40H    basis set group =>   5
Atom  41H    basis set group =>   5
Atom  42H    basis set group =>   5
Atom  43H    basis set group =>   5
Atom  44H    basis set group =>   5
Atom  45H    basis set group =>   5
Atom  46H    basis set group =>   5
Atom  47H    basis set group =>   5
Atom  48H    basis set group =>   5
Atom  49H    basis set group =>   5
Atom  50H    basis set group =>   5
Atom  51H    basis set group =>   5
Atom  52H    basis set group =>   5
Atom  53H    basis set group =>   5
Atom  54H    basis set group =>   5
Atom  55H    basis set group =>   5
Atom  56H    basis set group =>   5
Atom  57H    basis set group =>   5
Atom  58H    basis set group =>   5
Atom  59H    basis set group =>   5
---------------------------------
AUXILIARY/J BASIS SET INFORMATION
---------------------------------
There are 5 groups of distinct atoms

 Group   1 Type C   : 12s5p4d2f1g contracted to 6s4p3d1f1g pattern {711111/2111/211/2/1}
 Group   2 Type N   : 12s5p4d2f1g contracted to 6s4p3d1f1g pattern {711111/2111/211/2/1}
 Group   3 Type S   : 14s5p5d2f1g contracted to 8s4p3d1f1g pattern {71111111/2111/311/2/1}
 Group   4 Type O   : 12s5p4d2f1g contracted to 6s4p3d1f1g pattern {711111/2111/211/2/1}
 Group   5 Type H   : 5s2p1d contracted to 3s1p1d pattern {311/2/1}

Atom   0C    basis set group =>   1
Atom   1C    basis set group =>   1
Atom   2C    basis set group =>   1
Atom   3N    basis set group =>   2
Atom   4C    basis set group =>   1
Atom   5C    basis set group =>   1
Atom   6C    basis set group =>   1
Atom   7C    basis set group =>   1
Atom   8C    basis set group =>   1
Atom   9C    basis set group =>   1
Atom  10C    basis set group =>   1
Atom  11C    basis set group =>   1
Atom  12C    basis set group =>   1
Atom  13C    basis set group =>   1
Atom  14C    basis set group =>   1
Atom  15C    basis set group =>   1
Atom  16N    basis set group =>   2
Atom  17S    basis set group =>   3
Atom  18O    basis set group =>   4
Atom  19O    basis set group =>   4
Atom  20C    basis set group =>   1
Atom  21C    basis set group =>   1
Atom  22C    basis set group =>   1
Atom  23C    basis set group =>   1
Atom  24C    basis set group =>   1
Atom  25O    basis set group =>   4
Atom  26O    basis set group =>   4
Atom  27C    basis set group =>   1
Atom  28C    basis set group =>   1
Atom  29N    basis set group =>   2
Atom  30C    basis set group =>   1
Atom  31C    basis set group =>   1
Atom  32C    basis set group =>   1
Atom  33C    basis set group =>   1
Atom  34C    basis set group =>   1
Atom  35C    basis set group =>   1
Atom  36C    basis set group =>   1
Atom  37H    basis set group =>   5
Atom  38H    basis set group =>   5
Atom  39H    basis set group =>   5
Atom  40H    basis set group =>   5
Atom  41H    basis set group =>   5
Atom  42H    basis set group =>   5
Atom  43H    basis set group =>   5
Atom  44H    basis set group =>   5
Atom  45H    basis set group =>   5
Atom  46H    basis set group =>   5
Atom  47H    basis set group =>   5
Atom  48H    basis set group =>   5
Atom  49H    basis set group =>   5
Atom  50H    basis set group =>   5
Atom  51H    basis set group =>   5
Atom  52H    basis set group =>   5
Atom  53H    basis set group =>   5
Atom  54H    basis set group =>   5
Atom  55H    basis set group =>   5
Atom  56H    basis set group =>   5
Atom  57H    basis set group =>   5
Atom  58H    basis set group =>   5
Atom  59H    basis set group =>   5
------------------------------------------------------------------------------
                             ORCA STARTUP CALCULATIONS
                           -- RI-GTO INTEGRALS CHOSEN --
------------------------------------------------------------------------------
------------------------------------------------------------------------------
                   ___                                                        
                  /   \      - P O W E R E D   B Y -                         
                 /     \                                                     
                 |  |  |   _    _      __       _____    __    __             
                 |  |  |  | |  | |    /  \     |  _  \  |  |  /  |          
                  \  \/   | |  | |   /    \    | | | |  |  | /  /          
                 / \  \   | |__| |  /  /\  \   | |_| |  |  |/  /          
                |  |  |   |  __  | /  /__\  \  |    /   |      \           
                |  |  |   | |  | | |   __   |  |    \   |  |\   \          
                \     /   | |  | | |  |  |  |  | |\  \  |  | \   \       
                 \___/    |_|  |_| |__|  |__|  |_| \__\ |__|  \__/        
                                                                              
                      - O R C A' S   B I G   F R I E N D -                    
                                      &                                       
                       - I N T E G R A L  F E E D E R -                       
                                                                              
 v1 FN, 2020, v2 2021, v3 2022-2024                                           
------------------------------------------------------------------------------


----------------------
SHARK INTEGRAL PACKAGE
----------------------

Number of atoms                             ...     60
Number of basis functions                   ...    568
Number of shells                            ...    270
Maximum angular momentum                    ...      2
Integral batch strategy                     ... SHARK/LIBINT Hybrid
RI-J (if used) integral strategy            ... SPLIT-RIJ (Revised 2003 algorithm where possible)
Printlevel                                  ...      1
Contraction scheme used                     ... SEGMENTED contraction
Prescreening option                         ... SCHWARTZ
   Thresh                                   ... 1.000e-10
   Tcut                                     ... 1.000e-11
   Tpresel                                  ... 1.000e-11 
Coulomb Range Separation                    ... NOT USED
Exchange Range Separation                   ... NOT USED
Multipole approximations                    ... NOT USED
Finite Nucleus Model                        ... NOT USED
CABS basis                                  ... NOT available
Auxiliary Coulomb fitting basis             ... AVAILABLE
   # of basis functions in Aux-J            ...   2068
   # of shells in Aux-J                     ...    672
   Maximum angular momentum in Aux-J        ...      4
Auxiliary J/K fitting basis                 ... NOT available
Auxiliary Correlation fitting basis         ... NOT available
Auxiliary 'external' fitting basis          ... NOT available

Checking pre-screening integrals            ... done (  0.0 sec) Dimension = 270
Check shell pair data                       ... done (  0.0 sec)
Shell pair information
Shell pair cut-off parameter TPreSel        ...   1.0e-11
Total number of shell pairs                 ...     36585
Shell pairs after pre-screening             ...     18070
Total number of primitive shell pairs       ...    218346
Primitive shell pairs kept                  ...     55486
          la=0 lb=0:   5747 shell pairs
          la=1 lb=0:   6439 shell pairs
          la=1 lb=1:   1804 shell pairs
          la=2 lb=0:   2404 shell pairs
          la=2 lb=1:   1413 shell pairs
          la=2 lb=2:    263 shell pairs

Calculating one electron integrals          ... done (  0.3 sec)
Calculating RI/J V-Matrix + Cholesky decomp.... done (  0.5 sec)
Calculating Nuclear repulsion               ... done (  0.0 sec) ENN=   3941.442700459353 Eh

Diagonalization of the overlap matrix:
Smallest eigenvalue                        ... 3.556e-04
Time for diagonalization                   ...    0.077 sec
Threshold for overlap eigenvalues          ... 1.000e-07
Number of eigenvalues below threshold      ... 0
Time for construction of square roots      ...    0.057 sec
Total time needed                          ...    0.146 sec

-------------------
DFT GRID GENERATION
-------------------

General Integration Accuracy     IntAcc      ... 4.388
Radial Grid Type                 RadialGrid  ... OptM3 with GC (2021)
Angular Grid (max. ang.)         AngularGrid ... 4 (Lebedev-302)
Angular grid pruning method      GridPruning ... 4 (adaptive)
Weight generation scheme         WeightScheme... mBecke (2022)
Basis function cutoff            BFCut       ... 1.0000e-10
Integration weight cutoff        WCut        ... 1.0000e-14
Partially contracted basis set               ... off
Rotationally invariant grid construction     ... off
Angular grids for H and He will be reduced by one unit

Total number of grid points                  ...   295333
Total number of batches                      ...     4647
Average number of points per batch           ...       63
Average number of grid points per atom       ...     4922

--------------------
COSX GRID GENERATION
--------------------

GRIDX 1
-------
General Integration Accuracy     IntAcc      ... 3.816
Radial Grid Type                 RadialGrid  ... OptM3 with GC (2021)
Angular Grid (max. ang.)         AngularGrid ... 1 (Lebedev-50)
Angular grid pruning method      GridPruning ... 4 (adaptive)
Weight generation scheme         WeightScheme... mBecke (2022)
Basis function cutoff            BFCut       ... 1.0000e-10
Integration weight cutoff        WCut        ... 1.0000e-14
Partially contracted basis set               ... on
Rotationally invariant grid construction     ... off
Angular grids for H and He will be reduced by one unit

Total number of grid points                  ...    38448
Total number of batches                      ...      331
Average number of points per batch           ...      116
Average number of grid points per atom       ...      641
UseSFitting                                  ... on

GRIDX 2
-------
General Integration Accuracy     IntAcc      ... 4.020
Radial Grid Type                 RadialGrid  ... OptM3 with GC (2021)
Angular Grid (max. ang.)         AngularGrid ... 2 (Lebedev-110)
Angular grid pruning method      GridPruning ... 4 (adaptive)
Weight generation scheme         WeightScheme... mBecke (2022)
Basis function cutoff            BFCut       ... 1.0000e-10
Integration weight cutoff        WCut        ... 1.0000e-14
Partially contracted basis set               ... on
Rotationally invariant grid construction     ... off
Angular grids for H and He will be reduced by one unit

Total number of grid points                  ...    81816
Total number of batches                      ...      668
Average number of points per batch           ...      122
Average number of grid points per atom       ...     1364
UseSFitting                                  ... on

GRIDX 3
-------
General Integration Accuracy     IntAcc      ... 4.338
Radial Grid Type                 RadialGrid  ... OptM3 with GC (2021)
Angular Grid (max. ang.)         AngularGrid ... 3 (Lebedev-194)
Angular grid pruning method      GridPruning ... 4 (adaptive)
Weight generation scheme         WeightScheme... mBecke (2022)
Basis function cutoff            BFCut       ... 1.0000e-10
Integration weight cutoff        WCut        ... 1.0000e-14
Partially contracted basis set               ... on
Rotationally invariant grid construction     ... off
Angular grids for H and He will be reduced by one unit

Total number of grid points                  ...   179138
Total number of batches                      ...     1428
Average number of points per batch           ...      125
Average number of grid points per atom       ...     2986
UseSFitting                                  ... on
Initializing property integral containers    ... done (  0.0 sec)

SHARK setup successfully completed in  14.5 seconds

Maximum memory used throughout the entire STARTUP-calculation: 127.6 MB
-------------------------------------------------------------------------------
                                 ORCA GUESS
                   Start orbitals & Density for SCF / CASSCF
-------------------------------------------------------------------------------

------------
SCF SETTINGS
------------
Hamiltonian:
 Density Functional     Method          .... DFT(GTOs)
 Exchange Functional    Exchange        .... B88
   X-Alpha parameter    XAlpha          ....  0.666667
   Becke's b parameter  XBeta           ....  0.004200
 Correlation Functional Correlation     .... LYP
 LDA part of GGA corr.  LDAOpt          .... VWN-5
 Gradients option       PostSCFGGA      .... off
 Hybrid DFT is turned on
   Fraction HF Exchange ScalHFX         ....  0.200000
   Scaling of DF-GGA-X  ScalDFX         ....  0.720000
   Scaling of DF-GGA-C  ScalDFC         ....  0.810000
   Scaling of DF-LDA-C  ScalLDAC        ....  1.000000
   Perturbative correction              ....  0.000000
   NL short-range parameter             ....  4.800000
 RI-approximation to the Coulomb term is turned on
   Number of AuxJ basis functions       .... 2068
   RIJ-COSX (HFX calculated with COS-X)).... on


General Settings:
 Integral files         IntName         .... /home/nmrbox/aojoawo/Documents/ERDOS/inputs/CHEMBL3682572
 Hartree-Fock type      HFTyp           .... RHF
 Total Charge           Charge          ....    0
 Multiplicity           Mult            ....    1
 Number of Electrons    NEL             ....  266
 Basis Dimension        Dim             ....  568
 Nuclear Repulsion      ENuc            ....   3941.4427004594 Eh

Convergence Acceleration:
 AO-DIIS                CNVDIIS         .... on
   Start iteration      DIISMaxIt       ....    12
   Startup error        DIISStart       ....  0.200000
   # of expansion vecs  DIISMaxEq       ....     5
   Bias factor          DIISBfac        ....   1.050
   Max. coefficient     DIISMaxC        ....  10.000
 MO-DIIS                CNVKDIIS        .... off
 Trust-Rad. Augm. Hess. CNVTRAH         .... auto
   Auto Start mean grad. ratio tolernc. ....  1.125000
   Auto Start start iteration           ....    50
   Auto Start num. interpolation iter.  ....    10
   Max. Number of Micro iterations      ....    24
   Max. Number of Macro iterations      .... Maxiter - #DIIS iter
   Number of Davidson start vectors     ....     2
   Converg. threshold    (grad. norm)   ....   5.000e-05
   Grad. Scal. Fac. for Micro threshold ....   0.100
   Minimum threshold for Micro iter.    ....   1.000e-02
   NR start threshold (gradient norm)   ....   1.000e-04
   Initial trust radius                 ....   0.400
   Minimum AH scaling param. (alpha)    ....   1.000
   Maximum AH scaling param. (alpha)    .... 1000.000
   Quad. conv. algorithm                .... NR
   White noise on init. David. guess    .... on
   Maximum white noise                  ....   0.010
   Pseudo random numbers                .... off
   Inactive MOs                         .... canonical
   Orbital update algorithm             .... Taylor
   Preconditioner                       .... Diag
   Full preconditioner red. dimension   ....   250
 SOSCF                  CNVSOSCF        .... on
   Start iteration      SOSCFMaxIt      ....   150
   Startup grad/error   SOSCFStart      ....  0.003300
   Hessian update       SOSCFHessUp     .... L-BFGS
 Level Shifting         CNVShift        .... on
   Level shift para.    LevelShift      ....    0.2500
   Turn off err/grad.   ShiftErr        ....    0.0010
 Zerner damping         CNVZerner       .... off
 Static damping         CNVDamp         .... on
   Fraction old density DampFac         ....    0.7000
   Max. Damping (<1)    DampMax         ....    0.9800
   Min. Damping (>=0)   DampMin         ....    0.0000
   Turn off err/grad.   DampErr         ....    0.1000

SCF Procedure:
 Maximum # iterations   MaxIter         ....   125
 SCF integral mode      SCFMode         .... Direct
   Integral package                     .... SHARK and LIBINT hybrid scheme
 Reset frequency        DirectResetFreq ....    20
 Integral Threshold     Thresh          ....  1.000e-10 Eh
 Primitive CutOff       TCut            ....  1.000e-11 Eh

Convergence Tolerance:
 Convergence Check Mode ConvCheckMode   .... Total+1el-Energy
 Convergence forced     ConvForced      .... 0
 Energy Change          TolE            ....  1.000e-06 Eh
 1-El. energy change                    ....  1.000e-03 Eh
 Orbital Gradient       TolG            ....  5.000e-05
 Orbital Rotation angle TolX            ....  5.000e-05
 DIIS Error             TolErr          ....  1.000e-06

------------------------------
INITIAL GUESS: MODEL POTENTIAL
------------------------------
Loading Hartree-Fock densities                     ... done
Calculating cut-offs                               ... done
Initializing the effective Hamiltonian             ... done
Setting up the integral package (SHARK)            ... done
Starting the Coulomb interaction                   ... done (   3.8 sec)
Making the grid                                    ... done (   1.7 sec)
Mapping shells                                     ... done
Starting the XC term evaluation                    ... done (   1.2 sec)
  promolecular density results
     # of electrons  =    265.973427092
     EX              =   -233.460347797
     EC              =     -9.228438697
     EX+EC           =   -242.688786495
Transforming the Hamiltonian                       ... done (   0.0 sec)
Diagonalizing the Hamiltonian                      ... done (   0.1 sec)
Back transforming the eigenvectors                 ... done (   0.0 sec)
Now organizing SCF variables                       ... done
                      ------------------
                      INITIAL GUESS DONE (   6.8 sec)
                      ------------------
             **** ENERGY FILE WAS UPDATED (/home/nmrbox/aojoawo/Documents/ERDOS/inputs/CHEMBL3682572.en.tmp) ****
Finished Guess after   7.1 sec
Maximum memory used throughout the entire GUESS-calculation: 69.5 MB

-------------------------------------------------------------------------------------------
                                      ORCA LEAN-SCF
                              memory conserving SCF solver
-------------------------------------------------------------------------------------------

----------------------------------------D-I-I-S--------------------------------------------
Iteration    Energy (Eh)           Delta-E    RMSDP     MaxDP     DIISErr   Damp  Time(sec)
-------------------------------------------------------------------------------------------
               ***  Starting incremental Fock matrix formation  ***
    1    -1980.1468175943145980     0.00e+00  2.38e-03  1.89e-01  2.96e-01  0.700  73.7
Warning: op=0 Small HOMO/LUMO gap (   0.091) - skipping pre-diagonalization
         Will do a full diagonalization
    2    -1980.6285753126312557    -4.82e-01  1.40e-03  6.57e-02  9.28e-02  0.700  32.6
                               ***Turning on AO-DIIS***
    3    -1980.8056011330736510    -1.77e-01  5.69e-04  1.58e-02  3.41e-02  0.700  32.7
    4    -1980.9153424290552721    -1.10e-01  9.58e-04  2.56e-02  1.61e-02  0.000  31.0
    5    -1981.1588348641007542    -2.43e-01  2.15e-04  9.57e-03  5.77e-03  0.000  35.3
                              *** Initializing SOSCF ***
---------------------------------------S-O-S-C-F--------------------------------------
Iteration    Energy (Eh)           Delta-E    RMSDP     MaxDP     MaxGrad    Time(sec)
--------------------------------------------------------------------------------------
    6    -1981.1603346531683201    -1.50e-03  7.41e-05  3.02e-03  2.44e-03    30.8
               *** Restarting incremental Fock matrix formation ***
    7    -1981.1603695136254828    -3.49e-05  6.99e-05  3.48e-03  4.64e-04    86.0
    8    -1981.1602906163461739     7.89e-05  4.50e-05  2.30e-03  1.38e-03    48.2
    9    -1981.1604012905081618    -1.11e-04  1.27e-05  6.41e-04  1.11e-04    46.3
   10    -1981.1603985898609608     2.70e-06  7.97e-06  4.15e-04  2.05e-04    34.3
   11    -1981.1604026506693117    -4.06e-06  2.10e-06  8.17e-05  1.99e-05    29.0
   12    -1981.1604026795448590    -2.89e-08  1.29e-06  5.33e-05  3.11e-05    22.1
                 **** Energy Check signals convergence ****

               *****************************************************
               *                     SUCCESS                       *
               *           SCF CONVERGED AFTER  12 CYCLES          *
               *****************************************************

Recomputing exchange energy using gridx3       ... done (  131.078 sec)
Old exchange energy                            :    -47.257026675 Eh
New exchange energy                            :    -47.257160533 Eh
Exchange energy change after final integration :     -0.000133859 Eh
Total energy after final integration           :  -1981.160536538 Eh
             **** ENERGY FILE WAS UPDATED (/home/nmrbox/aojoawo/Documents/ERDOS/inputs/CHEMBL3682572.en.tmp) ****

----------------
TOTAL SCF ENERGY
----------------

Total Energy       :      -1981.16053653848894 Eh          -53910.11894 eV

Components:
Nuclear Repulsion  :       3941.44270045935264 Eh          107252.10847 eV
Electronic Energy  :      -5922.60310313889750 Eh         -161162.22377 eV
One Electron Energy:     -10545.31489222333403 Eh         -286952.60661 eV
Two Electron Energy:       4622.71178908443653 Eh          125790.38284 eV

Virial components:
Potential Energy   :      -3951.04440176593562 Eh         -107513.38405 eV
Kinetic Energy     :       1969.88386522744668 Eh           53603.26511 eV
Virial Ratio       :          2.00572453610596

DFT components:
N(Alpha)           :      133.000034692188 electrons
N(Beta)            :      133.000034692188 electrons
N(Total)           :      266.000069384376 electrons
E(X)               :     -187.788497744621 Eh       
E(C)               :      -10.853738472046 Eh       
E(XC)              :     -198.642236216667 Eh       

---------------
SCF CONVERGENCE
---------------

  Last Energy change         ...    2.8876e-08  Tolerance :   1.0000e-06
  Last MAX-Density change    ...    5.3289e-05  Tolerance :   1.0000e-05
  Last RMS-Density change    ...    1.2855e-06  Tolerance :   1.0000e-06
  Last DIIS Error            ...    2.4357e-03  Tolerance :   1.0000e-06
  Last Orbital Gradient      ...    3.1132e-05  Tolerance :   5.0000e-05
  Last Orbital Rotation      ...    4.6461e-05  Tolerance :   5.0000e-05


----------------
ORBITAL ENERGIES
----------------

  NO   OCC          E(Eh)            E(eV) 
   0   2.0000     -89.093236     -2424.3502 
   1   2.0000     -19.197770      -522.3979 
   2   2.0000     -19.139249      -520.8054 
   3   2.0000     -19.120620      -520.2985 
   4   2.0000     -19.119938      -520.2800 
   5   2.0000     -14.365542      -390.9063 
   6   2.0000     -14.319272      -389.6472 
   7   2.0000     -14.313831      -389.4992 
   8   2.0000     -10.336783      -281.2782 
   9   2.0000     -10.253760      -279.0190 
  10   2.0000     -10.241518      -278.6859 
  11   2.0000     -10.234744      -278.5015 
  12   2.0000     -10.232899      -278.4513 
  13   2.0000     -10.220717      -278.1198 
  14   2.0000     -10.220349      -278.1098 
  15   2.0000     -10.218509      -278.0598 
  16   2.0000     -10.218454      -278.0583 
  17   2.0000     -10.215888      -277.9884 
  18   2.0000     -10.215789      -277.9857 
  19   2.0000     -10.207939      -277.7722 
  20   2.0000     -10.206563      -277.7347 
  21   2.0000     -10.202885      -277.6346 
  22   2.0000     -10.195198      -277.4254 
  23   2.0000     -10.195080      -277.4222 
  24   2.0000     -10.193794      -277.3872 
  25   2.0000     -10.193703      -277.3848 
  26   2.0000     -10.192433      -277.3502 
  27   2.0000     -10.190352      -277.2936 
  28   2.0000     -10.190001      -277.2840 
  29   2.0000     -10.189329      -277.2657 
  30   2.0000     -10.188689      -277.2483 
  31   2.0000     -10.182630      -277.0835 
  32   2.0000     -10.179681      -277.0032 
  33   2.0000     -10.179160      -276.9890 
  34   2.0000     -10.178782      -276.9787 
  35   2.0000     -10.178331      -276.9665 
  36   2.0000     -10.177792      -276.9518 
  37   2.0000      -8.128637      -221.1915 
  38   2.0000      -6.093681      -165.8175 
  39   2.0000      -6.091648      -165.7622 
  40   2.0000      -6.091387      -165.7551 
  41   2.0000      -1.081873       -29.4392 
  42   2.0000      -1.077595       -29.3229 
  43   2.0000      -0.996138       -27.1063 
  44   2.0000      -0.957237       -26.0477 
  45   2.0000      -0.955000       -25.9869 
  46   2.0000      -0.920845       -25.0575 
  47   2.0000      -0.903394       -24.5826 
  48   2.0000      -0.890961       -24.2443 
  49   2.0000      -0.859492       -23.3880 
  50   2.0000      -0.849959       -23.1286 
  51   2.0000      -0.808125       -21.9902 
  52   2.0000      -0.805530       -21.9196 
  53   2.0000      -0.794966       -21.6321 
  54   2.0000      -0.779049       -21.1990 
  55   2.0000      -0.777565       -21.1586 
  56   2.0000      -0.768396       -20.9091 
  57   2.0000      -0.743350       -20.2276 
  58   2.0000      -0.738648       -20.0996 
  59   2.0000      -0.736671       -20.0458 
  60   2.0000      -0.713199       -19.4071 
  61   2.0000      -0.702150       -19.1065 
  62   2.0000      -0.682515       -18.5722 
  63   2.0000      -0.652824       -17.7642 
  64   2.0000      -0.640521       -17.4295 
  65   2.0000      -0.638262       -17.3680 
  66   2.0000      -0.627161       -17.0659 
  67   2.0000      -0.620350       -16.8806 
  68   2.0000      -0.614172       -16.7125 
  69   2.0000      -0.594829       -16.1861 
  70   2.0000      -0.592543       -16.1239 
  71   2.0000      -0.589272       -16.0349 
  72   2.0000      -0.573532       -15.6066 
  73   2.0000      -0.558513       -15.1979 
  74   2.0000      -0.542001       -14.7486 
  75   2.0000      -0.527586       -14.3563 
  76   2.0000      -0.521064       -14.1789 
  77   2.0000      -0.511730       -13.9249 
  78   2.0000      -0.501130       -13.6364 
  79   2.0000      -0.492784       -13.4093 
  80   2.0000      -0.491099       -13.3635 
  81   2.0000      -0.481195       -13.0940 
  82   2.0000      -0.474522       -12.9124 
  83   2.0000      -0.472606       -12.8603 
  84   2.0000      -0.468191       -12.7401 
  85   2.0000      -0.465955       -12.6793 
  86   2.0000      -0.461985       -12.5713 
  87   2.0000      -0.449705       -12.2371 
  88   2.0000      -0.448106       -12.1936 
  89   2.0000      -0.443992       -12.0816 
  90   2.0000      -0.443273       -12.0621 
  91   2.0000      -0.437920       -11.9164 
  92   2.0000      -0.437648       -11.9090 
  93   2.0000      -0.435168       -11.8415 
  94   2.0000      -0.425924       -11.5900 
  95   2.0000      -0.421784       -11.4773 
  96   2.0000      -0.418239       -11.3809 
  97   2.0000      -0.415838       -11.3155 
  98   2.0000      -0.413675       -11.2567 
  99   2.0000      -0.410408       -11.1678 
 100   2.0000      -0.402914       -10.9639 
 101   2.0000      -0.396815       -10.7979 
 102   2.0000      -0.392097       -10.6695 
 103   2.0000      -0.386458       -10.5161 
 104   2.0000      -0.385846       -10.4994 
 105   2.0000      -0.383637       -10.4393 
 106   2.0000      -0.376614       -10.2482 
 107   2.0000      -0.374678       -10.1955 
 108   2.0000      -0.369436       -10.0529 
 109   2.0000      -0.365802        -9.9540 
 110   2.0000      -0.354587        -9.6488 
 111   2.0000      -0.349118        -9.5000 
 112   2.0000      -0.345157        -9.3922 
 113   2.0000      -0.340324        -9.2607 
 114   2.0000      -0.336276        -9.1505 
 115   2.0000      -0.322264        -8.7692 
 116   2.0000      -0.321128        -8.7383 
 117   2.0000      -0.304546        -8.2871 
 118   2.0000      -0.292126        -7.9492 
 119   2.0000      -0.287031        -7.8105 
 120   2.0000      -0.284947        -7.7538 
 121   2.0000      -0.278545        -7.5796 
 122   2.0000      -0.275942        -7.5088 
 123   2.0000      -0.274587        -7.4719 
 124   2.0000      -0.269250        -7.3267 
 125   2.0000      -0.263028        -7.1574 
 126   2.0000      -0.257498        -7.0069 
 127   2.0000      -0.253309        -6.8929 
 128   2.0000      -0.244675        -6.6579 
 129   2.0000      -0.239356        -6.5132 
 130   2.0000      -0.227995        -6.2041 
 131   2.0000      -0.220523        -6.0007 
 132   2.0000      -0.217462        -5.9174 
 133   0.0000      -0.083997        -2.2857 
 134   0.0000      -0.056116        -1.5270 
 135   0.0000      -0.032884        -0.8948 
 136   0.0000      -0.027302        -0.7429 
 137   0.0000      -0.024325        -0.6619 
 138   0.0000      -0.010972        -0.2986 
 139   0.0000       0.003001         0.0817 
 140   0.0000       0.011393         0.3100 
 141   0.0000       0.024298         0.6612 
 142   0.0000       0.028597         0.7782 
 143   0.0000       0.038283         1.0417 
*Only the first 10 virtual orbitals were printed.

                    ********************************
                    * MULLIKEN POPULATION ANALYSIS *
                    ********************************

-----------------------
MULLIKEN ATOMIC CHARGES
-----------------------
   0 C :   -0.543420
   1 C :    0.095997
   2 C :    0.319283
   3 N :   -0.604186
   4 C :   -0.233206
   5 C :    0.314307
   6 C :   -0.154633
   7 C :   -0.131410
   8 C :    0.060721
   9 C :    0.072462
  10 C :   -0.168224
  11 C :   -0.130891
  12 C :   -0.122403
  13 C :   -0.131029
  14 C :   -0.166303
  15 C :   -0.019712
  16 N :   -0.395107
  17 S :    1.201774
  18 O :   -0.537166
  19 O :   -0.529989
  20 C :   -0.118720
  21 C :   -0.145267
  22 C :   -0.148599
  23 C :    0.082314
  24 C :    0.528367
  25 O :   -0.444819
  26 O :   -0.624216
  27 C :   -0.139412
  28 C :   -0.154123
  29 N :   -0.337706
  30 C :   -0.049880
  31 C :    0.136143
  32 C :   -0.201744
  33 C :   -0.127416
  34 C :   -0.121203
  35 C :   -0.201662
  36 C :    0.125437
  37 H :    0.162242
  38 H :    0.160448
  39 H :    0.167832
  40 H :    0.154081
  41 H :    0.182868
  42 H :    0.123073
  43 H :    0.140195
  44 H :    0.141452
  45 H :    0.130771
  46 H :    0.127098
  47 H :    0.128007
  48 H :    0.128499
  49 H :    0.149716
  50 H :    0.183836
  51 H :    0.172281
  52 H :    0.434263
  53 H :    0.180201
  54 H :    0.183786
  55 H :    0.152532
  56 H :    0.139924
  57 H :    0.134436
  58 H :    0.134691
  59 H :    0.133411
Sum of atomic charges:    0.0000000

--------------------------------
MULLIKEN REDUCED ORBITAL CHARGES
--------------------------------
  0 C s       :     3.318739  s :     3.318739
      pz      :     1.041265  p :     3.190309
      px      :     1.069285
      py      :     1.079759
      dz2     :     0.004300  d :     0.034372
      dxz     :     0.007054
      dyz     :     0.011125
      dx2y2   :     0.007275
      dxy     :     0.004618

  1 C s       :     3.179337  s :     3.179337
      pz      :     0.883451  p :     2.685081
      px      :     0.872205
      py      :     0.929425
      dz2     :     0.007717  d :     0.039586
      dxz     :     0.008233
      dyz     :     0.007852
      dx2y2   :     0.008411
      dxy     :     0.007373

  2 C s       :     3.050666  s :     3.050666
      pz      :     0.819487  p :     2.555644
      px      :     0.897388
      py      :     0.838769
      dz2     :     0.014108  d :     0.074407
      dxz     :     0.016833
      dyz     :     0.016092
      dx2y2   :     0.013232
      dxy     :     0.014142

  3 N s       :     3.587192  s :     3.587192
      pz      :     1.264678  p :     3.983918
      px      :     1.637782
      py      :     1.081458
      dz2     :     0.007579  d :     0.033075
      dxz     :     0.005126
      dyz     :     0.008564
      dx2y2   :     0.007518
      dxy     :     0.004287

  4 C s       :     3.251482  s :     3.251482
      pz      :     0.871889  p :     2.927018
      px      :     0.964341
      py      :     1.090787
      dz2     :     0.012849  d :     0.054706
      dxz     :     0.012594
      dyz     :     0.010428
      dx2y2   :     0.012344
      dxy     :     0.006490

  5 C s       :     3.058741  s :     3.058741
      pz      :     0.840024  p :     2.569696
      px      :     0.828000
      py      :     0.901672
      dz2     :     0.010782  d :     0.057256
      dxz     :     0.012479
      dyz     :     0.009230
      dx2y2   :     0.013405
      dxy     :     0.011359

  6 C s       :     3.190175  s :     3.190175
      pz      :     0.979070  p :     2.929228
      px      :     0.964121
      py      :     0.986037
      dz2     :     0.004595  d :     0.035229
      dxz     :     0.009209
      dyz     :     0.005948
      dx2y2   :     0.007053
      dxy     :     0.008424

  7 C s       :     3.192054  s :     3.192054
      pz      :     0.971914  p :     2.903275
      px      :     0.964737
      py      :     0.966624
      dz2     :     0.004996  d :     0.036081
      dxz     :     0.009708
      dyz     :     0.005679
      dx2y2   :     0.006619
      dxy     :     0.009079

  8 C s       :     3.147843  s :     3.147843
      pz      :     0.915099  p :     2.751345
      px      :     0.926495
      py      :     0.909750
      dz2     :     0.007225  d :     0.040092
      dxz     :     0.009367
      dyz     :     0.005222
      dx2y2   :     0.008875
      dxy     :     0.009403

  9 C s       :     3.140801  s :     3.140801
      pz      :     0.852050  p :     2.745924
      px      :     0.916650
      py      :     0.977225
      dz2     :     0.010442  d :     0.040813
      dxz     :     0.012936
      dyz     :     0.006169
      dx2y2   :     0.005972
      dxy     :     0.005295

 10 C s       :     3.197948  s :     3.197948
      pz      :     0.975775  p :     2.934618
      px      :     0.962235
      py      :     0.996608
      dz2     :     0.008823  d :     0.035658
      dxz     :     0.014173
      dyz     :     0.003352
      dx2y2   :     0.004788
      dxy     :     0.004521

 11 C s       :     3.192166  s :     3.192166
      pz      :     0.971904  p :     2.902540
      px      :     0.943706
      py      :     0.986930
      dz2     :     0.010753  d :     0.036185
      dxz     :     0.012225
      dyz     :     0.002539
      dx2y2   :     0.005073
      dxy     :     0.005593

 12 C s       :     3.184435  s :     3.184435
      pz      :     0.937070  p :     2.901870
      px      :     0.973477
      py      :     0.991322
      dz2     :     0.010807  d :     0.036099
      dxz     :     0.010353
      dyz     :     0.005953
      dx2y2   :     0.006971
      dxy     :     0.002015

 13 C s       :     3.191367  s :     3.191367
      pz      :     0.958150  p :     2.903472
      px      :     0.955891
      py      :     0.989431
      dz2     :     0.008738  d :     0.036191
      dxz     :     0.014392
      dyz     :     0.003553
      dx2y2   :     0.004909
      dxy     :     0.004599

 14 C s       :     3.195879  s :     3.195879
      pz      :     0.972519  p :     2.934742
      px      :     0.959133
      py      :     1.003090
      dz2     :     0.010678  d :     0.035681
      dxz     :     0.012133
      dyz     :     0.002371
      dx2y2   :     0.004974
      dxy     :     0.005525

 15 C s       :     3.156640  s :     3.156640
      pz      :     0.965591  p :     2.810186
      px      :     0.885976
      py      :     0.958618
      dz2     :     0.006383  d :     0.052887
      dxz     :     0.014919
      dyz     :     0.006129
      dx2y2   :     0.011690
      dxy     :     0.013767

 16 N s       :     3.689644  s :     3.689644
      pz      :     1.211380  p :     3.670167
      px      :     1.183305
      py      :     1.275482
      dz2     :     0.007533  d :     0.035296
      dxz     :     0.006317
      dyz     :     0.006334
      dx2y2   :     0.008669
      dxy     :     0.006442

 17 S s       :     5.220463  s :     5.220463
      pz      :     2.999616  p :     9.038136
      px      :     3.032544
      py      :     3.005976
      dz2     :     0.111082  d :     0.539627
      dxz     :     0.126462
      dyz     :     0.098170
      dx2y2   :     0.107605
      dxy     :     0.096308

 18 O s       :     3.923768  s :     3.923768
      pz      :     1.690615  p :     4.586573
      px      :     1.325504
      py      :     1.570454
      dz2     :     0.002934  d :     0.026826
      dxz     :     0.006043
      dyz     :     0.002088
      dx2y2   :     0.007679
      dxy     :     0.008082

 19 O s       :     3.926218  s :     3.926218
      pz      :     1.193684  p :     4.576660
      px      :     1.711723
      py      :     1.671253
      dz2     :     0.010560  d :     0.027112
      dxz     :     0.007704
      dyz     :     0.008180
      dx2y2   :     0.000310
      dxy     :     0.000358

 20 C s       :     3.224299  s :     3.224299
      pz      :     0.970438  p :     2.855618
      px      :     0.907213
      py      :     0.977967
      dz2     :     0.007740  d :     0.038804
      dxz     :     0.010750
      dyz     :     0.005121
      dx2y2   :     0.006536
      dxy     :     0.008657

 21 C s       :     3.206401  s :     3.206401
      pz      :     1.004369  p :     2.902854
      px      :     0.915811
      py      :     0.982674
      dz2     :     0.006225  d :     0.036011
      dxz     :     0.008915
      dyz     :     0.006300
      dx2y2   :     0.007444
      dxy     :     0.007127

 22 C s       :     3.210566  s :     3.210566
      pz      :     0.962673  p :     2.902250
      px      :     0.981754
      py      :     0.957823
      dz2     :     0.007816  d :     0.035783
      dxz     :     0.009042
      dyz     :     0.005298
      dx2y2   :     0.008398
      dxy     :     0.005230

 23 C s       :     3.165272  s :     3.165272
      pz      :     0.893964  p :     2.714019
      px      :     0.868118
      py      :     0.951938
      dz2     :     0.007541  d :     0.038396
      dxz     :     0.010810
      dyz     :     0.005301
      dx2y2   :     0.006948
      dxy     :     0.007796

 24 C s       :     2.997476  s :     2.997476
      pz      :     0.804671  p :     2.364162
      px      :     0.744843
      py      :     0.814648
      dz2     :     0.022380  d :     0.109995
      dxz     :     0.032885
      dyz     :     0.014575
      dx2y2   :     0.019287
      dxy     :     0.020868

 25 O s       :     3.878662  s :     3.878662
      pz      :     1.365114  p :     4.540561
      px      :     1.781744
      py      :     1.393703
      dz2     :     0.008799  d :     0.025595
      dxz     :     0.004264
      dyz     :     0.007415
      dx2y2   :     0.002903
      dxy     :     0.002214

 26 O s       :     3.872848  s :     3.872848
      pz      :     1.720670  p :     4.730469
      px      :     1.249490
      py      :     1.760309
      dz2     :     0.002029  d :     0.020899
      dxz     :     0.008011
      dyz     :     0.003144
      dx2y2   :     0.002630
      dxy     :     0.005084

 27 C s       :     3.215112  s :     3.215112
      pz      :     0.982186  p :     2.888670
      px      :     0.951928
      py      :     0.954556
      dz2     :     0.006360  d :     0.035631
      dxz     :     0.009029
      dyz     :     0.005878
      dx2y2   :     0.007196
      dxy     :     0.007167

 28 C s       :     3.208579  s :     3.208579
      pz      :     0.934095  p :     2.909545
      px      :     1.028087
      py      :     0.947362
      dz2     :     0.008026  d :     0.035999
      dxz     :     0.008870
      dyz     :     0.005465
      dx2y2   :     0.008723
      dxy     :     0.004916

 29 N s       :     3.696205  s :     3.696205
      pz      :     1.014493  p :     3.605842
      px      :     1.430733
      py      :     1.160616
      dz2     :     0.006671  d :     0.035659
      dxz     :     0.009909
      dyz     :     0.005472
      dx2y2   :     0.007002
      dxy     :     0.006605

 30 C s       :     3.162296  s :     3.162296
      pz      :     0.936717  p :     2.833672
      px      :     0.969165
      py      :     0.927790
      dz2     :     0.010373  d :     0.053912
      dxz     :     0.012690
      dyz     :     0.009665
      dx2y2   :     0.009731
      dxy     :     0.011452

 31 C s       :     3.139524  s :     3.139524
      pz      :     0.891170  p :     2.682567
      px      :     0.878456
      py      :     0.912941
      dz2     :     0.008584  d :     0.041766
      dxz     :     0.009077
      dyz     :     0.007403
      dx2y2   :     0.008371
      dxy     :     0.008331

 32 C s       :     3.211886  s :     3.211886
      pz      :     0.993411  p :     2.953617
      px      :     0.974474
      py      :     0.985732
      dz2     :     0.005714  d :     0.036241
      dxz     :     0.009927
      dyz     :     0.006149
      dx2y2   :     0.007661
      dxy     :     0.006790

 33 C s       :     3.193449  s :     3.193449
      pz      :     0.959758  p :     2.897627
      px      :     0.953384
      py      :     0.984485
      dz2     :     0.005966  d :     0.036339
      dxz     :     0.008025
      dyz     :     0.008375
      dx2y2   :     0.007021
      dxy     :     0.006953

 34 C s       :     3.195708  s :     3.195708
      pz      :     0.945302  p :     2.888949
      px      :     0.973467
      py      :     0.970180
      dz2     :     0.008951  d :     0.036546
      dxz     :     0.006879
      dyz     :     0.006457
      dx2y2   :     0.005794
      dxy     :     0.008465

 35 C s       :     3.208113  s :     3.208113
      pz      :     0.977527  p :     2.957976
      px      :     0.998684
      py      :     0.981765
      dz2     :     0.005955  d :     0.035573
      dxz     :     0.009906
      dyz     :     0.005418
      dx2y2   :     0.007372
      dxy     :     0.006922

 36 C s       :     3.135506  s :     3.135506
      pz      :     0.911466  p :     2.697703
      px      :     0.873846
      py      :     0.912392
      dz2     :     0.008066  d :     0.041354
      dxz     :     0.009299
      dyz     :     0.007259
      dx2y2   :     0.008561
      dxy     :     0.008168

 37 H s       :     0.837758  s :     0.837758

 38 H s       :     0.839552  s :     0.839552

 39 H s       :     0.832168  s :     0.832168

 40 H s       :     0.845919  s :     0.845919

 41 H s       :     0.817132  s :     0.817132

 42 H s       :     0.876927  s :     0.876927

 43 H s       :     0.859805  s :     0.859805

 44 H s       :     0.858548  s :     0.858548

 45 H s       :     0.869229  s :     0.869229

 46 H s       :     0.872902  s :     0.872902

 47 H s       :     0.871993  s :     0.871993

 48 H s       :     0.871501  s :     0.871501

 49 H s       :     0.850284  s :     0.850284

 50 H s       :     0.816164  s :     0.816164

 51 H s       :     0.827719  s :     0.827719

 52 H s       :     0.565737  s :     0.565737

 53 H s       :     0.819799  s :     0.819799

 54 H s       :     0.816214  s :     0.816214

 55 H s       :     0.847468  s :     0.847468

 56 H s       :     0.860076  s :     0.860076

 57 H s       :     0.865564  s :     0.865564

 58 H s       :     0.865309  s :     0.865309

 59 H s       :     0.866589  s :     0.866589



                     *******************************
                     * LOEWDIN POPULATION ANALYSIS *
                     *******************************

----------------------
LOEWDIN ATOMIC CHARGES
----------------------
   0 C :   -0.361862
   1 C :   -0.022805
   2 C :    0.034010
   3 N :   -0.276776
   4 C :   -0.146849
   5 C :    0.016694
   6 C :   -0.135228
   7 C :   -0.102306
   8 C :   -0.027427
   9 C :   -0.015205
  10 C :   -0.126450
  11 C :   -0.126227
  12 C :   -0.130452
  13 C :   -0.127878
  14 C :   -0.129349
  15 C :   -0.063385
  16 N :   -0.119087
  17 S :    1.267570
  18 O :   -0.566272
  19 O :   -0.558467
  20 C :   -0.175229
  21 C :   -0.103240
  22 C :   -0.100403
  23 C :   -0.040526
  24 C :    0.180350
  25 O :   -0.261178
  26 O :   -0.335357
  27 C :   -0.086149
  28 C :   -0.110621
  29 N :   -0.093573
  30 C :   -0.055357
  31 C :   -0.027659
  32 C :   -0.110668
  33 C :   -0.128041
  34 C :   -0.119621
  35 C :   -0.127562
  36 C :   -0.008332
  37 H :    0.136570
  38 H :    0.135549
  39 H :    0.137018
  40 H :    0.128970
  41 H :    0.150526
  42 H :    0.130329
  43 H :    0.137801
  44 H :    0.137409
  45 H :    0.132580
  46 H :    0.131015
  47 H :    0.131288
  48 H :    0.131865
  49 H :    0.136431
  50 H :    0.158760
  51 H :    0.154385
  52 H :    0.349887
  53 H :    0.160138
  54 H :    0.159261
  55 H :    0.137763
  56 H :    0.137561
  57 H :    0.134662
  58 H :    0.135058
  59 H :    0.136089

-------------------------------
LOEWDIN REDUCED ORBITAL CHARGES
-------------------------------
  0 C s       :     2.972790  s :     2.972790
      pz      :     1.086978  p :     3.322182
      px      :     1.108220
      py      :     1.126984
      dz2     :     0.008931  d :     0.066890
      dxz     :     0.014234
      dyz     :     0.021405
      dx2y2   :     0.013590
      dxy     :     0.008730

  1 C s       :     2.888553  s :     2.888553
      pz      :     1.007022  p :     3.036768
      px      :     1.017789
      py      :     1.011957
      dz2     :     0.018354  d :     0.097484
      dxz     :     0.021449
      dyz     :     0.018178
      dx2y2   :     0.019994
      dxy     :     0.019509

  2 C s       :     2.846687  s :     2.846687
      pz      :     0.971150  p :     2.941423
      px      :     1.021227
      py      :     0.949046
      dz2     :     0.032056  d :     0.177880
      dxz     :     0.041567
      dyz     :     0.039421
      dx2y2   :     0.032176
      dxy     :     0.032661

  3 N s       :     3.168732  s :     3.168732
      pz      :     1.287337  p :     4.023785
      px      :     1.586453
      py      :     1.149995
      dz2     :     0.019209  d :     0.084258
      dxz     :     0.011430
      dyz     :     0.023679
      dx2y2   :     0.019242
      dxy     :     0.010698

  4 C s       :     2.924154  s :     2.924154
      pz      :     0.957350  p :     3.105504
      px      :     1.035335
      py      :     1.112819
      dz2     :     0.028799  d :     0.117191
      dxz     :     0.027055
      dyz     :     0.021550
      dx2y2   :     0.026973
      dxy     :     0.012814

  5 C s       :     2.872966  s :     2.872966
      pz      :     0.980489  p :     2.970809
      px      :     1.013227
      py      :     0.977093
      dz2     :     0.024418  d :     0.139531
      dxz     :     0.030969
      dyz     :     0.024413
      dx2y2   :     0.033080
      dxy     :     0.026651

  6 C s       :     2.922977  s :     2.922977
      pz      :     1.034292  p :     3.127895
      px      :     1.071548
      py      :     1.022055
      dz2     :     0.010703  d :     0.084355
      dxz     :     0.022288
      dyz     :     0.011838
      dx2y2   :     0.019036
      dxy     :     0.020490

  7 C s       :     2.919372  s :     2.919372
      pz      :     1.017332  p :     3.098534
      px      :     1.070538
      py      :     1.010664
      dz2     :     0.011590  d :     0.084400
      dxz     :     0.023306
      dyz     :     0.011172
      dx2y2   :     0.017687
      dxy     :     0.020644

  8 C s       :     2.875989  s :     2.875989
      pz      :     1.015708  p :     3.050334
      px      :     1.024680
      py      :     1.009946
      dz2     :     0.017490  d :     0.101104
      dxz     :     0.023846
      dyz     :     0.014342
      dx2y2   :     0.022437
      dxy     :     0.022988

  9 C s       :     2.869854  s :     2.869854
      pz      :     1.065054  p :     3.043918
      px      :     1.019917
      py      :     0.958948
      dz2     :     0.029527  d :     0.101433
      dxz     :     0.034946
      dyz     :     0.013098
      dx2y2   :     0.013541
      dxy     :     0.010321

 10 C s       :     2.918856  s :     2.918856
      pz      :     1.063754  p :     3.124357
      px      :     1.069781
      py      :     0.990822
      dz2     :     0.021354  d :     0.083237
      dxz     :     0.034255
      dyz     :     0.006482
      dx2y2   :     0.011821
      dxy     :     0.009325

 11 C s       :     2.918198  s :     2.918198
      pz      :     1.072993  p :     3.122856
      px      :     1.072203
      py      :     0.977660
      dz2     :     0.023937  d :     0.085173
      dxz     :     0.031046
      dyz     :     0.004583
      dx2y2   :     0.013458
      dxy     :     0.012149

 12 C s       :     2.917760  s :     2.917760
      pz      :     1.071671  p :     3.127757
      px      :     1.072369
      py      :     0.983717
      dz2     :     0.029021  d :     0.084934
      dxz     :     0.027578
      dyz     :     0.013023
      dx2y2   :     0.011993
      dxy     :     0.003320

 13 C s       :     2.917952  s :     2.917952
      pz      :     1.072629  p :     3.124733
      px      :     1.071961
      py      :     0.980143
      dz2     :     0.021709  d :     0.085194
      dxz     :     0.034859
      dyz     :     0.007091
      dx2y2   :     0.011809
      dxy     :     0.009726

 14 C s       :     2.918396  s :     2.918396
      pz      :     1.066611  p :     3.127567
[...]
      px      :     1.448130
      py      :     1.210230
      dz2     :     0.017398  d :     0.079355
      dxz     :     0.021786
      dyz     :     0.015579
      dx2y2   :     0.011964
      dxy     :     0.012629

 30 C s       :     2.912308  s :     2.912308
      pz      :     1.012720  p :     3.019688
      px      :     1.029124
      py      :     0.977845
      dz2     :     0.023040  d :     0.123361
      dxz     :     0.026273
      dyz     :     0.022857
      dx2y2   :     0.021540
      dxy     :     0.029651

 31 C s       :     2.859378  s :     2.859378
      pz      :     1.017957  p :     3.059658
      px      :     1.033088
      py      :     1.008613
      dz2     :     0.021415  d :     0.108623
      dxz     :     0.023870
      dyz     :     0.020068
      dx2y2   :     0.021180
      dxy     :     0.022089

 32 C s       :     2.916620  s :     2.916620
      pz      :     1.039042  p :     3.109597
      px      :     1.049460
      py      :     1.021094
      dz2     :     0.013374  d :     0.084451
      dxz     :     0.021052
      dyz     :     0.013852
      dx2y2   :     0.017719
      dxy     :     0.018453

 33 C s       :     2.917297  s :     2.917297
      pz      :     1.041376  p :     3.125043
      px      :     1.051032
      py      :     1.032635
      dz2     :     0.014382  d :     0.085701
      dxz     :     0.021063
      dyz     :     0.016669
      dx2y2   :     0.016810
      dxy     :     0.016778

 34 C s       :     2.918241  s :     2.918241
      pz      :     1.038277  p :     3.115425
      px      :     1.049844
      py      :     1.027304
      dz2     :     0.020840  d :     0.085955
      dxz     :     0.017199
      dyz     :     0.017408
      dx2y2   :     0.012990
      dxy     :     0.017518

 35 C s       :     2.916850  s :     2.916850
      pz      :     1.049966  p :     3.128169
      px      :     1.045973
      py      :     1.032230
      dz2     :     0.013337  d :     0.082542
      dxz     :     0.020897
      dyz     :     0.013559
      dx2y2   :     0.017067
      dxy     :     0.017682

 36 C s       :     2.856029  s :     2.856029
      pz      :     1.014851  p :     3.046259
      px      :     1.027361
      py      :     1.004047
      dz2     :     0.020211  d :     0.106044
      dxz     :     0.024313
      dyz     :     0.019165
      dx2y2   :     0.021336
      dxy     :     0.021019

 37 H s       :     0.863430  s :     0.863430

 38 H s       :     0.864451  s :     0.864451

 39 H s       :     0.862982  s :     0.862982

 40 H s       :     0.871030  s :     0.871030

 41 H s       :     0.849474  s :     0.849474

 42 H s       :     0.869671  s :     0.869671

 43 H s       :     0.862199  s :     0.862199

 44 H s       :     0.862591  s :     0.862591

 45 H s       :     0.867420  s :     0.867420

 46 H s       :     0.868985  s :     0.868985

 47 H s       :     0.868712  s :     0.868712

 48 H s       :     0.868135  s :     0.868135

 49 H s       :     0.863569  s :     0.863569

 50 H s       :     0.841240  s :     0.841240

 51 H s       :     0.845615  s :     0.845615

 52 H s       :     0.650113  s :     0.650113

 53 H s       :     0.839862  s :     0.839862

 54 H s       :     0.840739  s :     0.840739

 55 H s       :     0.862237  s :     0.862237

 56 H s       :     0.862439  s :     0.862439

 57 H s       :     0.865338  s :     0.865338

 58 H s       :     0.864942  s :     0.864942

 59 H s       :     0.863911  s :     0.863911



                      *****************************
                      * MAYER POPULATION ANALYSIS *
                      *****************************

  NA   - Mulliken gross atomic population
  ZA   - Total nuclear charge
  QA   - Mulliken gross atomic charge
  VA   - Mayer's total valence
  BVA  - Mayer's bonded valence
  FA   - Mayer's free valence

  ATOM       NA         ZA         QA         VA         BVA        FA
  0 C      6.5434     6.0000    -0.5434     3.8287     3.8287    -0.0000
  1 C      5.9040     6.0000     0.0960     3.8540     3.8540     0.0000
  2 C      5.6807     6.0000     0.3193     3.8842     3.8842     0.0000
  3 N      7.6042     7.0000    -0.6042     2.7874     2.7874     0.0000
  4 C      6.2332     6.0000    -0.2332     3.8285     3.8285    -0.0000
  5 C      5.6857     6.0000     0.3143     3.8453     3.8453    -0.0000
  6 C      6.1546     6.0000    -0.1546     3.9394     3.9394     0.0000
  7 C      6.1314     6.0000    -0.1314     3.9139     3.9139    -0.0000
  8 C      5.9393     6.0000     0.0607     3.9425     3.9425    -0.0000
  9 C      5.9275     6.0000     0.0725     3.9779     3.9779     0.0000
 10 C      6.1682     6.0000    -0.1682     3.9198     3.9198    -0.0000
 11 C      6.1309     6.0000    -0.1309     3.9461     3.9461    -0.0000
 12 C      6.1224     6.0000    -0.1224     3.9471     3.9471     0.0000
 13 C      6.1310     6.0000    -0.1310     3.9473     3.9473    -0.0000
 14 C      6.1663     6.0000    -0.1663     3.9215     3.9215    -0.0000
 15 C      6.0197     6.0000    -0.0197     3.8895     3.8895    -0.0000
 16 N      7.3951     7.0000    -0.3951     2.9959     2.9959     0.0000
 17 S     14.7982    16.0000     1.2018     5.0863     5.0863    -0.0000
 18 O      8.5372     8.0000    -0.5372     1.8987     1.8987     0.0000
 19 O      8.5300     8.0000    -0.5300     1.9004     1.9004     0.0000
 20 C      6.1187     6.0000    -0.1187     3.8368     3.8368    -0.0000
 21 C      6.1453     6.0000    -0.1453     3.9227     3.9227     0.0000
 22 C      6.1486     6.0000    -0.1486     3.8676     3.8676     0.0000
 23 C      5.9177     6.0000     0.0823     3.9276     3.9276     0.0000
 24 C      5.4716     6.0000     0.5284     3.9528     3.9528     0.0000
 25 O      8.4448     8.0000    -0.4448     2.0669     2.0669     0.0000
 26 O      8.6242     8.0000    -0.6242     1.8682     1.8682     0.0000
 27 C      6.1394     6.0000    -0.1394     3.8926     3.8926    -0.0000
 28 C      6.1541     6.0000    -0.1541     3.9086     3.9086     0.0000
 29 N      7.3377     7.0000    -0.3377     2.9852     2.9852     0.0000
 30 C      6.0499     6.0000    -0.0499     3.8574     3.8574     0.0000
 31 C      5.8639     6.0000     0.1361     3.9504     3.9504     0.0000
 32 C      6.2017     6.0000    -0.2017     3.9005     3.9005     0.0000
 33 C      6.1274     6.0000    -0.1274     3.9268     3.9268    -0.0000
 34 C      6.1212     6.0000    -0.1212     3.9282     3.9282     0.0000
 35 C      6.2017     6.0000    -0.2017     3.8740     3.8740    -0.0000
 36 C      5.8746     6.0000     0.1254     3.9936     3.9936    -0.0000
 37 H      0.8378     1.0000     0.1622     0.9297     0.9297    -0.0000
 38 H      0.8396     1.0000     0.1604     0.9322     0.9322    -0.0000
 39 H      0.8322     1.0000     0.1678     0.9380     0.9380    -0.0000
 40 H      0.8459     1.0000     0.1541     0.9379     0.9379    -0.0000
 41 H      0.8171     1.0000     0.1829     0.9303     0.9303    -0.0000
 42 H      0.8769     1.0000     0.1231     0.9411     0.9411     0.0000
 43 H      0.8598     1.0000     0.1402     0.9385     0.9385    -0.0000
 44 H      0.8585     1.0000     0.1415     0.9382     0.9382     0.0000
 45 H      0.8692     1.0000     0.1308     0.9367     0.9367    -0.0000
 46 H      0.8729     1.0000     0.1271     0.9366     0.9366     0.0000
 47 H      0.8720     1.0000     0.1280     0.9369     0.9369    -0.0000
 48 H      0.8715     1.0000     0.1285     0.9408     0.9408    -0.0000
 49 H      0.8503     1.0000     0.1497     0.9374     0.9374     0.0000
 50 H      0.8162     1.0000     0.1838     0.9358     0.9358    -0.0000
 51 H      0.8277     1.0000     0.1723     0.9364     0.9364    -0.0000
 52 H      0.5657     1.0000     0.4343     0.7953     0.7953     0.0000
 53 H      0.8198     1.0000     0.1802     0.9387     0.9387     0.0000
 54 H      0.8162     1.0000     0.1838     0.9384     0.9384     0.0000
 55 H      0.8475     1.0000     0.1525     0.9333     0.9333    -0.0000
 56 H      0.8601     1.0000     0.1399     0.9370     0.9370     0.0000
 57 H      0.8656     1.0000     0.1344     0.9370     0.9370     0.0000
 58 H      0.8653     1.0000     0.1347     0.9369     0.9369     0.0000
 59 H      0.8666     1.0000     0.1334     0.9427     0.9427    -0.0000

  Mayer bond orders larger than 0.100000
B(  0-C ,  1-C ) :   0.9958 B(  0-C , 37-H ) :   0.9277 B(  0-C , 38-H ) :   0.9290 
B(  0-C , 39-H ) :   0.9311 B(  1-C ,  2-C ) :   1.4369 B(  1-C , 30-C ) :   0.1015 
B(  1-C , 36-C ) :   1.2619 B(  2-C ,  3-N ) :   0.8765 B(  2-C , 29-N ) :   1.2994 
B(  3-N ,  4-C ) :   0.9403 B(  3-N , 17-S ) :   0.8090 B(  4-C ,  5-C ) :   0.9512 
B(  4-C , 40-H ) :   0.9283 B(  4-C , 41-H ) :   0.9151 B(  5-C ,  6-C ) :   1.4090 
B(  5-C , 16-N ) :   1.3827 B(  6-C ,  7-C ) :   1.4370 B(  6-C , 42-H ) :   0.9195 
B(  7-C ,  8-C ) :   1.4129 B(  7-C , 43-H ) :   0.9206 B(  8-C ,  9-C ) :   1.0026 
B(  8-C , 15-C ) :   1.3523 B(  9-C , 10-C ) :   1.4089 B(  9-C , 14-C ) :   1.4079 
B( 10-C , 11-C ) :   1.4391 B( 10-C , 44-H ) :   0.9208 B( 11-C , 12-C ) :   1.4516 
B( 11-C , 45-H ) :   0.9294 B( 12-C , 13-C ) :   1.4500 B( 12-C , 46-H ) :   0.9304 
B( 13-C , 14-C ) :   1.4414 B( 13-C , 47-H ) :   0.9298 B( 14-C , 48-H ) :   0.9227 
B( 15-C , 16-N ) :   1.4313 B( 15-C , 49-H ) :   0.9241 B( 17-S , 18-O ) :   1.6402 
B( 17-S , 19-O ) :   1.6506 B( 17-S , 20-C ) :   0.8107 B( 20-C , 21-C ) :   1.3892 
B( 20-C , 28-C ) :   1.3845 B( 21-C , 22-C ) :   1.4206 B( 21-C , 50-H ) :   0.9094 
B( 22-C , 23-C ) :   1.3805 B( 22-C , 51-H ) :   0.9149 B( 23-C , 24-C ) :   1.0088 
B( 23-C , 27-C ) :   1.4050 B( 24-C , 25-O ) :   1.8623 B( 24-C , 26-O ) :   1.0241 
B( 26-O , 52-H ) :   0.7417 B( 27-C , 28-C ) :   1.4143 B( 27-C , 53-H ) :   0.9097 
B( 28-C , 54-H ) :   0.9088 B( 29-N , 30-C ) :   1.5023 B( 30-C , 31-C ) :   1.2262 
B( 30-C , 55-H ) :   0.9265 B( 31-C , 32-C ) :   1.2851 B( 31-C , 36-C ) :   1.2932 
B( 32-C , 33-C ) :   1.5115 B( 32-C , 35-C ) :   0.1061 B( 32-C , 56-H ) :   0.9230 
B( 33-C , 34-C ) :   1.3543 B( 33-C , 57-H ) :   0.9295 B( 34-C , 35-C ) :   1.5084 
B( 34-C , 58-H ) :   0.9295 B( 35-C , 36-C ) :   1.2940 B( 35-C , 59-H ) :   0.9176 


-------
TIMINGS
-------

Total SCF time: 0 days 0 hours 10 min 33 sec 

Total time                  ....     633.766 sec
Sum of individual times     ....     633.404 sec  ( 99.9%)

SCF preparation             ....       0.425 sec  (  0.1%)
Fock matrix formation       ....     629.744 sec  ( 99.4%)
  Startup                   ....       0.127 sec  (  0.0% of F)
  Split-RI-J                ....      87.883 sec  ( 14.0% of F)
  Chain of spheres X        ....     489.471 sec  ( 77.7% of F)
  XC integration            ....      51.075 sec  (  8.1% of F)
    XC Preparation          ....       0.000 sec  (  0.0% of XC)
    Basis function eval.    ....      20.103 sec  ( 39.4% of XC)
    Density eval.           ....      12.660 sec  ( 24.8% of XC)
    XC-Functional eval.     ....       2.418 sec  (  4.7% of XC)
    XC-Potential eval.      ....      13.901 sec  ( 27.2% of XC)
Diagonalization             ....       0.000 sec  (  0.0%)
Density matrix formation    ....       0.472 sec  (  0.1%)
Total Energy calculation    ....       0.174 sec  (  0.0%)
Population analysis         ....       0.106 sec  (  0.0%)
Orbital Transformation      ....       0.317 sec  (  0.0%)
Orbital Orthonormalization  ....       0.000 sec  (  0.0%)
DIIS solution               ....       1.315 sec  (  0.2%)
SOSCF solution              ....       0.851 sec  (  0.1%)
Finished LeanSCF after 633.9 sec

Maximum memory used throughout the entire LEANSCF-calculation: 98.0 MB

-------------------------   --------------------
FINAL SINGLE POINT ENERGY     -1981.160536538489
-------------------------   --------------------


------------------------------------------------------------------------------
                              ORCA PROPERTY CALCULATIONS
------------------------------------------------------------------------------

GBWName                                 ... /home/nmrbox/aojoawo/Documents/ERDOS/inputs/CHEMBL3682572.gbw
Number of atoms                         ...     60
Number of basis functions               ...    568
Max core memory                         ...   1024 MB

Electric properties:
Dipole moment                           ... YES
Quadrupole moment                       ...  NO
Static polarizability (Dipole/Dipole)   ...  NO
Static polarizability (Dipole/Quad.)    ...  NO
Static polarizability (Quad./Quad.)     ...  NO
Static polarizability (Velocity)        ...  NO

Atomic electric properties:
Dipole moment                           ...  NO
Quadrupole moment                       ...  NO
Static polarizability                   ...  NO

Choice of electric origin               ... Center of mass
Position of electric origin             ...    -0.336655     0.602522     0.112421

General magnetic properties:
Magnetizability                         ...  NO

EPR properties:
g-Tensor (aka g-matrix)                 ...  NO
Zero-Field splitting spin-orbit         ...  NO
Zero-field splitting spin-spin          ...  NO
Hyperfine couplings                     ...  NO (   0 nuclei)
Quadrupole couplings                    ...  NO (   0 nuclei)
Contact density                         ...  NO (   0 nuclei)

NMR properties:
Chemical shifts                         ...  NO (   0 nuclei)
Spin-rotation constants                 ...  NO (   0 nuclei)
Spin-spin couplings                     ...  NO (   0 nuclei,    0 pairs)

Choice of magnetic origin               ... GIAO
Position of magnetic origin             ...     0.000000     0.000000     0.000000

Properties with geometric perturbations:
SCF Hessian                             ...  NO
IR spectrum                             ...  NO
VCD spectrum                            ...  NO
X-ray spectroscopy properties:
SCF XES/XAS/RIXS spectra                ...  NO


-------------
DIPOLE MOMENT
-------------

Method             : SCF
Type of density    : Electron Density
Multiplicity       :   1
Irrep              :   0
Energy             : -1981.1605365384889410 Eh
Relativity type    : 
Basis              : AO
                                X                 Y                 Z
Electronic contribution:     -7.932662813      11.868401043       2.474977079
Nuclear contribution   :      6.313565149     -13.372974342      -3.571166357
                        -----------------------------------------
Total Dipole Moment    :     -1.619097664      -1.504573299      -1.096189279
                        -----------------------------------------
Magnitude (a.u.)       :      2.467154027
Magnitude (Debye)      :      6.271007170



--------------------
Rotational spectrum 
--------------------
 
Rotational constants in cm-1:             0.003796             0.001893             0.001357 
Rotational constants in MHz :           113.787425            56.748165            40.679625 

Dipole components along the rotational axes: 
x,y,z [a.u.] :    -1.328664    -0.956120    -1.845897 
x,y,z [Debye]:    -3.377196    -2.430264    -4.691897 

 

Dipole moment calculation done in   0.0 sec 

Maximum memory used throughout the entire PROP-calculation: 48.2 MB

--------------------------------
SUGGESTED CITATIONS FOR THIS RUN
--------------------------------

Below you find a list of papers that are relevant to this ORCA run
We neither can nor want to force you to cite these papers, but we appreciate if you do
You receive ORCA, which is the product of decades of hard work by many enthusiastic individuals, for free
The only thing we kindly ask in return is that you cite our papers,
We deeply appreciate it, if you show your appreciation for ORCA by not just citing the generic ORCA reference.

Please note that relegating all ORCA citations to the supporting information does *not* help us.
SI sections are not indexed - citations you put there will not count into any citation statistics
But we need these citations in order to attract the funding resources that allow us to do what we are doing

Therefore, if you are a happy ORCA user, please consider citing a few of the papers listed below in the main body of your paper

In addition to the list printed below, the program has created the file /home/nmrbox/aojoawo/Documents/ERDOS/inputs/CHEMBL3682572.bibtex that contains the list in bibtex format
You can import this file easily into all common literature databanks and citation aid programs


List of essential papers. We consider these as the minimum necessary citations

  1. Neese,F.
     Software update: the ORCA program system, version 5.0
     WIRES Comput. Molec. Sci., 2022 12(1)e1606
     doi.org/10.1002/wcms.1606

List of papers to cite with high priority. The work reported in these papers was absolutely
necessary for this run to complete.
Our perspective: the developers of density functionals and basis sets usually get cited in chemistry papers
Good! But without the algorithms to do something with them, the functionals or basis sets would not do anything.
Hence, in our opinion, the algorithm design and method developments papers are equally worthy of getting cited

  1. Neese,F.
     An improvement of the resolution of the identity approximation for the formation of the Coulomb matrix
     J. Comp. Chem., 2003 24(14)1740-1747
     doi.org/10.1002/jcc.10318
  2. Neese,F.; Wennmohs,F.; Hansen,A.; Becker,U.
     Efficient, approximate and parallel Hartree-Fock and hybrid DFT calculations. A 'chain-of-spheres' algorithm for the Hartree-Fock exchange
     Chem. Phys., 2009 356(1-3)98-109
     doi.org/10.1016/j.chemphys.2008.10.036
  3. Helmich-Paris,B.; de Souza,B.; Neese,F.; Izsák,R.
     An improved chain of spheres for exchange algorithm
     J. Chem. Phys., 2021 155 104109
     doi.org/doi: 10.1063/5.0058766.
  4. Neese,F.
     The SHARK Integral Generation and Digestion System
     J. Comp. Chem., 2022  1-16
     doi.org/10.1002/jcc.26942

List of suggested additional citations. These are papers that are important in the 'surrounding' of 
of this run, or papers that preceded the highly important papers. If you like your results we are grateful for a citation.

  1. Izsak,R.; Neese,F.
     An overlap fitted chain of spheres exchange method
     J. Chem. Phys., 2011 135 144105
     doi.org/10.1063/1.3646921
  2. Izsak,R.; Hansen,A.; Neese,F.
     The resolution of identity and chain of spheres approximations for the LPNO-CCSD singles Fock term
     Molec. Phys., 2012 110 2413-2417
     doi.org/10.1080/00268976.2012.687466
  3. Neese,F.
     The ORCA program system
     WIRES Comput. Molec. Sci., 2012 2(1)73-78
     doi.org/10.1002/wcms.81
  4. Izsak,R.; Neese,F.; Klopper,W.
     Robust fitting techniques in the chain of spheres approximation to the Fock exchange: The role of the complementary space
     J. Chem. Phys., 2013 139 
     doi.org/10.1063/1.4819264
  5. Neese,F.
     Software update: the ORCA program system, version 4.0
     WIRES Comput. Molec. Sci., 2018 8(1)1-6
     doi.org/10.1002/wcms.1327
  6. Neese,F.; Wennmohs,F.; Becker,U.; Riplinger,C.
     The ORCA quantum chemistry program package
     J. Chem. Phys., 2020 152 Art. No. L224108
     doi.org/10.1063/5.0004608

List of optional additional citations

  1. Neese,F.
     Approximate second-order SCF convergence for spin unrestricted wavefunctions
     Chem. Phys. Lett., 2000 325(1-3)93-98
     doi.org/10.1016/s0009-2614(00)00662-x

Timings for individual modules:

Sum of individual times          ...      655.838 sec (=  10.931 min)
Startup calculation              ...       14.560 sec (=   0.243 min)   2.2 %
SCF iterations                   ...      641.042 sec (=  10.684 min)  97.7 %
Property calculations            ...        0.236 sec (=   0.004 min)   0.0 %
                             ****ORCA TERMINATED NORMALLY****
TOTAL RUN TIME: 0 days 0 hours 10 minutes 56 seconds 529 msec
